 DBCSR| CPU Multiplication driver                                           BLAS (U)
 DBCSR| Multrec recursion limit                                              512 (U)
 DBCSR| Multiplication stack size                                           1000 (D)
 DBCSR| Maximum elements for images                                    UNLIMITED (U)
 DBCSR| Multiplicative factor virtual images                                   1 (U)
 DBCSR| Use multiplication densification                                       T (D)
 DBCSR| Multiplication size stacks                                             3 (U)
 DBCSR| Use memory pool for CPU allocation                                     F (U)
 DBCSR| Number of 3D layers                                               SINGLE (U)
 DBCSR| Use MPI memory allocation                                              F (U)
 DBCSR| Use RMA algorithm                                                      F (U)
 DBCSR| Use Communication thread                                               T (U)
 DBCSR| Communication thread load                                             45 (D)
 DBCSR| MPI: My process id                                                     0
 DBCSR| MPI: Number of processes                                               8
 DBCSR| OMP: Current number of threads                                        12
 DBCSR| OMP: Max number of threads                                            12
 DBCSR| Split modifier for TAS multiplication algorithm                  1.0E+00 (U)


  **** **** ******  **  PROGRAM STARTED AT               2025-08-04 18:04:52.361
 ***** ** ***  *** **   PROGRAM STARTED ON                          i04r10c03s05
 **    ****   ******    PROGRAM STARTED BY                               di38fab
 ***** **    ** ** **   PROGRAM PROCESS ID                               3271032
  **** **  *******  **  PROGRAM STARTED IN /hppfs/scratch/04/di38fab/09_GTH/Delt
                                           a_Set/H/aug-SZV-MOLOPT-GTH-tier-2/8x8
                                           x8

 CP2K| version string:                 CP2K version 2025.1 (Development Version)
 CP2K| source code revision number:                                  git:3130539
 CP2K| cp2kflags: omp libint fftw3 libxc parallel scalapack max_contr=4         
 CP2K| is freely available from                            https://www.cp2k.org/
 CP2K| Program compiled at                         Tue Jun  3 16:14:32 CEST 2025
 CP2K| Program compiled on                                               login01
 CP2K| Program compiled for                                        Supermuc-foss
 CP2K| Data directory path                  /hppfs/work/pn36zo/di38fab/cp2k/data
 CP2K| Input file name                                                    GW.inp

 GLOBAL| Force Environment number                                              1
 GLOBAL| Basis set file name            /hppfs/scratch/04/di38fab/09_GTH/BASIS_A
 GLOBAL| Potential file name            /hppfs/work/pn36zo/di38fab/cp2k/data/GTH
 GLOBAL| MM Potential file name                                     MM_POTENTIAL
 GLOBAL| Coordinate file name                                              H.cif
 GLOBAL| Method name                                                        CP2K
 GLOBAL| Project name                                                       WSe2
 GLOBAL| Run type                                                         ENERGY
 GLOBAL| FFT library                                                       FFTW3
 GLOBAL| Diagonalization library                                       ScaLAPACK
 GLOBAL| Cholesky decomposition library                                ScaLAPACK
 GLOBAL| DGEMM library                                                      BLAS
 GLOBAL| Orthonormality check for eigenvectors                          DISABLED
 GLOBAL| Matrix multiplication library                                 ScaLAPACK
 GLOBAL| All-to-all communication in single precision                          F
 GLOBAL| FFTs using library dependent lengths                                  F
 GLOBAL| Grid backend                                                       AUTO
 GLOBAL| Global print level                                               MEDIUM
 GLOBAL| MPI I/O enabled                                                       T
 GLOBAL| Total number of message passing processes                             8
 GLOBAL| Number of threads for this process                                   12
 GLOBAL| This output is from process                                           0
 GLOBAL| OpenMP stack size per thread (OMP_STACKSIZE)                    default
 GLOBAL| CPU model name             Intel(R) Xeon(R) Platinum 8174 CPU @ 3.10GHz

 MEMORY| system memory details [Kb]
 MEMORY|                        rank 0           min           max       average
 MEMORY| MemTotal             98436708      98436664      98436708      98436686
 MEMORY| MemFree              84628480      84628480      84721324      84674902
 MEMORY| Buffers                     0             0             0             0
 MEMORY| Cached                2351228       2351228       2367820       2359524
 MEMORY| Slab                  1274084       1258424       1274084       1266254
 MEMORY| SReclaimable           277596        273816        277596        275706
 MEMORY| MemLikelyFree        87257304      87257304      87362960      87310132


 *** Fundamental physical constants (SI units) ***

 *** Literature: B. J. Mohr and B. N. Taylor,
 ***             CODATA recommended values of the fundamental physical
 ***             constants: 2006, Web Version 5.1
 ***             http://physics.nist.gov/constants

 Speed of light in vacuum [m/s]                             2.99792458000000E+08
 Magnetic constant or permeability of vacuum [N/A**2]       1.25663706143592E-06
 Electric constant or permittivity of vacuum [F/m]          8.85418781762039E-12
 Planck constant (h) [J*s]                                  6.62606896000000E-34
 Planck constant (h-bar) [J*s]                              1.05457162825177E-34
 Elementary charge [C]                                      1.60217648700000E-19
 Electron mass [kg]                                         9.10938215000000E-31
 Electron g factor [ ]                                     -2.00231930436220E+00
 Proton mass [kg]                                           1.67262163700000E-27
 Fine-structure constant                                    7.29735253760000E-03
 Rydberg constant [1/m]                                     1.09737315685270E+07
 Avogadro constant [1/mol]                                  6.02214179000000E+23
 Boltzmann constant [J/K]                                   1.38065040000000E-23
 Atomic mass unit [kg]                                      1.66053878200000E-27
 Bohr radius [m]                                            5.29177208590000E-11

 *** Conversion factors ***

 [u] -> [a.u.]                                              1.82288848426455E+03
 [Angstrom] -> [Bohr] = [a.u.]                              1.88972613288564E+00
 [a.u.] = [Bohr] -> [Angstrom]                              5.29177208590000E-01
 [a.u.] -> [s]                                              2.41888432650478E-17
 [a.u.] -> [fs]                                             2.41888432650478E-02
 [a.u.] -> [J]                                              4.35974393937059E-18
 [a.u.] -> [N]                                              8.23872205491840E-08
 [a.u.] -> [K]                                              3.15774647902944E+05
 [a.u.] -> [kJ/mol]                                         2.62549961709828E+03
 [a.u.] -> [kcal/mol]                                       6.27509468713739E+02
 [a.u.] -> [Pa]                                             2.94210107994716E+13
 [a.u.] -> [bar]                                            2.94210107994716E+08
 [a.u.] -> [atm]                                            2.90362800883016E+08
 [a.u.] -> [eV]                                             2.72113838565563E+01
 [a.u.] -> [Hz]                                             6.57968392072181E+15
 [a.u.] -> [1/cm] (wave numbers)                            2.19474631370540E+05
 [a.u./Bohr**2] -> [1/cm]                                   5.14048714338585E+03
 

 CELL_TOP| Volume [angstrom^3]:                                        69.587908
 CELL_TOP| Vector a [angstrom     4.008     0.000     0.000   |a| =     4.007590
 CELL_TOP| Vector b [angstrom    -2.004     3.471     0.000   |b| =     4.007590
 CELL_TOP| Vector c [angstrom     0.000     0.000     5.003   |c| =     5.003070
 CELL_TOP| Angle (b,c), alpha [degree]:                                90.000000
 CELL_TOP| Angle (a,c), beta  [degree]:                                90.000000
 CELL_TOP| Angle (a,b), gamma [degree]:                               120.000000
 CELL_TOP| Numerically orthorhombic:                                          NO
 CELL_TOP| Periodicity                                                       XYZ

 CELL_CIF| Volume [angstrom^3]:                                        69.587908
 CELL_CIF| Vector a [angstrom     4.008     0.000     0.000   |a| =     4.007590
 CELL_CIF| Vector b [angstrom    -2.004     3.471     0.000   |b| =     4.007590
 CELL_CIF| Vector c [angstrom     0.000     0.000     5.003   |c| =     5.003070
 CELL_CIF| Angle (b,c), alpha [degree]:                                90.000000
 CELL_CIF| Angle (a,c), beta  [degree]:                                90.000000
 CELL_CIF| Angle (a,b), gamma [degree]:                               120.000000
 CELL_CIF| Numerically orthorhombic:                                          NO
 CELL_CIF| Periodicity                                                       XYZ

 GENERATE|  Preliminary Number of Bonds generated:                             0
 GENERATE|  Achieved consistency in connectivity generation.

 CELL| Volume [angstrom^3]:                                            69.587908
 CELL| Vector a [angstrom]:       4.008     0.000     0.000   |a| =     4.007590
 CELL| Vector b [angstrom]:      -2.004     3.471     0.000   |b| =     4.007590
 CELL| Vector c [angstrom]:       0.000     0.000     5.003   |c| =     5.003070
 CELL| Angle (b,c), alpha [degree]:                                    90.000000
 CELL| Angle (a,c), beta  [degree]:                                    90.000000
 CELL| Angle (a,b), gamma [degree]:                                   120.000000
 CELL| Numerically orthorhombic:                                              NO
 CELL| Periodicity                                                           XYZ

 CELL_REF| Volume [angstrom^3]:                                        69.587908
 CELL_REF| Vector a [angstrom     4.008     0.000     0.000   |a| =     4.007590
 CELL_REF| Vector b [angstrom    -2.004     3.471     0.000   |b| =     4.007590
 CELL_REF| Vector c [angstrom     0.000     0.000     5.003   |c| =     5.003070
 CELL_REF| Angle (b,c), alpha [degree]:                                90.000000
 CELL_REF| Angle (a,c), beta  [degree]:                                90.000000
 CELL_REF| Angle (a,b), gamma [degree]:                               120.000000
 CELL_REF| Numerically orthorhombic:                                          NO
 CELL_REF| Periodicity                                                       XYZ

 *** WARNING in cryssym.F:180 :: Symmetry library SPGLIB not available ***


 *******************************************************************************
                                    Kpoints
 *******************************************************************************
 BRILLOUIN| K-point scheme                                        Monkhorst-Pack
 BRILLOUIN| K-Point grid                                             8    8    8
 BRILLOUIN| Accuracy in Symmetry determination                      0.100000E-05
 BRILLOUIN| K-Point point group symmetrization                               OFF
 BRILLOUIN| Wavefunction type                                            COMPLEX
 BRILLOUIN| List of Kpoints [2 Pi/Bohr]                                      256
 BRILLOUIN| Number           Weight            X              Y              Z
 BRILLOUIN|     1           0.00391       -0.43750       -0.43750       -0.43750
 BRILLOUIN|     2           0.00391       -0.43750       -0.43750       -0.31250
 BRILLOUIN|     3           0.00391       -0.43750       -0.43750       -0.18750
 BRILLOUIN|     4           0.00391       -0.43750       -0.43750       -0.06250
 BRILLOUIN|     5           0.00391       -0.43750       -0.43750        0.06250
 BRILLOUIN|     6           0.00391       -0.43750       -0.43750        0.18750
 BRILLOUIN|     7           0.00391       -0.43750       -0.43750        0.31250
 BRILLOUIN|     8           0.00391       -0.43750       -0.43750        0.43750
 BRILLOUIN|     9           0.00391       -0.43750       -0.31250       -0.43750
 BRILLOUIN|    10           0.00391       -0.43750       -0.31250       -0.31250
 BRILLOUIN|    11           0.00391       -0.43750       -0.31250       -0.18750
 BRILLOUIN|    12           0.00391       -0.43750       -0.31250       -0.06250
 BRILLOUIN|    13           0.00391       -0.43750       -0.31250        0.06250
 BRILLOUIN|    14           0.00391       -0.43750       -0.31250        0.18750
 BRILLOUIN|    15           0.00391       -0.43750       -0.31250        0.31250
 BRILLOUIN|    16           0.00391       -0.43750       -0.31250        0.43750
 BRILLOUIN|    17           0.00391       -0.43750       -0.18750       -0.43750
 BRILLOUIN|    18           0.00391       -0.43750       -0.18750       -0.31250
 BRILLOUIN|    19           0.00391       -0.43750       -0.18750       -0.18750
 BRILLOUIN|    20           0.00391       -0.43750       -0.18750       -0.06250
 BRILLOUIN|    21           0.00391       -0.43750       -0.18750        0.06250
 BRILLOUIN|    22           0.00391       -0.43750       -0.18750        0.18750
 BRILLOUIN|    23           0.00391       -0.43750       -0.18750        0.31250
 BRILLOUIN|    24           0.00391       -0.43750       -0.18750        0.43750
 BRILLOUIN|    25           0.00391       -0.43750       -0.06250       -0.43750
 BRILLOUIN|    26           0.00391       -0.43750       -0.06250       -0.31250
 BRILLOUIN|    27           0.00391       -0.43750       -0.06250       -0.18750
 BRILLOUIN|    28           0.00391       -0.43750       -0.06250       -0.06250
 BRILLOUIN|    29           0.00391       -0.43750       -0.06250        0.06250
 BRILLOUIN|    30           0.00391       -0.43750       -0.06250        0.18750
 BRILLOUIN|    31           0.00391       -0.43750       -0.06250        0.31250
 BRILLOUIN|    32           0.00391       -0.43750       -0.06250        0.43750
 BRILLOUIN|    33           0.00391       -0.43750        0.06250       -0.43750
 BRILLOUIN|    34           0.00391       -0.43750        0.06250       -0.31250
 BRILLOUIN|    35           0.00391       -0.43750        0.06250       -0.18750
 BRILLOUIN|    36           0.00391       -0.43750        0.06250       -0.06250
 BRILLOUIN|    37           0.00391       -0.43750        0.06250        0.06250
 BRILLOUIN|    38           0.00391       -0.43750        0.06250        0.18750
 BRILLOUIN|    39           0.00391       -0.43750        0.06250        0.31250
 BRILLOUIN|    40           0.00391       -0.43750        0.06250        0.43750
 BRILLOUIN|    41           0.00391       -0.43750        0.18750       -0.43750
 BRILLOUIN|    42           0.00391       -0.43750        0.18750       -0.31250
 BRILLOUIN|    43           0.00391       -0.43750        0.18750       -0.18750
 BRILLOUIN|    44           0.00391       -0.43750        0.18750       -0.06250
 BRILLOUIN|    45           0.00391       -0.43750        0.18750        0.06250
 BRILLOUIN|    46           0.00391       -0.43750        0.18750        0.18750
 BRILLOUIN|    47           0.00391       -0.43750        0.18750        0.31250
 BRILLOUIN|    48           0.00391       -0.43750        0.18750        0.43750
 BRILLOUIN|    49           0.00391       -0.43750        0.31250       -0.43750
 BRILLOUIN|    50           0.00391       -0.43750        0.31250       -0.31250
 BRILLOUIN|    51           0.00391       -0.43750        0.31250       -0.18750
 BRILLOUIN|    52           0.00391       -0.43750        0.31250       -0.06250
 BRILLOUIN|    53           0.00391       -0.43750        0.31250        0.06250
 BRILLOUIN|    54           0.00391       -0.43750        0.31250        0.18750
 BRILLOUIN|    55           0.00391       -0.43750        0.31250        0.31250
 BRILLOUIN|    56           0.00391       -0.43750        0.31250        0.43750
 BRILLOUIN|    57           0.00391       -0.43750        0.43750       -0.43750
 BRILLOUIN|    58           0.00391       -0.43750        0.43750       -0.31250
 BRILLOUIN|    59           0.00391       -0.43750        0.43750       -0.18750
 BRILLOUIN|    60           0.00391       -0.43750        0.43750       -0.06250
 BRILLOUIN|    61           0.00391       -0.43750        0.43750        0.06250
 BRILLOUIN|    62           0.00391       -0.43750        0.43750        0.18750
 BRILLOUIN|    63           0.00391       -0.43750        0.43750        0.31250
 BRILLOUIN|    64           0.00391       -0.43750        0.43750        0.43750
 BRILLOUIN|    65           0.00391       -0.31250       -0.43750       -0.43750
 BRILLOUIN|    66           0.00391       -0.31250       -0.43750       -0.31250
 BRILLOUIN|    67           0.00391       -0.31250       -0.43750       -0.18750
 BRILLOUIN|    68           0.00391       -0.31250       -0.43750       -0.06250
 BRILLOUIN|    69           0.00391       -0.31250       -0.43750        0.06250
 BRILLOUIN|    70           0.00391       -0.31250       -0.43750        0.18750
 BRILLOUIN|    71           0.00391       -0.31250       -0.43750        0.31250
 BRILLOUIN|    72           0.00391       -0.31250       -0.43750        0.43750
 BRILLOUIN|    73           0.00391       -0.31250       -0.31250       -0.43750
 BRILLOUIN|    74           0.00391       -0.31250       -0.31250       -0.31250
 BRILLOUIN|    75           0.00391       -0.31250       -0.31250       -0.18750
 BRILLOUIN|    76           0.00391       -0.31250       -0.31250       -0.06250
 BRILLOUIN|    77           0.00391       -0.31250       -0.31250        0.06250
 BRILLOUIN|    78           0.00391       -0.31250       -0.31250        0.18750
 BRILLOUIN|    79           0.00391       -0.31250       -0.31250        0.31250
 BRILLOUIN|    80           0.00391       -0.31250       -0.31250        0.43750
 BRILLOUIN|    81           0.00391       -0.31250       -0.18750       -0.43750
 BRILLOUIN|    82           0.00391       -0.31250       -0.18750       -0.31250
 BRILLOUIN|    83           0.00391       -0.31250       -0.18750       -0.18750
 BRILLOUIN|    84           0.00391       -0.31250       -0.18750       -0.06250
 BRILLOUIN|    85           0.00391       -0.31250       -0.18750        0.06250
 BRILLOUIN|    86           0.00391       -0.31250       -0.18750        0.18750
 BRILLOUIN|    87           0.00391       -0.31250       -0.18750        0.31250
 BRILLOUIN|    88           0.00391       -0.31250       -0.18750        0.43750
 BRILLOUIN|    89           0.00391       -0.31250       -0.06250       -0.43750
 BRILLOUIN|    90           0.00391       -0.31250       -0.06250       -0.31250
 BRILLOUIN|    91           0.00391       -0.31250       -0.06250       -0.18750
 BRILLOUIN|    92           0.00391       -0.31250       -0.06250       -0.06250
 BRILLOUIN|    93           0.00391       -0.31250       -0.06250        0.06250
 BRILLOUIN|    94           0.00391       -0.31250       -0.06250        0.18750
 BRILLOUIN|    95           0.00391       -0.31250       -0.06250        0.31250
 BRILLOUIN|    96           0.00391       -0.31250       -0.06250        0.43750
 BRILLOUIN|    97           0.00391       -0.31250        0.06250       -0.43750
 BRILLOUIN|    98           0.00391       -0.31250        0.06250       -0.31250
 BRILLOUIN|    99           0.00391       -0.31250        0.06250       -0.18750
 BRILLOUIN|   100           0.00391       -0.31250        0.06250       -0.06250
 BRILLOUIN|   101           0.00391       -0.31250        0.06250        0.06250
 BRILLOUIN|   102           0.00391       -0.31250        0.06250        0.18750
 BRILLOUIN|   103           0.00391       -0.31250        0.06250        0.31250
 BRILLOUIN|   104           0.00391       -0.31250        0.06250        0.43750
 BRILLOUIN|   105           0.00391       -0.31250        0.18750       -0.43750
 BRILLOUIN|   106           0.00391       -0.31250        0.18750       -0.31250
 BRILLOUIN|   107           0.00391       -0.31250        0.18750       -0.18750
 BRILLOUIN|   108           0.00391       -0.31250        0.18750       -0.06250
 BRILLOUIN|   109           0.00391       -0.31250        0.18750        0.06250
 BRILLOUIN|   110           0.00391       -0.31250        0.18750        0.18750
 BRILLOUIN|   111           0.00391       -0.31250        0.18750        0.31250
 BRILLOUIN|   112           0.00391       -0.31250        0.18750        0.43750
 BRILLOUIN|   113           0.00391       -0.31250        0.31250       -0.43750
 BRILLOUIN|   114           0.00391       -0.31250        0.31250       -0.31250
 BRILLOUIN|   115           0.00391       -0.31250        0.31250       -0.18750
 BRILLOUIN|   116           0.00391       -0.31250        0.31250       -0.06250
 BRILLOUIN|   117           0.00391       -0.31250        0.31250        0.06250
 BRILLOUIN|   118           0.00391       -0.31250        0.31250        0.18750
 BRILLOUIN|   119           0.00391       -0.31250        0.31250        0.31250
 BRILLOUIN|   120           0.00391       -0.31250        0.31250        0.43750
 BRILLOUIN|   121           0.00391       -0.31250        0.43750       -0.43750
 BRILLOUIN|   122           0.00391       -0.31250        0.43750       -0.31250
 BRILLOUIN|   123           0.00391       -0.31250        0.43750       -0.18750
 BRILLOUIN|   124           0.00391       -0.31250        0.43750       -0.06250
 BRILLOUIN|   125           0.00391       -0.31250        0.43750        0.06250
 BRILLOUIN|   126           0.00391       -0.31250        0.43750        0.18750
 BRILLOUIN|   127           0.00391       -0.31250        0.43750        0.31250
 BRILLOUIN|   128           0.00391       -0.31250        0.43750        0.43750
 BRILLOUIN|   129           0.00391       -0.18750       -0.43750       -0.43750
 BRILLOUIN|   130           0.00391       -0.18750       -0.43750       -0.31250
 BRILLOUIN|   131           0.00391       -0.18750       -0.43750       -0.18750
 BRILLOUIN|   132           0.00391       -0.18750       -0.43750       -0.06250
 BRILLOUIN|   133           0.00391       -0.18750       -0.43750        0.06250
 BRILLOUIN|   134           0.00391       -0.18750       -0.43750        0.18750
 BRILLOUIN|   135           0.00391       -0.18750       -0.43750        0.31250
 BRILLOUIN|   136           0.00391       -0.18750       -0.43750        0.43750
 BRILLOUIN|   137           0.00391       -0.18750       -0.31250       -0.43750
 BRILLOUIN|   138           0.00391       -0.18750       -0.31250       -0.31250
 BRILLOUIN|   139           0.00391       -0.18750       -0.31250       -0.18750
 BRILLOUIN|   140           0.00391       -0.18750       -0.31250       -0.06250
 BRILLOUIN|   141           0.00391       -0.18750       -0.31250        0.06250
 BRILLOUIN|   142           0.00391       -0.18750       -0.31250        0.18750
 BRILLOUIN|   143           0.00391       -0.18750       -0.31250        0.31250
 BRILLOUIN|   144           0.00391       -0.18750       -0.31250        0.43750
 BRILLOUIN|   145           0.00391       -0.18750       -0.18750       -0.43750
 BRILLOUIN|   146           0.00391       -0.18750       -0.18750       -0.31250
 BRILLOUIN|   147           0.00391       -0.18750       -0.18750       -0.18750
 BRILLOUIN|   148           0.00391       -0.18750       -0.18750       -0.06250
 BRILLOUIN|   149           0.00391       -0.18750       -0.18750        0.06250
 BRILLOUIN|   150           0.00391       -0.18750       -0.18750        0.18750
 BRILLOUIN|   151           0.00391       -0.18750       -0.18750        0.31250
 BRILLOUIN|   152           0.00391       -0.18750       -0.18750        0.43750
 BRILLOUIN|   153           0.00391       -0.18750       -0.06250       -0.43750
 BRILLOUIN|   154           0.00391       -0.18750       -0.06250       -0.31250
 BRILLOUIN|   155           0.00391       -0.18750       -0.06250       -0.18750
 BRILLOUIN|   156           0.00391       -0.18750       -0.06250       -0.06250
 BRILLOUIN|   157           0.00391       -0.18750       -0.06250        0.06250
 BRILLOUIN|   158           0.00391       -0.18750       -0.06250        0.18750
 BRILLOUIN|   159           0.00391       -0.18750       -0.06250        0.31250
 BRILLOUIN|   160           0.00391       -0.18750       -0.06250        0.43750
 BRILLOUIN|   161           0.00391       -0.18750        0.06250       -0.43750
 BRILLOUIN|   162           0.00391       -0.18750        0.06250       -0.31250
 BRILLOUIN|   163           0.00391       -0.18750        0.06250       -0.18750
 BRILLOUIN|   164           0.00391       -0.18750        0.06250       -0.06250
 BRILLOUIN|   165           0.00391       -0.18750        0.06250        0.06250
 BRILLOUIN|   166           0.00391       -0.18750        0.06250        0.18750
 BRILLOUIN|   167           0.00391       -0.18750        0.06250        0.31250
 BRILLOUIN|   168           0.00391       -0.18750        0.06250        0.43750
 BRILLOUIN|   169           0.00391       -0.18750        0.18750       -0.43750
 BRILLOUIN|   170           0.00391       -0.18750        0.18750       -0.31250
 BRILLOUIN|   171           0.00391       -0.18750        0.18750       -0.18750
 BRILLOUIN|   172           0.00391       -0.18750        0.18750       -0.06250
 BRILLOUIN|   173           0.00391       -0.18750        0.18750        0.06250
 BRILLOUIN|   174           0.00391       -0.18750        0.18750        0.18750
 BRILLOUIN|   175           0.00391       -0.18750        0.18750        0.31250
 BRILLOUIN|   176           0.00391       -0.18750        0.18750        0.43750
 BRILLOUIN|   177           0.00391       -0.18750        0.31250       -0.43750
 BRILLOUIN|   178           0.00391       -0.18750        0.31250       -0.31250
 BRILLOUIN|   179           0.00391       -0.18750        0.31250       -0.18750
 BRILLOUIN|   180           0.00391       -0.18750        0.31250       -0.06250
 BRILLOUIN|   181           0.00391       -0.18750        0.31250        0.06250
 BRILLOUIN|   182           0.00391       -0.18750        0.31250        0.18750
 BRILLOUIN|   183           0.00391       -0.18750        0.31250        0.31250
 BRILLOUIN|   184           0.00391       -0.18750        0.31250        0.43750
 BRILLOUIN|   185           0.00391       -0.18750        0.43750       -0.43750
 BRILLOUIN|   186           0.00391       -0.18750        0.43750       -0.31250
 BRILLOUIN|   187           0.00391       -0.18750        0.43750       -0.18750
 BRILLOUIN|   188           0.00391       -0.18750        0.43750       -0.06250
 BRILLOUIN|   189           0.00391       -0.18750        0.43750        0.06250
 BRILLOUIN|   190           0.00391       -0.18750        0.43750        0.18750
 BRILLOUIN|   191           0.00391       -0.18750        0.43750        0.31250
 BRILLOUIN|   192           0.00391       -0.18750        0.43750        0.43750
 BRILLOUIN|   193           0.00391       -0.06250       -0.43750       -0.43750
 BRILLOUIN|   194           0.00391       -0.06250       -0.43750       -0.31250
 BRILLOUIN|   195           0.00391       -0.06250       -0.43750       -0.18750
 BRILLOUIN|   196           0.00391       -0.06250       -0.43750       -0.06250
 BRILLOUIN|   197           0.00391       -0.06250       -0.43750        0.06250
 BRILLOUIN|   198           0.00391       -0.06250       -0.43750        0.18750
 BRILLOUIN|   199           0.00391       -0.06250       -0.43750        0.31250
 BRILLOUIN|   200           0.00391       -0.06250       -0.43750        0.43750
 BRILLOUIN|   201           0.00391       -0.06250       -0.31250       -0.43750
 BRILLOUIN|   202           0.00391       -0.06250       -0.31250       -0.31250
 BRILLOUIN|   203           0.00391       -0.06250       -0.31250       -0.18750
 BRILLOUIN|   204           0.00391       -0.06250       -0.31250       -0.06250
 BRILLOUIN|   205           0.00391       -0.06250       -0.31250        0.06250
 BRILLOUIN|   206           0.00391       -0.06250       -0.31250        0.18750
 BRILLOUIN|   207           0.00391       -0.06250       -0.31250        0.31250
 BRILLOUIN|   208           0.00391       -0.06250       -0.31250        0.43750
 BRILLOUIN|   209           0.00391       -0.06250       -0.18750       -0.43750
 BRILLOUIN|   210           0.00391       -0.06250       -0.18750       -0.31250
 BRILLOUIN|   211           0.00391       -0.06250       -0.18750       -0.18750
 BRILLOUIN|   212           0.00391       -0.06250       -0.18750       -0.06250
 BRILLOUIN|   213           0.00391       -0.06250       -0.18750        0.06250
 BRILLOUIN|   214           0.00391       -0.06250       -0.18750        0.18750
 BRILLOUIN|   215           0.00391       -0.06250       -0.18750        0.31250
 BRILLOUIN|   216           0.00391       -0.06250       -0.18750        0.43750
 BRILLOUIN|   217           0.00391       -0.06250       -0.06250       -0.43750
 BRILLOUIN|   218           0.00391       -0.06250       -0.06250       -0.31250
 BRILLOUIN|   219           0.00391       -0.06250       -0.06250       -0.18750
 BRILLOUIN|   220           0.00391       -0.06250       -0.06250       -0.06250
 BRILLOUIN|   221           0.00391       -0.06250       -0.06250        0.06250
 BRILLOUIN|   222           0.00391       -0.06250       -0.06250        0.18750
 BRILLOUIN|   223           0.00391       -0.06250       -0.06250        0.31250
 BRILLOUIN|   224           0.00391       -0.06250       -0.06250        0.43750
 BRILLOUIN|   225           0.00391       -0.06250        0.06250       -0.43750
 BRILLOUIN|   226           0.00391       -0.06250        0.06250       -0.31250
 BRILLOUIN|   227           0.00391       -0.06250        0.06250       -0.18750
 BRILLOUIN|   228           0.00391       -0.06250        0.06250       -0.06250
 BRILLOUIN|   229           0.00391       -0.06250        0.06250        0.06250
 BRILLOUIN|   230           0.00391       -0.06250        0.06250        0.18750
 BRILLOUIN|   231           0.00391       -0.06250        0.06250        0.31250
 BRILLOUIN|   232           0.00391       -0.06250        0.06250        0.43750
 BRILLOUIN|   233           0.00391       -0.06250        0.18750       -0.43750
 BRILLOUIN|   234           0.00391       -0.06250        0.18750       -0.31250
 BRILLOUIN|   235           0.00391       -0.06250        0.18750       -0.18750
 BRILLOUIN|   236           0.00391       -0.06250        0.18750       -0.06250
 BRILLOUIN|   237           0.00391       -0.06250        0.18750        0.06250
 BRILLOUIN|   238           0.00391       -0.06250        0.18750        0.18750
 BRILLOUIN|   239           0.00391       -0.06250        0.18750        0.31250
 BRILLOUIN|   240           0.00391       -0.06250        0.18750        0.43750
 BRILLOUIN|   241           0.00391       -0.06250        0.31250       -0.43750
 BRILLOUIN|   242           0.00391       -0.06250        0.31250       -0.31250
 BRILLOUIN|   243           0.00391       -0.06250        0.31250       -0.18750
 BRILLOUIN|   244           0.00391       -0.06250        0.31250       -0.06250
 BRILLOUIN|   245           0.00391       -0.06250        0.31250        0.06250
 BRILLOUIN|   246           0.00391       -0.06250        0.31250        0.18750
 BRILLOUIN|   247           0.00391       -0.06250        0.31250        0.31250
 BRILLOUIN|   248           0.00391       -0.06250        0.31250        0.43750
 BRILLOUIN|   249           0.00391       -0.06250        0.43750       -0.43750
 BRILLOUIN|   250           0.00391       -0.06250        0.43750       -0.31250
 BRILLOUIN|   251           0.00391       -0.06250        0.43750       -0.18750
 BRILLOUIN|   252           0.00391       -0.06250        0.43750       -0.06250
 BRILLOUIN|   253           0.00391       -0.06250        0.43750        0.06250
 BRILLOUIN|   254           0.00391       -0.06250        0.43750        0.18750
 BRILLOUIN|   255           0.00391       -0.06250        0.43750        0.31250
 BRILLOUIN|   256           0.00391       -0.06250        0.43750        0.43750
 *******************************************************************************

 *******************************************************************************
 *******************************************************************************
 **                                                                           **
 **     #####                         ##              ##                      **
 **    ##   ##            ##          ##              ##                      **
 **   ##     ##                       ##            ######                    **
 **   ##     ##  ##   ##  ##   #####  ##  ##   ####   ##    #####    #####    **
 **   ##     ##  ##   ##  ##  ##      ## ##   ##      ##   ##   ##  ##   ##   **
 **   ##  ## ##  ##   ##  ##  ##      ####     ###    ##   ######   ######    **
 **    ##  ###   ##   ##  ##  ##      ## ##      ##   ##   ##       ##        **
 **     #######   #####   ##   #####  ##  ##  ####    ##    #####   ##        **
 **           ##                                                    ##        **
 **                                                                           **
 **                                                ... make the atoms dance   **
 **                                                                           **
 **            Copyright (C) by CP2K developers group (2000-2025)             **
 **                      J. Chem. Phys. 152, 194103 (2020)                    **
 **                                                                           **
 *******************************************************************************

 DFT| Spin restricted Kohn-Sham (RKS) calculation                            RKS
 DFT| Multiplicity                                                             1
 DFT| Number of spin states                                                    1
 DFT| Charge                                                                   0
 DFT| Self-interaction correction (SIC)                                       NO
 DFT| Cutoffs: density                                              1.000000E-10
 DFT|          gradient                                             1.000000E-10
 DFT|          tau                                                  1.000000E-10
 DFT|          cutoff_smoothing_range                               0.000000E+00
 DFT| XC density smoothing                                                  NONE
 DFT| XC derivatives                                                          PW

 FUNCTIONAL| PBE:
 FUNCTIONAL| J.P.Perdew, K.Burke, M.Ernzerhof, Phys. Rev. Letter, vol. 77, n 18,
 FUNCTIONAL|  pp. 3865-3868, (1996) {spin unpolarized}                          


 QS| Method:                                                                 GPW
 QS| Density plane wave grid type                        NON-SPHERICAL FULLSPACE
 QS| Number of grid levels:                                                    4
 QS| Density cutoff [a.u.]:                                                500.0
 QS| Multi grid cutoff [a.u.]: 1) grid level                               500.0
 QS|                           2) grid level                               166.7
 QS|                           3) grid level                                55.6
 QS|                           4) grid level                                18.5
 QS| Grid level progression factor:                                          3.0
 QS| Relative density cutoff [a.u.]:                                        50.0
 QS| Interaction thresholds: eps_pgf_orb:                                1.0E-16
 QS|                         eps_filter_matrix:                          0.0E+00
 QS|                         eps_core_charge:                            1.0E-18
 QS|                         eps_rho_gspace:                             1.0E-16
 QS|                         eps_rho_rspace:                             1.0E-16
 QS|                         eps_gvg_rspace:                             1.0E-08
 QS|                         eps_ppl:                                    1.0E-02
 QS|                         eps_ppnl:                                   1.0E-10


 ATOMIC KIND INFORMATION

  1. Atomic kind: H                                     Number of atoms:       4

     Orbital Basis Set                                 aug-SZV-MOLOPT-GTH-tier-2

       Number of orbital shell sets:                                           1
       Number of orbital shells:                                               4
       Number of primitive Cartesian functions:                                7
       Number of Cartesian basis functions:                                    6
       Number of spherical basis functions:                                    6
       Norm type:                                                              2

       Normalised Cartesian orbitals:

                        Set   Shell   Orbital            Exponent    Coefficient

                          1       1    2s                0.050000       0.000000
                                                         0.082193      -0.014019
                                                         0.239116      -0.107525
                                                         0.450000       0.000000
                                                         0.791502      -0.258419
                                                         2.680223      -0.177618
                                                        10.068468      -0.133023

                          1       2    3s                0.050000       0.064974
                                                         0.082193       0.029198
                                                         0.239116      -0.007574
                                                         0.450000      -0.090795
                                                         0.791502      -0.025739
                                                         2.680223       0.000002
                                                        10.068468       0.000000

                          1       3    4s                0.050000      -0.067626
                                                         0.082193       0.244167
                                                         0.239116      -0.094768
                                                         0.450000      -0.043967
                                                         0.791502      -0.043572
                                                         2.680223      -0.153771
                                                        10.068468       0.000000

                          1       4    3px               0.050000       0.038628
                                                         0.082193      -0.015554
                                                         0.239116       0.034455
                                                         0.450000       0.013474
                                                         0.791502      -0.005076
                                                         2.680223       0.028739
                                                        10.068468       0.000000
                          1       4    3py               0.050000       0.038628
                                                         0.082193      -0.015554
                                                         0.239116       0.034455
                                                         0.450000       0.013474
                                                         0.791502      -0.005076
                                                         2.680223       0.028739
                                                        10.068468       0.000000
                          1       4    3pz               0.050000       0.038628
                                                         0.082193      -0.015554
                                                         0.239116       0.034455
                                                         0.450000       0.013474
                                                         0.791502      -0.005076
                                                         2.680223       0.028739
                                                        10.068468       0.000000

       Atomic covalent radius [Angstrom]:                                  0.320

       Atomic van der Waals radius [Angstrom]:                             1.090

     GTH Potential information for                                       GTH-PBE

       Description:                       Goedecker-Teter-Hutter pseudopotential
                                           Goedecker et al., PRB 54, 1703 (1996)
                                          Hartwigsen et al., PRB 58, 3641 (1998)
                                                      Krack, TCA 114, 145 (2005)

       Gaussian exponent of the core charge distribution:              12.500000
       Electronic configuration (s p d ...):                                   1

       Parameters of the local part of the GTH pseudopotential:

                          rloc        C1          C2          C3          C4
                        0.200000   -4.178900    0.724463


 MOLECULE KIND INFORMATION


 All atoms are their own molecule, skipping detailed information


 TOTAL NUMBERS AND MAXIMUM NUMBERS

  Total number of            - Atomic kinds:                                   1
                             - Atoms:                                          4
                             - Shell sets:                                     4
                             - Shells:                                        16
                             - Primitive Cartesian functions:                 28
                             - Cartesian basis functions:                     24
                             - Spherical basis functions:                     24

  Maximum angular momentum of- Orbital basis functions:                        1
                             - Local part of the GTH pseudopotential:          2


 MODULE QUICKSTEP: ATOMIC COORDINATES IN ANGSTROM

   Atom Kind Element         X             Y             Z       Z(eff)     Mass
      1    1 H     1     -0.000020      2.313795      0.875437   1.0000   1.0079
      2    1 H     1      2.003815      1.156880      4.127633   1.0000   1.0079
      3    1 H     1      2.003815      1.156880      3.376972   1.0000   1.0079
      4    1 H     1     -0.000020      2.313795      1.626098   1.0000   1.0079



 SCF PARAMETERS         Density guess:                                    ATOMIC
                        --------------------------------------------------------
                        max_scf:                                             500
                        max_scf_history:                                       0
                        max_diis:                                              4
                        --------------------------------------------------------
                        eps_scf:                                        1.00E-09
                        eps_scf_history:                                0.00E+00
                        eps_diis:                                       1.00E-01
                        eps_eigval:                                     1.00E-05
                        --------------------------------------------------------
                        level_shift [a.u.]:                             0.000000
                        added MOs                                        22    0
                        --------------------------------------------------------
                        Mixing method:                            BROYDEN_MIXING
                                                charge density mixing in g-space
                        --------------------------------------------------------
                        No outer SCF

 PW_GRID| Information for grid number                                          1
 PW_GRID| Grid distributed over                                     8 processors
 PW_GRID| Real space group dimensions                                     8    1
 PW_GRID| the grid is blocked:                                                NO
 PW_GRID| Cutoff [a.u.]                                                    500.0
 PW_GRID| spherical cutoff:                                                   NO
 PW_GRID|   Bounds   1            -40      39                Points:          80
 PW_GRID|   Bounds   2            -40      39                Points:          80
 PW_GRID|   Bounds   3            -48      47                Points:          96
 PW_GRID| Volume element (a.u.^3)  0.7643E-03     Volume (a.u.^3)       469.6025
 PW_GRID| Grid span                                                    FULLSPACE
 PW_GRID|   Distribution                         Average         Max         Min
 PW_GRID|   G-Vectors                            76800.0       76800       76800
 PW_GRID|   G-Rays                                 960.0         960         960
 PW_GRID|   Real Space Points                    76800.0       76800       76800

 PW_GRID| Information for grid number                                          2
 PW_GRID| Number of the reference grid                                         1
 PW_GRID| Grid distributed over                                     8 processors
 PW_GRID| Real space group dimensions                                     8    1
 PW_GRID| the grid is blocked:                                                NO
 PW_GRID| Cutoff [a.u.]                                                    166.7
 PW_GRID| spherical cutoff:                                                   NO
 PW_GRID|   Bounds   1            -22      22                Points:          45
 PW_GRID|   Bounds   2            -22      22                Points:          45
 PW_GRID|   Bounds   3            -30      29                Points:          60
 PW_GRID| Volume element (a.u.^3)  0.3865E-02     Volume (a.u.^3)       469.6025
 PW_GRID| Grid span                                                    FULLSPACE
 PW_GRID|   Distribution                         Average         Max         Min
 PW_GRID|   G-Vectors                            15187.5       15300       15075
 PW_GRID|   G-Rays                                 337.5         340         335
 PW_GRID|   Real Space Points                    15187.5       16200       13500

 PW_GRID| Information for grid number                                          3
 PW_GRID| Number of the reference grid                                         1
 PW_GRID| Grid distributed over                                     8 processors
 PW_GRID| Real space group dimensions                                     8    1
 PW_GRID| the grid is blocked:                                                NO
 PW_GRID| Cutoff [a.u.]                                                     55.6
 PW_GRID| spherical cutoff:                                                   NO
 PW_GRID|   Bounds   1            -12      12                Points:          25
 PW_GRID|   Bounds   2            -12      12                Points:          25
 PW_GRID|   Bounds   3            -16      15                Points:          32
 PW_GRID| Volume element (a.u.^3)  0.2348E-01     Volume (a.u.^3)       469.6025
 PW_GRID| Grid span                                                    FULLSPACE
 PW_GRID|   Distribution                         Average         Max         Min
 PW_GRID|   G-Vectors                             2500.0        2525        2475
 PW_GRID|   G-Rays                                 100.0         101          99
 PW_GRID|   Real Space Points                     2500.0        3200        2400

 PW_GRID| Information for grid number                                          4
 PW_GRID| Number of the reference grid                                         1
 PW_GRID| Grid distributed over                                     8 processors
 PW_GRID| Real space group dimensions                                     8    1
 PW_GRID| the grid is blocked:                                                NO
 PW_GRID| Cutoff [a.u.]                                                     18.5
 PW_GRID| spherical cutoff:                                                   NO
 PW_GRID|   Bounds   1             -7       7                Points:          15
 PW_GRID|   Bounds   2             -7       7                Points:          15
 PW_GRID|   Bounds   3            -10       9                Points:          20
 PW_GRID| Volume element (a.u.^3)  0.1044         Volume (a.u.^3)       469.6025
 PW_GRID| Grid span                                                    FULLSPACE
 PW_GRID|   Distribution                         Average         Max         Min
 PW_GRID|   G-Vectors                              562.5         585         555
 PW_GRID|   G-Rays                                  37.5          39          37
 PW_GRID|   Real Space Points                      562.5         600         300

 POISSON| Solver                                                        PERIODIC
 POISSON| Periodicity                                                        XYZ

 RS_GRID| Information for grid number                                          1
 RS_GRID|   Bounds   1            -40      39                Points:          80
 RS_GRID|   Bounds   2            -40      39                Points:          80
 RS_GRID|   Bounds   3            -48      47                Points:          96
 RS_GRID| Real space fully replicated
 RS_GRID| Group size                                                           1

 RS_GRID| Information for grid number                                          2
 RS_GRID|   Bounds   1            -22      22                Points:          45
 RS_GRID|   Bounds   2            -22      22                Points:          45
 RS_GRID|   Bounds   3            -30      29                Points:          60
 RS_GRID| Real space fully replicated
 RS_GRID| Group size                                                           1

 RS_GRID| Information for grid number                                          3
 RS_GRID|   Bounds   1            -12      12                Points:          25
 RS_GRID|   Bounds   2            -12      12                Points:          25
 RS_GRID|   Bounds   3            -16      15                Points:          32
 RS_GRID| Real space fully replicated
 RS_GRID| Group size                                                           1

 RS_GRID| Information for grid number                                          4
 RS_GRID|   Bounds   1             -7       7                Points:          15
 RS_GRID|   Bounds   2             -7       7                Points:          15
 RS_GRID|   Bounds   3            -10       9                Points:          20
 RS_GRID| Real space fully replicated
 RS_GRID| Group size                                                           1

 Number of electrons:                                                          4
 Number of occupied orbitals:                                                  2
 Number of molecular orbitals:                                                24

 Number of orbital functions:                                                 24
 Number of independent orbital functions:                                     24

 Extrapolation method: initial_guess

 Atomic guess: The first density matrix is obtained in terms of atomic orbitals
               and electronic configurations assigned to each atomic kind

 Guess for atomic kind: H

 Electronic structure
    Total number of core electrons                                          0.00
    Total number of valence electrons                                       1.00
    Total number of electrons                                               1.00
    Multiplicity                                                   not specified
    S      1.00


 *******************************************************************************
                  Iteration          Convergence                     Energy [au]
 *******************************************************************************
                          1        0.309524E-02                  -0.417828613492
                          2        0.397171E-03                  -0.417845979898
                          3        0.350877E-04                  -0.417846294368
                          4        0.929317E-09                  -0.417846297422

 Energy components [Hartree]           Total Energy ::           -0.417846297422
                                        Band Energy ::           -0.196148543103
                                     Kinetic Energy ::            0.486531132430
                                   Potential Energy ::           -0.904377429852
                                      Virial (-V/T) ::            1.858827461532
                                        Core Energy ::           -0.470733162945
                                          XC Energy ::           -0.242450390891
                                     Coulomb Energy ::            0.295337256414
                       Total Pseudopotential Energy ::           -0.978038883002
                       Local Pseudopotential Energy ::           -0.978038883002
                    Nonlocal Pseudopotential Energy ::            0.000000000000
                                        Confinement ::            0.207745876267

 Orbital energies  State     L     Occupation   Energy[a.u.]          Energy[eV]

                       1     0          1.000      -0.196149           -5.337473


 Total Electron Density at R=0:                                         0.282919
 Re-scaling the density matrix to get the right number of electrons
                  # Electrons              Trace(P)               Scaling factor
                            4                 4.000                        1.000


 SCF WAVEFUNCTION OPTIMIZATION

  Step     Update method      Time    Convergence         Total energy    Change
  ------------------------------------------------------------------------------
     1 NoMix/Diag. 0.50E-01    2.7     0.55219622        -1.9192733432 -1.92E+00
     2 Broy./Diag. 0.50E-01    2.9     0.00177908        -1.4996020467  4.20E-01
     3 Broy./Diag. 0.50E-01    2.9     0.05899224        -2.1709270459 -6.71E-01
     4 Broy./Diag. 0.50E-01    2.9     0.00405458        -2.3010009448 -1.30E-01
     5 Broy./Diag. 0.50E-01    2.9     0.01928778        -2.3272357126 -2.62E-02
     6 Broy./Diag. 0.50E-01    2.9     0.00425637        -2.3190986501  8.14E-03
     7 Broy./Diag. 0.50E-01    2.9     0.00061677        -2.3144981026  4.60E-03
     8 Broy./Diag. 0.50E-01    2.9     0.00407496        -2.3262995854 -1.18E-02
     9 Broy./Diag. 0.50E-01    2.9     0.00012753        -2.3283611350 -2.06E-03
    10 Broy./Diag. 0.50E-01    2.9     0.00104450        -2.3274242415  9.37E-04
    11 Broy./Diag. 0.50E-01    2.9     0.00015862        -2.3285305410 -1.11E-03
    12 Broy./Diag. 0.50E-01    2.9     0.00023445        -2.3289982849 -4.68E-04
    13 Broy./Diag. 0.50E-01    2.9     0.00022928        -2.3293743084 -3.76E-04
    14 Broy./Diag. 0.50E-01    2.9     0.00001693        -2.3295346669 -1.60E-04
    15 Broy./Diag. 0.50E-01    2.9     0.00005176        -2.3295819588 -4.73E-05
    16 Broy./Diag. 0.50E-01    2.9     0.00000289        -2.3295984563 -1.65E-05
    17 Broy./Diag. 0.50E-01    2.9     0.00000830        -2.3296120865 -1.36E-05
    18 Broy./Diag. 0.50E-01    2.9     0.00001354        -2.3296243370 -1.23E-05
    19 Broy./Diag. 0.50E-01    2.9     0.00000076        -2.3296068007  1.75E-05
    20 Broy./Diag. 0.50E-01    2.9     0.00000572        -2.3296002988  6.50E-06
    21 Broy./Diag. 0.50E-01    2.9     0.00000179        -2.3295955982  4.70E-06
    22 Broy./Diag. 0.50E-01    2.9     0.00000113        -2.3295921872  3.41E-06
    23 Broy./Diag. 0.50E-01    2.9     0.00000493        -2.3295934781 -1.29E-06
    24 Broy./Diag. 0.50E-01    2.9     0.00000224        -2.3295949041 -1.43E-06
    25 Broy./Diag. 0.50E-01    2.9     0.00000034        -2.3295940488  8.55E-07
    26 Broy./Diag. 0.50E-01    2.9     7.6071E-09        -2.3295936705  3.78E-07
    27 Broy./Diag. 0.50E-01    2.9     0.00000011        -2.3295930742  5.96E-07
    28 Broy./Diag. 0.50E-01    2.9     0.00000001        -2.3295932008 -1.27E-07
    29 Broy./Diag. 0.50E-01    2.9     0.00000002        -2.3295933712 -1.70E-07
    30 Broy./Diag. 0.50E-01    2.9     0.00000004        -2.3295934622 -9.10E-08
    31 Broy./Diag. 0.50E-01    2.9     0.00000001        -2.3295934534  8.85E-09
    32 Broy./Diag. 0.50E-01    2.9     0.00000002        -2.3295935419 -8.85E-08
    33 Broy./Diag. 0.50E-01    2.9     1.8367E-09        -2.3295935778 -3.59E-08
    34 Broy./Diag. 0.50E-01    2.9     2.5750E-09        -2.3295935688  9.02E-09
    35 Broy./Diag. 0.50E-01    2.9     6.1129E-09        -2.3295935753 -6.53E-09
    36 Broy./Diag. 0.50E-01    2.9     1.7546E-09        -2.3295935836 -8.36E-09
    37 Broy./Diag. 0.50E-01    2.9     1.9843E-09        -2.3295935898 -6.14E-09
    38 Broy./Diag. 0.50E-01    2.9     1.7197E-09        -2.3295935851  4.70E-09
    39 Broy./Diag. 0.50E-01    2.9     1.2363E-09        -2.3295935815  3.56E-09
    40 Broy./Diag. 0.50E-01    2.9     2.8945E-10        -2.3295935831 -1.62E-09

  *** SCF run converged in    40 steps ***


  Electronic density on regular grids:         -4.0000000000       -0.0000000000
  Core density on regular grids:                4.0000000000       -0.0000000000
  Total charge density on r-space grids:       -0.0000000000
  Total charge density g-space grids:          -0.0000000000

  Overlap energy of the core charge distribution:               0.00000074652500
  Self energy of the core charge distribution:                 -5.64189583547756
  Core Hamiltonian energy:                                      1.95109112365750
  Hartree energy:                                               2.73771573615391
  Exchange-correlation energy:                                 -1.37650535399693

  Total energy:                                                -2.32959358313808

 !-----------------------------------------------------------------------------!
                     Mulliken Population Analysis

 #  Atom  Element  Kind  Atomic population                           Net charge
       1     H        1          1.000000                             -0.000000
       2     H        1          1.000000                              0.000000
       3     H        1          1.000000                             -0.000000
       4     H        1          1.000000                              0.000000
 # Total charge                              4.000000                  0.000000

 !-----------------------------------------------------------------------------!

 !-----------------------------------------------------------------------------!
                           Hirshfeld Charges

  #Atom  Element  Kind  Ref Charge     Population                    Net charge
      1       H      1       1.000          0.930                         0.070
      2       H      1       1.000          0.930                         0.070
      3       H      1       1.000          0.930                         0.070
      4       H      1       1.000          0.930                         0.070

  Total Charge                                                            0.279
 !-----------------------------------------------------------------------------!

 KPOINTS| Band Structure Calculation
 KPOINTS| Number of k-point sets                                               1
 KPOINTS| Number of added MOs/bands                                           -1
 KPOINTS| Number of k-points in set    1                                     148
 KPOINTS| In units of b-vector [2pi/Bohr]
 KPOINTS| Special point     1 not specifi     0.000000     0.000000     0.000000
 KPOINTS| Special point     2 not specifi     0.500000     0.000000     0.000000
 KPOINTS| Special point     3 not specifi     0.333333     0.333333     0.000000
 KPOINTS| Special point     4 not specifi     0.000000     0.000000     0.000000
 KPOINTS| Time for k-point line                                            1.108

 ENERGY| Total FORCE_EVAL ( QS ) energy [hartree]             -2.329593583138081

 -------------------------------------------------------------------------------
 -                                                                             -
 -                                DBCSR STATISTICS                             -
 -                                                                             -
 -------------------------------------------------------------------------------
 COUNTER                                    TOTAL       BLAS       SMM       ACC
 flops inhomo. stacks                           0       0.0%      0.0%      0.0%
 flops total                         0.000000E+00       0.0%      0.0%      0.0%
 flops max/rank                      0.000000E+00       0.0%      0.0%      0.0%
 matmuls inhomo. stacks                         0       0.0%      0.0%      0.0%
 matmuls total                                  0       0.0%      0.0%      0.0%
 number of processed stacks                     0       0.0%      0.0%      0.0%
 average stack size                                     0.0       0.0       0.0
 marketing flops                     0.000000E+00
 -------------------------------------------------------------------------------
 -                                                                             -
 -                      DBCSR MESSAGE PASSING PERFORMANCE                      -
 -                                                                             -
 -------------------------------------------------------------------------------
 ROUTINE             CALLS      AVE VOLUME [Bytes]
 MP_Bcast                1                     12.
 MP_Allreduce           19                     21.
 MP_Alltoall        893952                    437.
 -------------------------------------------------------------------------------

 -------------------------------------------------------------------------------
 -                                                                             -
 -                                DBM STATISTICS                               -
 -                                                                             -
 -------------------------------------------------------------------------------
    M  x    N  x    K                                          COUNT     PERCENT
 -------------------------------------------------------------------------------

 -------------------------------------------------------------------------------
 -                                                                             -
 -                                GRID STATISTICS                              -
 -                                                                             -
 -------------------------------------------------------------------------------
 LP    KERNEL             BACKEND                              COUNT     PERCENT
 2     collocate general  CPU                                2370538      50.62%
 2     integrate general  CPU                                2312720      49.38%
 0     collocate general  CPU                                      8       0.00%
 0     integrate general  CPU                                      4       0.00%
 -------------------------------------------------------------------------------

 MEMORY| Estimated peak process memory [MiB]                                 338

 -------------------------------------------------------------------------------
 ----                             MULTIGRID INFO                            ----
 -------------------------------------------------------------------------------
 count for grid        1:          15926          cutoff [a.u.]          500.00
 count for grid        2:          15486          cutoff [a.u.]          166.67
 count for grid        3:          35712          cutoff [a.u.]           55.56
 count for grid        4:          61122          cutoff [a.u.]           18.52
 total gridlevel count  :         128246

 -------------------------------------------------------------------------------
 -                                                                             -
 -                         MESSAGE PASSING PERFORMANCE                         -
 -                                                                             -
 -------------------------------------------------------------------------------

 ROUTINE             CALLS      AVE VOLUME [Bytes]
 MP_Group                6
 MP_Bcast           372386                    721.
 MP_Allreduce       222261                     18.
 MP_Sync                 4
 MP_Alltoall           725                3402133.
 MP_SendRecv          1162                 198670.
 MP_ISendRecv         1127                 196214.
 MP_Wait            257083
 MP_comm_split           4
 MP_ISend           272204                    143.
 MP_IRecv           434816                     92.
 -------------------------------------------------------------------------------


 -------------------------------------------------------------------------------
 -                                                                             -
 -                           R E F E R E N C E S                               -
 -                                                                             -
 -------------------------------------------------------------------------------
 
 CP2K version 2025.1 (Development Version), the CP2K developers group (2025).
 CP2K is freely available from https://www.cp2k.org/ .
 
 T. D. Kuehne, M. Iannuzzi, M. Del Ben, V. V. Rybkin, P. Seewald, F. Stein, T. 
 Laino, R. Z. Khaliullin, O. Schuett, F. Schiffmann, D. Golze, J. Wilhelm, S. 
 Chulkov, M. H. Bani-Hashemian, V. Weber, U. Borstnik, M. Taillefumier, A. S. 
 Jakobovits, A. Lazzaro, H. Pabst, T. Mueller, R. Schade, M. Guidon, S. 
 Andermatt, N. Holmberg, G. K. Schenter, A. Hehn, A. Bussy, F. Belleflamme, G. 
 Tabacchi, A. Gloess, M. Lass, I. Bethune, C. J. Mundy, C. Plessl, M. Watkins, 
 J. VandeVondele, M. Krack, J. Hutter.
 J. Chem. Phys. 152, 194103 (2020).
 CP2K: An electronic structure and molecular dynamics software package - 
 Quickstep: Efficient and accurate electronic structure calculations.
 https://doi.org/10.1063/5.0007045

 O. Schuett, P. Messmer, J. Hutter, J. VandeVondele.
 Electronic Structure Calculations on Graphics Processing Units, 173-190 (2016).
 GPU-Accelerated Sparse Matrix-Matrix Multiplication for Linear Scaling Density 
 Functional Theory.
 https://doi.org/10.1002/9781118670712.ch8

 J. Hutter, M. Iannuzzi, F. Schiffmann, J. VandeVondele.
 WIREs Comput Mol Sci. 4, 15-25 (2014).
 CP2K: atomistic simulations of condensed matter systems.
 https://doi.org/10.1002/wcms.1159

 U. Borstnik, J. VandeVondele, V. Weber, J. Hutter.
 Parallel Comput. 40, 47-58 (2014).
 Sparse matrix multiplication: The distributed block-compressed sparse row 
 library.
 https://doi.org/10.1016/j.parco.2014.03.012

 J. VandeVondele, J. Hutter.
 J. Chem. Phys. 127, 114105 (2007).
 Gaussian basis sets for accurate calculations on molecular systems in gas and 
 condensed phases.
 https://doi.org/10.1063/1.2770708

 J. VandeVondele, M. Krack, F. Mohamed, M. Parrinello, T. Chassaing, J. Hutter.
 Comput. Phys. Commun. 167, 103-128 (2005).
 QUICKSTEP: Fast and accurate density functional calculations using a mixed 
 Gaussian and plane waves approach.
 https://doi.org/10.1016/j.cpc.2004.12.014

 M. Krack.
 Theor. Chem. Acc. 114, 145-152 (2005).
 Pseudopotentials for H to Kr optimized for gradient-corrected 
 exchange-correlation functionals.
 https://doi.org/10.1007/s00214-005-0655-y

 M. Frigo, S. G. Johnson.
 Proc. IEEE 93, 216-231 (2005).
 The design and implementation of FFTW3.
 https://doi.org/10.1109/JPROC.2004.840301

 C. Hartwigsen, S. Goedecker, J. Hutter.
 Phys. Rev. B 58, 3641-3662 (1998).
 Relativistic separable dual-space Gaussian pseudopotentials from H to Rn.
 https://doi.org/10.1103/PhysRevB.58.3641

 G. Lippert, J. Hutter, M. Parrinello.
 Mol. Phys. 92, 477-487 (1997).
 A hybrid Gaussian and plane wave density functional scheme.
 https://doi.org/10.1080/002689797170220

 S. Goedecker, M. Teter, J. Hutter.
 Phys. Rev. B 54, 1703-1710 (1996).
 Separable dual-space Gaussian pseudopotentials.
 https://doi.org/10.1103/PhysRevB.54.1703

 J. P. Perdew, K. Burke, M. Ernzerhof.
 Phys. Rev. Lett. 77, 3865-3868 (1996).
 Generalized gradient approximation made simple.
 https://doi.org/10.1103/PhysRevLett.77.3865


 -------------------------------------------------------------------------------
 -                                                                             -
 -                                T I M I N G                                  -
 -                                                                             -
 -------------------------------------------------------------------------------
 SUBROUTINE                       CALLS  ASD         SELF TIME        TOTAL TIME
                                MAXIMUM       AVERAGE  MAXIMUM  AVERAGE  MAXIMUM
 CP2K                                 1  1.0    0.016    0.019  122.532  122.532
 qs_energies                          1  2.0    0.020    0.119  122.254  122.309
 scf_env_do_scf                       1  3.0    0.000    0.000  119.044  119.045
 scf_env_do_scf_inner_loop           40  4.0    0.066    0.067  119.044  119.044
 do_general_diag_kp                  41  5.9    0.246    0.264   95.858   97.048
 qs_scf_new_mos_kp                   40  5.0    0.000    0.000   94.878   96.068
 rskp_transform                   20776  7.0   23.699   38.735   23.699   38.735
 mp_alltoall_i22                 152504  8.8   27.938   37.331   27.938   37.331
 dbcsr_desymmetrize_deep          86788  7.4    1.336    1.411   27.142   33.916
 dbcsr_complete_redistribute      65716  8.2    2.089    2.236   25.604   28.277
 kpoint_density_transform            40  7.0    0.131    0.137   25.714   25.742
 copy_dbcsr_to_fm                 45236  6.9    0.465    0.490   20.940   21.261
 transform_dmat                   10240  8.0   11.234   18.210   11.234   18.210
 copy_fm_to_dbcsr                 20480  8.0    0.128    0.134   12.663   15.109
 qs_ks_update_qs_env                 40  5.0    0.000    0.000    9.825   13.366
 rebuild_ks_matrix                   40  6.0    0.000    0.000    7.752   11.293
 qs_ks_build_kohn_sham_matrix        40  7.0    0.122    0.124    7.752   11.293
 qs_rho_update_rho_low               41  5.0    0.000    0.000    9.896    9.971
 calculate_rho_elec                  41  6.0    0.027    0.031    9.895    9.971
 sum_up_and_integrate                40  8.0    0.000    0.000    6.314    9.841
 integrate_v_rspace                  40  9.0    0.070    0.111    6.313    9.840
 grid_integrate_task_list            40 10.0    5.905    9.408    5.905    9.408
 grid_collocate_task_list            41  7.0    5.901    9.334    5.901    9.334
 dbcsr_finalize                  182460  8.3    0.774    0.824    5.284    5.612
 transfer_rs2pw                     166  8.0    0.002    0.002    4.035    5.314
 transfer_rs2pw_500                  43  8.9    0.100    0.104    3.959    5.234
 mp_sendrecv_dv                    1162 10.0    3.912    5.190    3.912    5.190
 density_rs2pw                       41  7.0    0.002    0.002    3.964    5.148
 cp_fm_start_copy_general         62032  7.3    0.678    1.073    4.513    4.600
 mp_alltoall_d11v                457512  9.3    3.992    4.177    3.992    4.177
 mp_cart_sub                      90474  8.9    3.774    3.784    3.774    3.784
 dbcsr_merge_all                  65716 10.2    1.931    2.170    2.929    3.205
 mp_alltoall_i11v                283936  9.0    2.667    2.722    2.667    2.722
 hybrid_alltoall_any              86788  8.4    0.347    0.374    2.583    2.714
 write_kpoints_restart               40  5.0    0.014    0.018    2.440    2.440
 mp_cart_create                   45243  8.9    2.159    2.209    2.159    2.209
 dbcsr_dot                       147361  8.0    0.622    0.651    2.120    2.177
 evaluate_core_matrix_traces         40  6.0    0.000    0.000    2.073    2.073
 calculate_ptrace_kp                 80  7.0    0.111    0.123    2.072    2.073
 mp_allgather_i                  124064  8.3    1.708    1.912    1.708    1.912
 dbcsr_copy                      169682  6.8    0.918    0.969    1.555    1.698
 mp_bcast_iv                     248151  8.3    1.450    1.648    1.450    1.648
 dbcsr_create_new                378758  7.9    1.300    1.352    1.569    1.637
 cp_dbcsr_alloc_block_from_nbl    13136  5.0    0.974    1.530    1.018    1.576
 dbcsr_work_create               152504  8.8    0.935    0.965    1.367    1.415
 dbcsr_iterator_start            638253  8.8    1.099    1.122    1.317    1.389
 mp_sum_d                        148099  9.0    1.175    1.301    1.175    1.301
 qs_energies_init_hamiltonians        1  3.0    0.000    0.000    1.123    1.123
 self_consistency_check              40  5.0    0.105    0.111    1.089    1.099
 dbcsr_work_destroy_all          152504  9.8    0.712    0.717    1.071    1.075
 copy_fm_to_dbcsr_bc              20480  9.0    0.277    0.291    0.924    0.973
 copy_dbcsr_to_fm_bc              45236  7.9    0.419    0.430    0.947    0.962
 fft_wrap_pw1pw2                    725 10.0    0.006    0.007    0.905    0.959
 cp_sm_mix                        73680  6.0    0.213    0.230    0.886    0.899
 fft_wrap_pw1pw2_500                482 11.3    0.061    0.062    0.830    0.883
 dbcsr_iterator_stop             638253  8.8    0.729    0.741    0.862    0.873
 build_core_hamiltonian_matrix        1  4.0    0.007    0.007    0.564    0.824
 dbcsr_data_release             2465408 10.1    0.795    0.805    0.795    0.805
 cp_fm_write_unformatted           3684  6.0    0.693    0.776    0.698    0.797
 fft3d_ps                           725 12.0    0.284    0.289    0.735    0.790
 dbcsr_data_new                 1653579  9.7    0.731    0.771    0.731    0.771
 tree_to_linear_d                 65716 11.2    0.702    0.752    0.702    0.752
 dbcsr_destroy                   231398  8.0    0.380    0.390    0.667    0.702
 qs_vxc_create                       40  8.0    0.001    0.001    0.606    0.607
 xc_vxc_pw_create                    40  9.0    0.025    0.026    0.606    0.607
 qs_env_update_s_mstruct              1  4.0    0.000    0.000    0.457    0.557
 gspace_mixing                       39  5.0    0.022    0.022    0.539    0.539
 mp_max_d                         73682  7.0    0.503    0.528    0.503    0.528
 init_scf_run                         1  3.0    0.000    0.000    0.460    0.514
 scf_env_initial_rho_setup            1  4.0    0.000    0.000    0.460    0.514
 mp_bcast_im                     124064  8.3    0.442    0.507    0.442    0.507
 dbcsr_copy_into_existing         22322  9.7    0.268    0.363    0.397    0.492
 mixing_allocate                      1  3.0    0.011    0.011    0.310    0.470
 quick_finalize                   86788  9.4    0.278    0.285    0.460    0.466
 mp_alltoall_z22v                   725 14.0    0.393    0.453    0.393    0.453
 broyden_mixing                      39  6.0    0.432    0.442    0.445    0.446
 mp_waitall_1                    257083  8.3    0.239    0.438    0.239    0.438
 potential_pw2rs                     40 10.0    0.002    0.002    0.338    0.397
 xc_pw_derive                       240 11.0    0.001    0.001    0.384    0.386
 mp_comm_free                    135751  8.9    0.332    0.378    0.332    0.378
 calculate_rho_core                   1  5.0    0.001    0.001    0.276    0.373
 cp_cfm_geeig                      1317  6.9    0.008    0.008    0.355    0.363
 dbcsr_set                       265841  7.5    0.238    0.241    0.340    0.346
 xc_rho_set_and_dset_create          40 10.0    0.017    0.018    0.325    0.328
 cp_cfm_heevd                      1317  7.9    0.001    0.001    0.279    0.284
 cp_cfm_heevd_base                 1317  8.9    0.278    0.283    0.278    0.283
 dbcsr_iterator_seek             638253  9.8    0.218    0.268    0.218    0.268
 yz_to_x                            325 12.8    0.020    0.022    0.206    0.266
 xc_pw_divergence                    40 10.0    0.000    0.000    0.251    0.253
 x_to_yz                            400 13.2    0.034    0.035    0.240    0.247
 build_overlap_matrix_low             1  5.0    0.014    0.015    0.162    0.243
 build_kinetic_matrix_low             1  5.0    0.014    0.015    0.161    0.242
 qs_env_rebuild_rho                   1  5.0    0.000    0.000    0.160    0.233
 qs_rho_rebuild                       1  6.0    0.005    0.005    0.160    0.233
 calculate_first_density_matrix       1  5.0    0.001    0.001    0.166    0.220
 calculate_atomic_block_dm            1  6.0    0.001    0.001    0.163    0.217
 transfer_pw2rs                     161 11.0    0.001    0.001    0.215    0.215
 dbcsr_sort_indices              186120 10.6    0.201    0.212    0.201    0.212
 dbcsr_make_index_exist          378758  8.9    0.177    0.187    0.177    0.187
 transfer_pw2rs_500                  41 11.9    0.082    0.084    0.159    0.163
 cp_fm_finish_copy_general        25748  7.8    0.093    0.097    0.136    0.147
 merge_index                      65716 11.2    0.129    0.140    0.129    0.140
 kpoint_density_matrices             40  7.0    0.010    0.011    0.134    0.137
 dbcsr_reserve_blocks             33616  9.1    0.095    0.102    0.126    0.133
 dbcsr_reserve_all_blocks         20480 10.0    0.035    0.039    0.122    0.132
 parallel_gemm_fm                  5120  8.0    0.005    0.005    0.122    0.124
 calculate_ecore_overlap              1  4.0    0.000    0.000    0.087    0.124
 mp_sum_dv                          335  3.5    0.049    0.122    0.049    0.122
 parallel_gemm_fm_gemm             5120  9.0    0.005    0.005    0.117    0.120
 parser_read_line                  3812  4.1    0.001    0.001    0.118    0.119
 parser_read_line_low                22  6.3    0.011    0.055    0.116    0.118
 cp_fm_gemm                        5120 10.0    0.113    0.115    0.113    0.115
 broadcast_input_information         22  7.3    0.028    0.037    0.106    0.114
 mp_irecv_iv                     248128  8.3    0.014    0.113    0.014    0.113
 restraint_control                    1  2.0    0.000    0.000    0.056    0.111
 mp_sum_i                             4  2.8    0.056    0.111    0.056    0.111
 xc_functional_eval                  40 11.0    0.000    0.000    0.106    0.109
 pbe_lda_eval                        40 12.0    0.106    0.109    0.106    0.109
 mp_sum_iv                           24  5.3    0.080    0.107    0.080    0.107
 qs_scf_ensure_work_matrices          1  3.0    0.000    0.000    0.079    0.106
 dbcsr_zero                      265841  8.5    0.102    0.105    0.102    0.105
 dbcsr_switch_data_area           86788 10.4    0.079    0.081    0.103    0.104
 mp_isend_dv                      62624  8.3    0.080    0.087    0.080    0.087
 mp_isend_iv                     139720  8.3    0.021    0.079    0.021    0.079
 cp_fm_cleanup_copy_general       44112  7.0    0.049    0.050    0.075    0.076
 topology_control                     1  2.0    0.000    0.000    0.074    0.074
 create_qs_kind_set                   1  2.0    0.000    0.000    0.070    0.070
 read_qs_kind                         1  3.0    0.020    0.024    0.070    0.070
 transfer_rs2pw_170                  41  9.0    0.016    0.017    0.056    0.067
 build_core_ppl                       1  5.0    0.047    0.063    0.047    0.063
 mp_bcast_i_src                      88  8.3    0.053    0.061    0.053    0.061
 dbcsr_distribution_new           65718  8.5    0.054    0.059    0.054    0.059
 pw_scatter_p                       400 12.2    0.057    0.058    0.057    0.058
 mp_irecv_im2                    124064  8.3    0.007    0.056    0.007    0.056
 pw_poisson_solve                    40  8.0    0.000    0.000    0.054    0.055
 dbcsr_get_data_size_used        152504  9.8    0.049    0.053    0.049    0.053
 mp_isendrecv_dv                   1127 13.0    0.021    0.052    0.021    0.052
 read_cell_cif                        2  4.5    0.002    0.005    0.051    0.051
 dbcsr_make_dbcsr_index          186120 10.6    0.047    0.050    0.047    0.050
 mp_comm_size                    148587  9.0    0.039    0.048    0.039    0.048
 fft_wrap_pw1pw2_170                 81 10.5    0.003    0.003    0.046    0.047
 coordinate_control                   1  3.0    0.000    0.001    0.046    0.046
 coordinate_control_READ_COORDI       1  4.0    0.000    0.000    0.045    0.046
 read_coordinate_cif                  1  5.0    0.002    0.002    0.045    0.046
 transfer_pw2rs_170                  40 12.0    0.015    0.016    0.040    0.044
 mp_comm_rank                    148587  9.0    0.035    0.038    0.035    0.038
 mp_irecv_dv                      62624  8.3    0.034    0.037    0.034    0.037
 mp_isend_im2                     69860  8.3    0.009    0.037    0.009    0.037
 cp_cfm_triangular_multiply        3951  7.9    0.034    0.036    0.034    0.036
 dbcsr_data_copy_aa2              65716 11.2    0.031    0.035    0.031    0.035
 qs_create_task_list                  1  5.0    0.000    0.000    0.021    0.034
 generate_qs_task_list                1  6.0    0.015    0.024    0.021    0.034
 pw_integral_ab_c1d_c1d_gs           40  9.0    0.032    0.032    0.034    0.034
 qs_init_subsys                       1  2.0    0.001    0.001    0.032    0.032
 qs_env_setup                         1  3.0    0.000    0.000    0.030    0.030
 qs_env_rebuild_pw_env                2  3.5    0.000    0.000    0.029    0.030
 pw_env_rebuild                       1  5.0    0.000    0.001    0.029    0.029
 pw_gather_p                        325 11.8    0.029    0.029    0.029    0.029
 mp_bcast_am_src                     22  8.3    0.013    0.015    0.025    0.028
 pw_grid_setup                        4  6.0    0.000    0.000    0.027    0.027
 pw_grid_setup_internal               4  7.0    0.001    0.001    0.027    0.027
 kpoint_set_mo_occupation            40  7.0    0.008    0.008    0.022    0.027
 kpoint_init_cell_index               2  3.5    0.020    0.023    0.023    0.024
 pw_copy                            600 10.5    0.022    0.023    0.022    0.023
 mp_recv_dv                       11052  7.0    0.003    0.021    0.003    0.021
 mp_sum_dm3                          40  8.0    0.014    0.019    0.014    0.019
 scf_post_calculation_gpw             1  3.0    0.000    0.000    0.018    0.018
 write_available_results              1  4.0    0.000    0.000    0.018    0.018
 write_mo_free_results                1  5.0    0.001    0.001    0.018    0.018
 cp_cfm_cholesky_decompose         1317  7.9    0.017    0.017    0.017    0.017
 mixing_init                          1  5.0    0.015    0.017    0.017    0.017
 pw_grid_sort                         4  8.0    0.011    0.011    0.016    0.016
 pw_derive                          360 11.3    0.015    0.016    0.015    0.016
 fft_wrap_pw1pw2_60                  81 10.5    0.001    0.001    0.015    0.015
 dbcsr_filter_anytype             77364  7.9    0.014    0.014    0.014    0.014
 transfer_rs2pw_60                   41  9.0    0.004    0.004    0.013    0.014
 pw_poisson_set                      41  8.9    0.001    0.001    0.013    0.013
 mp_sum_dm                           39  7.0    0.007    0.013    0.007    0.013
 cp_cfm_triangular_invert          1317  7.9    0.012    0.013    0.012    0.013
 -------------------------------------------------------------------------------

 The number of warnings for this run is : 1
 
 -------------------------------------------------------------------------------
  **** **** ******  **  PROGRAM ENDED AT                 2025-08-04 18:06:55.255
 ***** ** ***  *** **   PROGRAM RAN ON                              i04r10c03s05
 **    ****   ******    PROGRAM RAN BY                                   di38fab
 ***** **    ** ** **   PROGRAM PROCESS ID                               3271032
  **** **  *******  **  PROGRAM STOPPED IN /hppfs/scratch/04/di38fab/09_GTH/Delt
                                           a_Set/H/aug-SZV-MOLOPT-GTH-tier-2/8x8
                                           x8
