 DBCSR| CPU Multiplication driver                                           BLAS (U)
 DBCSR| Multrec recursion limit                                              512 (U)
 DBCSR| Multiplication stack size                                           1000 (D)
 DBCSR| Maximum elements for images                                    UNLIMITED (U)
 DBCSR| Multiplicative factor virtual images                                   1 (U)
 DBCSR| Use multiplication densification                                       T (D)
 DBCSR| Multiplication size stacks                                             3 (U)
 DBCSR| Use memory pool for CPU allocation                                     F (U)
 DBCSR| Number of 3D layers                                               SINGLE (U)
 DBCSR| Use MPI memory allocation                                              F (U)
 DBCSR| Use RMA algorithm                                                      F (U)
 DBCSR| Use Communication thread                                               T (U)
 DBCSR| Communication thread load                                             45 (D)
 DBCSR| MPI: My process id                                                     0
 DBCSR| MPI: Number of processes                                               8
 DBCSR| OMP: Current number of threads                                        12
 DBCSR| OMP: Max number of threads                                            12
 DBCSR| Split modifier for TAS multiplication algorithm                  1.0E+00 (U)


  **** **** ******  **  PROGRAM STARTED AT               2025-08-04 04:25:12.054
 ***** ** ***  *** **   PROGRAM STARTED ON                          i04r11c03s12
 **    ****   ******    PROGRAM STARTED BY                               di38fab
 ***** **    ** ** **   PROGRAM PROCESS ID                                184569
  **** **  *******  **  PROGRAM STARTED IN /hppfs/scratch/04/di38fab/09_GTH/Delt
                                           a_Set/Tc/TZV2P-MOLOPT-PBE-GTH/8x8x8

 CP2K| version string:                 CP2K version 2025.1 (Development Version)
 CP2K| source code revision number:                                  git:3130539
 CP2K| cp2kflags: omp libint fftw3 libxc parallel scalapack max_contr=4         
 CP2K| is freely available from                            https://www.cp2k.org/
 CP2K| Program compiled at                         Tue Jun  3 16:14:32 CEST 2025
 CP2K| Program compiled on                                               login01
 CP2K| Program compiled for                                        Supermuc-foss
 CP2K| Data directory path                  /hppfs/work/pn36zo/di38fab/cp2k/data
 CP2K| Input file name                                                    GW.inp

 GLOBAL| Force Environment number                                              1
 GLOBAL| Basis set file name            /hppfs/scratch/04/di38fab/09_GTH/BASIS_A
 GLOBAL| Potential file name            /hppfs/work/pn36zo/di38fab/cp2k/data/GTH
 GLOBAL| MM Potential file name                                     MM_POTENTIAL
 GLOBAL| Coordinate file name                                             Tc.cif
 GLOBAL| Method name                                                        CP2K
 GLOBAL| Project name                                                       WSe2
 GLOBAL| Run type                                                         ENERGY
 GLOBAL| FFT library                                                       FFTW3
 GLOBAL| Diagonalization library                                       ScaLAPACK
 GLOBAL| Cholesky decomposition library                                ScaLAPACK
 GLOBAL| DGEMM library                                                      BLAS
 GLOBAL| Orthonormality check for eigenvectors                          DISABLED
 GLOBAL| Matrix multiplication library                                 ScaLAPACK
 GLOBAL| All-to-all communication in single precision                          F
 GLOBAL| FFTs using library dependent lengths                                  F
 GLOBAL| Grid backend                                                       AUTO
 GLOBAL| Global print level                                               MEDIUM
 GLOBAL| MPI I/O enabled                                                       T
 GLOBAL| Total number of message passing processes                             8
 GLOBAL| Number of threads for this process                                   12
 GLOBAL| This output is from process                                           0
 GLOBAL| OpenMP stack size per thread (OMP_STACKSIZE)                    default
 GLOBAL| CPU model name             Intel(R) Xeon(R) Platinum 8174 CPU @ 3.10GHz

 MEMORY| system memory details [Kb]
 MEMORY|                        rank 0           min           max       average
 MEMORY| MemTotal             98436708      98436660      98436708      98436684
 MEMORY| MemFree              84622656      84581216      84622656      84601936
 MEMORY| Buffers                     0             0             0             0
 MEMORY| Cached                2378276       2361008       2378276       2369642
 MEMORY| Slab                  1297228       1293132       1297228       1295180
 MEMORY| SReclaimable           279532        279532        284352        281942
 MEMORY| MemLikelyFree        87280464      87226576      87280464      87253520


 *** Fundamental physical constants (SI units) ***

 *** Literature: B. J. Mohr and B. N. Taylor,
 ***             CODATA recommended values of the fundamental physical
 ***             constants: 2006, Web Version 5.1
 ***             http://physics.nist.gov/constants

 Speed of light in vacuum [m/s]                             2.99792458000000E+08
 Magnetic constant or permeability of vacuum [N/A**2]       1.25663706143592E-06
 Electric constant or permittivity of vacuum [F/m]          8.85418781762039E-12
 Planck constant (h) [J*s]                                  6.62606896000000E-34
 Planck constant (h-bar) [J*s]                              1.05457162825177E-34
 Elementary charge [C]                                      1.60217648700000E-19
 Electron mass [kg]                                         9.10938215000000E-31
 Electron g factor [ ]                                     -2.00231930436220E+00
 Proton mass [kg]                                           1.67262163700000E-27
 Fine-structure constant                                    7.29735253760000E-03
 Rydberg constant [1/m]                                     1.09737315685270E+07
 Avogadro constant [1/mol]                                  6.02214179000000E+23
 Boltzmann constant [J/K]                                   1.38065040000000E-23
 Atomic mass unit [kg]                                      1.66053878200000E-27
 Bohr radius [m]                                            5.29177208590000E-11

 *** Conversion factors ***

 [u] -> [a.u.]                                              1.82288848426455E+03
 [Angstrom] -> [Bohr] = [a.u.]                              1.88972613288564E+00
 [a.u.] = [Bohr] -> [Angstrom]                              5.29177208590000E-01
 [a.u.] -> [s]                                              2.41888432650478E-17
 [a.u.] -> [fs]                                             2.41888432650478E-02
 [a.u.] -> [J]                                              4.35974393937059E-18
 [a.u.] -> [N]                                              8.23872205491840E-08
 [a.u.] -> [K]                                              3.15774647902944E+05
 [a.u.] -> [kJ/mol]                                         2.62549961709828E+03
 [a.u.] -> [kcal/mol]                                       6.27509468713739E+02
 [a.u.] -> [Pa]                                             2.94210107994716E+13
 [a.u.] -> [bar]                                            2.94210107994716E+08
 [a.u.] -> [atm]                                            2.90362800883016E+08
 [a.u.] -> [eV]                                             2.72113838565563E+01
 [a.u.] -> [Hz]                                             6.57968392072181E+15
 [a.u.] -> [1/cm] (wave numbers)                            2.19474631370540E+05
 [a.u./Bohr**2] -> [1/cm]                                   5.14048714338585E+03
 

 CELL_TOP| Volume [angstrom^3]:                                        29.192145
 CELL_TOP| Vector a [angstrom     2.762     0.000     0.000   |a| =     2.761870
 CELL_TOP| Vector b [angstrom     1.381     2.392     0.000   |b| =     2.761870
 CELL_TOP| Vector c [angstrom     0.000     0.000     4.419   |c| =     4.419050
 CELL_TOP| Angle (b,c), alpha [degree]:                                90.000000
 CELL_TOP| Angle (a,c), beta  [degree]:                                90.000000
 CELL_TOP| Angle (a,b), gamma [degree]:                                60.000000
 CELL_TOP| Numerically orthorhombic:                                          NO
 CELL_TOP| Periodicity                                                       XYZ

 CELL_CIF| Volume [angstrom^3]:                                        29.192145
 CELL_CIF| Vector a [angstrom     2.762     0.000     0.000   |a| =     2.761870
 CELL_CIF| Vector b [angstrom     1.381     2.392     0.000   |b| =     2.761870
 CELL_CIF| Vector c [angstrom     0.000     0.000     4.419   |c| =     4.419050
 CELL_CIF| Angle (b,c), alpha [degree]:                                90.000000
 CELL_CIF| Angle (a,c), beta  [degree]:                                90.000000
 CELL_CIF| Angle (a,b), gamma [degree]:                                60.000000
 CELL_CIF| Numerically orthorhombic:                                          NO
 CELL_CIF| Periodicity                                                       XYZ

 GENERATE|  Preliminary Number of Bonds generated:                             0
 GENERATE|  Achieved consistency in connectivity generation.

 CELL| Volume [angstrom^3]:                                            29.192145
 CELL| Vector a [angstrom]:       2.762     0.000     0.000   |a| =     2.761870
 CELL| Vector b [angstrom]:       1.381     2.392     0.000   |b| =     2.761870
 CELL| Vector c [angstrom]:       0.000     0.000     4.419   |c| =     4.419050
 CELL| Angle (b,c), alpha [degree]:                                    90.000000
 CELL| Angle (a,c), beta  [degree]:                                    90.000000
 CELL| Angle (a,b), gamma [degree]:                                    60.000000
 CELL| Numerically orthorhombic:                                              NO
 CELL| Periodicity                                                           XYZ

 CELL_REF| Volume [angstrom^3]:                                        29.192145
 CELL_REF| Vector a [angstrom     2.762     0.000     0.000   |a| =     2.761870
 CELL_REF| Vector b [angstrom     1.381     2.392     0.000   |b| =     2.761870
 CELL_REF| Vector c [angstrom     0.000     0.000     4.419   |c| =     4.419050
 CELL_REF| Angle (b,c), alpha [degree]:                                90.000000
 CELL_REF| Angle (a,c), beta  [degree]:                                90.000000
 CELL_REF| Angle (a,b), gamma [degree]:                                60.000000
 CELL_REF| Numerically orthorhombic:                                          NO
 CELL_REF| Periodicity                                                       XYZ

 *** WARNING in cryssym.F:180 :: Symmetry library SPGLIB not available ***


 *******************************************************************************
                                    Kpoints
 *******************************************************************************
 BRILLOUIN| K-point scheme                                        Monkhorst-Pack
 BRILLOUIN| K-Point grid                                             8    8    8
 BRILLOUIN| Accuracy in Symmetry determination                      0.100000E-05
 BRILLOUIN| K-Point point group symmetrization                               OFF
 BRILLOUIN| Wavefunction type                                            COMPLEX
 BRILLOUIN| List of Kpoints [2 Pi/Bohr]                                      256
 BRILLOUIN| Number           Weight            X              Y              Z
 BRILLOUIN|     1           0.00391       -0.43750       -0.43750       -0.43750
 BRILLOUIN|     2           0.00391       -0.43750       -0.43750       -0.31250
 BRILLOUIN|     3           0.00391       -0.43750       -0.43750       -0.18750
 BRILLOUIN|     4           0.00391       -0.43750       -0.43750       -0.06250
 BRILLOUIN|     5           0.00391       -0.43750       -0.43750        0.06250
 BRILLOUIN|     6           0.00391       -0.43750       -0.43750        0.18750
 BRILLOUIN|     7           0.00391       -0.43750       -0.43750        0.31250
 BRILLOUIN|     8           0.00391       -0.43750       -0.43750        0.43750
 BRILLOUIN|     9           0.00391       -0.43750       -0.31250       -0.43750
 BRILLOUIN|    10           0.00391       -0.43750       -0.31250       -0.31250
 BRILLOUIN|    11           0.00391       -0.43750       -0.31250       -0.18750
 BRILLOUIN|    12           0.00391       -0.43750       -0.31250       -0.06250
 BRILLOUIN|    13           0.00391       -0.43750       -0.31250        0.06250
 BRILLOUIN|    14           0.00391       -0.43750       -0.31250        0.18750
 BRILLOUIN|    15           0.00391       -0.43750       -0.31250        0.31250
 BRILLOUIN|    16           0.00391       -0.43750       -0.31250        0.43750
 BRILLOUIN|    17           0.00391       -0.43750       -0.18750       -0.43750
 BRILLOUIN|    18           0.00391       -0.43750       -0.18750       -0.31250
 BRILLOUIN|    19           0.00391       -0.43750       -0.18750       -0.18750
 BRILLOUIN|    20           0.00391       -0.43750       -0.18750       -0.06250
 BRILLOUIN|    21           0.00391       -0.43750       -0.18750        0.06250
 BRILLOUIN|    22           0.00391       -0.43750       -0.18750        0.18750
 BRILLOUIN|    23           0.00391       -0.43750       -0.18750        0.31250
 BRILLOUIN|    24           0.00391       -0.43750       -0.18750        0.43750
 BRILLOUIN|    25           0.00391       -0.43750       -0.06250       -0.43750
 BRILLOUIN|    26           0.00391       -0.43750       -0.06250       -0.31250
 BRILLOUIN|    27           0.00391       -0.43750       -0.06250       -0.18750
 BRILLOUIN|    28           0.00391       -0.43750       -0.06250       -0.06250
 BRILLOUIN|    29           0.00391       -0.43750       -0.06250        0.06250
 BRILLOUIN|    30           0.00391       -0.43750       -0.06250        0.18750
 BRILLOUIN|    31           0.00391       -0.43750       -0.06250        0.31250
 BRILLOUIN|    32           0.00391       -0.43750       -0.06250        0.43750
 BRILLOUIN|    33           0.00391       -0.43750        0.06250       -0.43750
 BRILLOUIN|    34           0.00391       -0.43750        0.06250       -0.31250
 BRILLOUIN|    35           0.00391       -0.43750        0.06250       -0.18750
 BRILLOUIN|    36           0.00391       -0.43750        0.06250       -0.06250
 BRILLOUIN|    37           0.00391       -0.43750        0.06250        0.06250
 BRILLOUIN|    38           0.00391       -0.43750        0.06250        0.18750
 BRILLOUIN|    39           0.00391       -0.43750        0.06250        0.31250
 BRILLOUIN|    40           0.00391       -0.43750        0.06250        0.43750
 BRILLOUIN|    41           0.00391       -0.43750        0.18750       -0.43750
 BRILLOUIN|    42           0.00391       -0.43750        0.18750       -0.31250
 BRILLOUIN|    43           0.00391       -0.43750        0.18750       -0.18750
 BRILLOUIN|    44           0.00391       -0.43750        0.18750       -0.06250
 BRILLOUIN|    45           0.00391       -0.43750        0.18750        0.06250
 BRILLOUIN|    46           0.00391       -0.43750        0.18750        0.18750
 BRILLOUIN|    47           0.00391       -0.43750        0.18750        0.31250
 BRILLOUIN|    48           0.00391       -0.43750        0.18750        0.43750
 BRILLOUIN|    49           0.00391       -0.43750        0.31250       -0.43750
 BRILLOUIN|    50           0.00391       -0.43750        0.31250       -0.31250
 BRILLOUIN|    51           0.00391       -0.43750        0.31250       -0.18750
 BRILLOUIN|    52           0.00391       -0.43750        0.31250       -0.06250
 BRILLOUIN|    53           0.00391       -0.43750        0.31250        0.06250
 BRILLOUIN|    54           0.00391       -0.43750        0.31250        0.18750
 BRILLOUIN|    55           0.00391       -0.43750        0.31250        0.31250
 BRILLOUIN|    56           0.00391       -0.43750        0.31250        0.43750
 BRILLOUIN|    57           0.00391       -0.43750        0.43750       -0.43750
 BRILLOUIN|    58           0.00391       -0.43750        0.43750       -0.31250
 BRILLOUIN|    59           0.00391       -0.43750        0.43750       -0.18750
 BRILLOUIN|    60           0.00391       -0.43750        0.43750       -0.06250
 BRILLOUIN|    61           0.00391       -0.43750        0.43750        0.06250
 BRILLOUIN|    62           0.00391       -0.43750        0.43750        0.18750
 BRILLOUIN|    63           0.00391       -0.43750        0.43750        0.31250
 BRILLOUIN|    64           0.00391       -0.43750        0.43750        0.43750
 BRILLOUIN|    65           0.00391       -0.31250       -0.43750       -0.43750
 BRILLOUIN|    66           0.00391       -0.31250       -0.43750       -0.31250
 BRILLOUIN|    67           0.00391       -0.31250       -0.43750       -0.18750
 BRILLOUIN|    68           0.00391       -0.31250       -0.43750       -0.06250
 BRILLOUIN|    69           0.00391       -0.31250       -0.43750        0.06250
 BRILLOUIN|    70           0.00391       -0.31250       -0.43750        0.18750
 BRILLOUIN|    71           0.00391       -0.31250       -0.43750        0.31250
 BRILLOUIN|    72           0.00391       -0.31250       -0.43750        0.43750
 BRILLOUIN|    73           0.00391       -0.31250       -0.31250       -0.43750
 BRILLOUIN|    74           0.00391       -0.31250       -0.31250       -0.31250
 BRILLOUIN|    75           0.00391       -0.31250       -0.31250       -0.18750
 BRILLOUIN|    76           0.00391       -0.31250       -0.31250       -0.06250
 BRILLOUIN|    77           0.00391       -0.31250       -0.31250        0.06250
 BRILLOUIN|    78           0.00391       -0.31250       -0.31250        0.18750
 BRILLOUIN|    79           0.00391       -0.31250       -0.31250        0.31250
 BRILLOUIN|    80           0.00391       -0.31250       -0.31250        0.43750
 BRILLOUIN|    81           0.00391       -0.31250       -0.18750       -0.43750
 BRILLOUIN|    82           0.00391       -0.31250       -0.18750       -0.31250
 BRILLOUIN|    83           0.00391       -0.31250       -0.18750       -0.18750
 BRILLOUIN|    84           0.00391       -0.31250       -0.18750       -0.06250
 BRILLOUIN|    85           0.00391       -0.31250       -0.18750        0.06250
 BRILLOUIN|    86           0.00391       -0.31250       -0.18750        0.18750
 BRILLOUIN|    87           0.00391       -0.31250       -0.18750        0.31250
 BRILLOUIN|    88           0.00391       -0.31250       -0.18750        0.43750
 BRILLOUIN|    89           0.00391       -0.31250       -0.06250       -0.43750
 BRILLOUIN|    90           0.00391       -0.31250       -0.06250       -0.31250
 BRILLOUIN|    91           0.00391       -0.31250       -0.06250       -0.18750
 BRILLOUIN|    92           0.00391       -0.31250       -0.06250       -0.06250
 BRILLOUIN|    93           0.00391       -0.31250       -0.06250        0.06250
 BRILLOUIN|    94           0.00391       -0.31250       -0.06250        0.18750
 BRILLOUIN|    95           0.00391       -0.31250       -0.06250        0.31250
 BRILLOUIN|    96           0.00391       -0.31250       -0.06250        0.43750
 BRILLOUIN|    97           0.00391       -0.31250        0.06250       -0.43750
 BRILLOUIN|    98           0.00391       -0.31250        0.06250       -0.31250
 BRILLOUIN|    99           0.00391       -0.31250        0.06250       -0.18750
 BRILLOUIN|   100           0.00391       -0.31250        0.06250       -0.06250
 BRILLOUIN|   101           0.00391       -0.31250        0.06250        0.06250
 BRILLOUIN|   102           0.00391       -0.31250        0.06250        0.18750
 BRILLOUIN|   103           0.00391       -0.31250        0.06250        0.31250
 BRILLOUIN|   104           0.00391       -0.31250        0.06250        0.43750
 BRILLOUIN|   105           0.00391       -0.31250        0.18750       -0.43750
 BRILLOUIN|   106           0.00391       -0.31250        0.18750       -0.31250
 BRILLOUIN|   107           0.00391       -0.31250        0.18750       -0.18750
 BRILLOUIN|   108           0.00391       -0.31250        0.18750       -0.06250
 BRILLOUIN|   109           0.00391       -0.31250        0.18750        0.06250
 BRILLOUIN|   110           0.00391       -0.31250        0.18750        0.18750
 BRILLOUIN|   111           0.00391       -0.31250        0.18750        0.31250
 BRILLOUIN|   112           0.00391       -0.31250        0.18750        0.43750
 BRILLOUIN|   113           0.00391       -0.31250        0.31250       -0.43750
 BRILLOUIN|   114           0.00391       -0.31250        0.31250       -0.31250
 BRILLOUIN|   115           0.00391       -0.31250        0.31250       -0.18750
 BRILLOUIN|   116           0.00391       -0.31250        0.31250       -0.06250
 BRILLOUIN|   117           0.00391       -0.31250        0.31250        0.06250
 BRILLOUIN|   118           0.00391       -0.31250        0.31250        0.18750
 BRILLOUIN|   119           0.00391       -0.31250        0.31250        0.31250
 BRILLOUIN|   120           0.00391       -0.31250        0.31250        0.43750
 BRILLOUIN|   121           0.00391       -0.31250        0.43750       -0.43750
 BRILLOUIN|   122           0.00391       -0.31250        0.43750       -0.31250
 BRILLOUIN|   123           0.00391       -0.31250        0.43750       -0.18750
 BRILLOUIN|   124           0.00391       -0.31250        0.43750       -0.06250
 BRILLOUIN|   125           0.00391       -0.31250        0.43750        0.06250
 BRILLOUIN|   126           0.00391       -0.31250        0.43750        0.18750
 BRILLOUIN|   127           0.00391       -0.31250        0.43750        0.31250
 BRILLOUIN|   128           0.00391       -0.31250        0.43750        0.43750
 BRILLOUIN|   129           0.00391       -0.18750       -0.43750       -0.43750
 BRILLOUIN|   130           0.00391       -0.18750       -0.43750       -0.31250
 BRILLOUIN|   131           0.00391       -0.18750       -0.43750       -0.18750
 BRILLOUIN|   132           0.00391       -0.18750       -0.43750       -0.06250
 BRILLOUIN|   133           0.00391       -0.18750       -0.43750        0.06250
 BRILLOUIN|   134           0.00391       -0.18750       -0.43750        0.18750
 BRILLOUIN|   135           0.00391       -0.18750       -0.43750        0.31250
 BRILLOUIN|   136           0.00391       -0.18750       -0.43750        0.43750
 BRILLOUIN|   137           0.00391       -0.18750       -0.31250       -0.43750
 BRILLOUIN|   138           0.00391       -0.18750       -0.31250       -0.31250
 BRILLOUIN|   139           0.00391       -0.18750       -0.31250       -0.18750
 BRILLOUIN|   140           0.00391       -0.18750       -0.31250       -0.06250
 BRILLOUIN|   141           0.00391       -0.18750       -0.31250        0.06250
 BRILLOUIN|   142           0.00391       -0.18750       -0.31250        0.18750
 BRILLOUIN|   143           0.00391       -0.18750       -0.31250        0.31250
 BRILLOUIN|   144           0.00391       -0.18750       -0.31250        0.43750
 BRILLOUIN|   145           0.00391       -0.18750       -0.18750       -0.43750
 BRILLOUIN|   146           0.00391       -0.18750       -0.18750       -0.31250
 BRILLOUIN|   147           0.00391       -0.18750       -0.18750       -0.18750
 BRILLOUIN|   148           0.00391       -0.18750       -0.18750       -0.06250
 BRILLOUIN|   149           0.00391       -0.18750       -0.18750        0.06250
 BRILLOUIN|   150           0.00391       -0.18750       -0.18750        0.18750
 BRILLOUIN|   151           0.00391       -0.18750       -0.18750        0.31250
 BRILLOUIN|   152           0.00391       -0.18750       -0.18750        0.43750
 BRILLOUIN|   153           0.00391       -0.18750       -0.06250       -0.43750
 BRILLOUIN|   154           0.00391       -0.18750       -0.06250       -0.31250
 BRILLOUIN|   155           0.00391       -0.18750       -0.06250       -0.18750
 BRILLOUIN|   156           0.00391       -0.18750       -0.06250       -0.06250
 BRILLOUIN|   157           0.00391       -0.18750       -0.06250        0.06250
 BRILLOUIN|   158           0.00391       -0.18750       -0.06250        0.18750
 BRILLOUIN|   159           0.00391       -0.18750       -0.06250        0.31250
 BRILLOUIN|   160           0.00391       -0.18750       -0.06250        0.43750
 BRILLOUIN|   161           0.00391       -0.18750        0.06250       -0.43750
 BRILLOUIN|   162           0.00391       -0.18750        0.06250       -0.31250
 BRILLOUIN|   163           0.00391       -0.18750        0.06250       -0.18750
 BRILLOUIN|   164           0.00391       -0.18750        0.06250       -0.06250
 BRILLOUIN|   165           0.00391       -0.18750        0.06250        0.06250
 BRILLOUIN|   166           0.00391       -0.18750        0.06250        0.18750
 BRILLOUIN|   167           0.00391       -0.18750        0.06250        0.31250
 BRILLOUIN|   168           0.00391       -0.18750        0.06250        0.43750
 BRILLOUIN|   169           0.00391       -0.18750        0.18750       -0.43750
 BRILLOUIN|   170           0.00391       -0.18750        0.18750       -0.31250
 BRILLOUIN|   171           0.00391       -0.18750        0.18750       -0.18750
 BRILLOUIN|   172           0.00391       -0.18750        0.18750       -0.06250
 BRILLOUIN|   173           0.00391       -0.18750        0.18750        0.06250
 BRILLOUIN|   174           0.00391       -0.18750        0.18750        0.18750
 BRILLOUIN|   175           0.00391       -0.18750        0.18750        0.31250
 BRILLOUIN|   176           0.00391       -0.18750        0.18750        0.43750
 BRILLOUIN|   177           0.00391       -0.18750        0.31250       -0.43750
 BRILLOUIN|   178           0.00391       -0.18750        0.31250       -0.31250
 BRILLOUIN|   179           0.00391       -0.18750        0.31250       -0.18750
 BRILLOUIN|   180           0.00391       -0.18750        0.31250       -0.06250
 BRILLOUIN|   181           0.00391       -0.18750        0.31250        0.06250
 BRILLOUIN|   182           0.00391       -0.18750        0.31250        0.18750
 BRILLOUIN|   183           0.00391       -0.18750        0.31250        0.31250
 BRILLOUIN|   184           0.00391       -0.18750        0.31250        0.43750
 BRILLOUIN|   185           0.00391       -0.18750        0.43750       -0.43750
 BRILLOUIN|   186           0.00391       -0.18750        0.43750       -0.31250
 BRILLOUIN|   187           0.00391       -0.18750        0.43750       -0.18750
 BRILLOUIN|   188           0.00391       -0.18750        0.43750       -0.06250
 BRILLOUIN|   189           0.00391       -0.18750        0.43750        0.06250
 BRILLOUIN|   190           0.00391       -0.18750        0.43750        0.18750
 BRILLOUIN|   191           0.00391       -0.18750        0.43750        0.31250
 BRILLOUIN|   192           0.00391       -0.18750        0.43750        0.43750
 BRILLOUIN|   193           0.00391       -0.06250       -0.43750       -0.43750
 BRILLOUIN|   194           0.00391       -0.06250       -0.43750       -0.31250
 BRILLOUIN|   195           0.00391       -0.06250       -0.43750       -0.18750
 BRILLOUIN|   196           0.00391       -0.06250       -0.43750       -0.06250
 BRILLOUIN|   197           0.00391       -0.06250       -0.43750        0.06250
 BRILLOUIN|   198           0.00391       -0.06250       -0.43750        0.18750
 BRILLOUIN|   199           0.00391       -0.06250       -0.43750        0.31250
 BRILLOUIN|   200           0.00391       -0.06250       -0.43750        0.43750
 BRILLOUIN|   201           0.00391       -0.06250       -0.31250       -0.43750
 BRILLOUIN|   202           0.00391       -0.06250       -0.31250       -0.31250
 BRILLOUIN|   203           0.00391       -0.06250       -0.31250       -0.18750
 BRILLOUIN|   204           0.00391       -0.06250       -0.31250       -0.06250
 BRILLOUIN|   205           0.00391       -0.06250       -0.31250        0.06250
 BRILLOUIN|   206           0.00391       -0.06250       -0.31250        0.18750
 BRILLOUIN|   207           0.00391       -0.06250       -0.31250        0.31250
 BRILLOUIN|   208           0.00391       -0.06250       -0.31250        0.43750
 BRILLOUIN|   209           0.00391       -0.06250       -0.18750       -0.43750
 BRILLOUIN|   210           0.00391       -0.06250       -0.18750       -0.31250
 BRILLOUIN|   211           0.00391       -0.06250       -0.18750       -0.18750
 BRILLOUIN|   212           0.00391       -0.06250       -0.18750       -0.06250
 BRILLOUIN|   213           0.00391       -0.06250       -0.18750        0.06250
 BRILLOUIN|   214           0.00391       -0.06250       -0.18750        0.18750
 BRILLOUIN|   215           0.00391       -0.06250       -0.18750        0.31250
 BRILLOUIN|   216           0.00391       -0.06250       -0.18750        0.43750
 BRILLOUIN|   217           0.00391       -0.06250       -0.06250       -0.43750
 BRILLOUIN|   218           0.00391       -0.06250       -0.06250       -0.31250
 BRILLOUIN|   219           0.00391       -0.06250       -0.06250       -0.18750
 BRILLOUIN|   220           0.00391       -0.06250       -0.06250       -0.06250
 BRILLOUIN|   221           0.00391       -0.06250       -0.06250        0.06250
 BRILLOUIN|   222           0.00391       -0.06250       -0.06250        0.18750
 BRILLOUIN|   223           0.00391       -0.06250       -0.06250        0.31250
 BRILLOUIN|   224           0.00391       -0.06250       -0.06250        0.43750
 BRILLOUIN|   225           0.00391       -0.06250        0.06250       -0.43750
 BRILLOUIN|   226           0.00391       -0.06250        0.06250       -0.31250
 BRILLOUIN|   227           0.00391       -0.06250        0.06250       -0.18750
 BRILLOUIN|   228           0.00391       -0.06250        0.06250       -0.06250
 BRILLOUIN|   229           0.00391       -0.06250        0.06250        0.06250
 BRILLOUIN|   230           0.00391       -0.06250        0.06250        0.18750
 BRILLOUIN|   231           0.00391       -0.06250        0.06250        0.31250
 BRILLOUIN|   232           0.00391       -0.06250        0.06250        0.43750
 BRILLOUIN|   233           0.00391       -0.06250        0.18750       -0.43750
 BRILLOUIN|   234           0.00391       -0.06250        0.18750       -0.31250
 BRILLOUIN|   235           0.00391       -0.06250        0.18750       -0.18750
 BRILLOUIN|   236           0.00391       -0.06250        0.18750       -0.06250
 BRILLOUIN|   237           0.00391       -0.06250        0.18750        0.06250
 BRILLOUIN|   238           0.00391       -0.06250        0.18750        0.18750
 BRILLOUIN|   239           0.00391       -0.06250        0.18750        0.31250
 BRILLOUIN|   240           0.00391       -0.06250        0.18750        0.43750
 BRILLOUIN|   241           0.00391       -0.06250        0.31250       -0.43750
 BRILLOUIN|   242           0.00391       -0.06250        0.31250       -0.31250
 BRILLOUIN|   243           0.00391       -0.06250        0.31250       -0.18750
 BRILLOUIN|   244           0.00391       -0.06250        0.31250       -0.06250
 BRILLOUIN|   245           0.00391       -0.06250        0.31250        0.06250
 BRILLOUIN|   246           0.00391       -0.06250        0.31250        0.18750
 BRILLOUIN|   247           0.00391       -0.06250        0.31250        0.31250
 BRILLOUIN|   248           0.00391       -0.06250        0.31250        0.43750
 BRILLOUIN|   249           0.00391       -0.06250        0.43750       -0.43750
 BRILLOUIN|   250           0.00391       -0.06250        0.43750       -0.31250
 BRILLOUIN|   251           0.00391       -0.06250        0.43750       -0.18750
 BRILLOUIN|   252           0.00391       -0.06250        0.43750       -0.06250
 BRILLOUIN|   253           0.00391       -0.06250        0.43750        0.06250
 BRILLOUIN|   254           0.00391       -0.06250        0.43750        0.18750
 BRILLOUIN|   255           0.00391       -0.06250        0.43750        0.31250
 BRILLOUIN|   256           0.00391       -0.06250        0.43750        0.43750
 *******************************************************************************

 *******************************************************************************
 *******************************************************************************
 **                                                                           **
 **     #####                         ##              ##                      **
 **    ##   ##            ##          ##              ##                      **
 **   ##     ##                       ##            ######                    **
 **   ##     ##  ##   ##  ##   #####  ##  ##   ####   ##    #####    #####    **
 **   ##     ##  ##   ##  ##  ##      ## ##   ##      ##   ##   ##  ##   ##   **
 **   ##  ## ##  ##   ##  ##  ##      ####     ###    ##   ######   ######    **
 **    ##  ###   ##   ##  ##  ##      ## ##      ##   ##   ##       ##        **
 **     #######   #####   ##   #####  ##  ##  ####    ##    #####   ##        **
 **           ##                                                    ##        **
 **                                                                           **
 **                                                ... make the atoms dance   **
 **                                                                           **
 **            Copyright (C) by CP2K developers group (2000-2025)             **
 **                      J. Chem. Phys. 152, 194103 (2020)                    **
 **                                                                           **
 *******************************************************************************

 DFT| Spin restricted Kohn-Sham (RKS) calculation                            RKS
 DFT| Multiplicity                                                             1
 DFT| Number of spin states                                                    1
 DFT| Charge                                                                   0
 DFT| Self-interaction correction (SIC)                                       NO
 DFT| Cutoffs: density                                              1.000000E-10
 DFT|          gradient                                             1.000000E-10
 DFT|          tau                                                  1.000000E-10
 DFT|          cutoff_smoothing_range                               0.000000E+00
 DFT| XC density smoothing                                                  NONE
 DFT| XC derivatives                                                          PW

 FUNCTIONAL| PBE:
 FUNCTIONAL| J.P.Perdew, K.Burke, M.Ernzerhof, Phys. Rev. Letter, vol. 77, n 18,
 FUNCTIONAL|  pp. 3865-3868, (1996) {spin unpolarized}                          


 QS| Method:                                                                 GPW
 QS| Density plane wave grid type                        NON-SPHERICAL FULLSPACE
 QS| Number of grid levels:                                                    4
 QS| Density cutoff [a.u.]:                                                500.0
 QS| Multi grid cutoff [a.u.]: 1) grid level                               500.0
 QS|                           2) grid level                               166.7
 QS|                           3) grid level                                55.6
 QS|                           4) grid level                                18.5
 QS| Grid level progression factor:                                          3.0
 QS| Relative density cutoff [a.u.]:                                        50.0
 QS| Interaction thresholds: eps_pgf_orb:                                1.0E-16
 QS|                         eps_filter_matrix:                          0.0E+00
 QS|                         eps_core_charge:                            1.0E-18
 QS|                         eps_rho_gspace:                             1.0E-16
 QS|                         eps_rho_rspace:                             1.0E-16
 QS|                         eps_gvg_rspace:                             1.0E-08
 QS|                         eps_ppl:                                    1.0E-02
 QS|                         eps_ppnl:                                   1.0E-10


 ATOMIC KIND INFORMATION

  1. Atomic kind: Tc                                    Number of atoms:       2

     Orbital Basis Set                                  TZV2P-MOLOPT-GGA-GTH-q15

       Number of orbital shell sets:                                           1
       Number of orbital shells:                                              12
       Number of primitive Cartesian functions:                                7
       Number of Cartesian basis functions:                                   51
       Number of spherical basis functions:                                   42
       Norm type:                                                              2

       Normalised Cartesian orbitals:

                        Set   Shell   Orbital            Exponent    Coefficient

                          1       1    2s                6.238376       0.094028
                                                         3.196363      -0.371334
                                                         1.984239      -0.152447
                                                         0.880043      -0.181311
                                                         0.415053       0.200617
                                                         0.165954       0.233695
                                                         0.056012      -0.127158

                          1       2    3s                6.238376      -0.158223
                                                         3.196363       0.800848
                                                         1.984239      -0.173173
                                                         0.880043      -0.311066
                                                         0.415053      -0.030499
                                                         0.165954      -0.073618
                                                         0.056012      -0.026333

                          1       3    4s                6.238376      -0.109357
                                                         3.196363       0.627382
                                                         1.984239      -0.354102
                                                         0.880043      -0.330285
                                                         0.415053      -0.099204
                                                         0.165954       0.139465
                                                         0.056012       0.047756

                          1       4    5s                6.238376      -0.001277
                                                         3.196363       0.217193
                                                         1.984239      -0.207890
                                                         0.880043      -0.089057
                                                         0.415053       0.387206
                                                         0.165954      -0.017128
                                                         0.056012       0.025862

                          1       5    3px               6.238376      -0.245827
                                                         3.196363       1.455720
                                                         1.984239      -1.019134
                                                         0.880043      -0.456679
                                                         0.415053      -0.163131
                                                         0.165954      -0.036546
                                                         0.056012      -0.004195
                          1       5    3py               6.238376      -0.245827
                                                         3.196363       1.455720
                                                         1.984239      -1.019134
                                                         0.880043      -0.456679
                                                         0.415053      -0.163131
                                                         0.165954      -0.036546
                                                         0.056012      -0.004195
                          1       5    3pz               6.238376      -0.245827
                                                         3.196363       1.455720
                                                         1.984239      -1.019134
                                                         0.880043      -0.456679
                                                         0.415053      -0.163131
                                                         0.165954      -0.036546
                                                         0.056012      -0.004195

                          1       6    4px               6.238376       0.015089
                                                         3.196363       0.889397
                                                         1.984239      -0.965321
                                                         0.880043      -0.588473
                                                         0.415053       0.154469
                                                         0.165954       0.098623
                                                         0.056012       0.012359
                          1       6    4py               6.238376       0.015089
                                                         3.196363       0.889397
                                                         1.984239      -0.965321
                                                         0.880043      -0.588473
                                                         0.415053       0.154469
                                                         0.165954       0.098623
                                                         0.056012       0.012359
                          1       6    4pz               6.238376       0.015089
                                                         3.196363       0.889397
                                                         1.984239      -0.965321
                                                         0.880043      -0.588473
                                                         0.415053       0.154469
                                                         0.165954       0.098623
                                                         0.056012       0.012359

                          1       7    5px               6.238376       0.067224
                                                         3.196363      -0.467629
                                                         1.984239       0.827790
                                                         0.880043      -0.010981
                                                         0.415053      -0.228489
                                                         0.165954      -0.030528
                                                         0.056012       0.044716
                          1       7    5py               6.238376       0.067224
                                                         3.196363      -0.467629
                                                         1.984239       0.827790
                                                         0.880043      -0.010981
                                                         0.415053      -0.228489
                                                         0.165954      -0.030528
                                                         0.056012       0.044716
                          1       7    5pz               6.238376       0.067224
                                                         3.196363      -0.467629
                                                         1.984239       0.827790
                                                         0.880043      -0.010981
                                                         0.415053      -0.228489
                                                         0.165954      -0.030528
                                                         0.056012       0.044716

                          1       8    4dx2              6.238376      -0.142225
                                                         3.196363      -1.065197
                                                         1.984239       1.595153
                                                         0.880043       0.491169
                                                         0.415053       0.142451
                                                         0.165954       0.013964
                                                         0.056012      -0.000029
                          1       8    4dxy              6.238376      -0.246341
                                                         3.196363      -1.844975
                                                         1.984239       2.762887
                                                         0.880043       0.850729
                                                         0.415053       0.246733
                                                         0.165954       0.024186
                                                         0.056012      -0.000050
                          1       8    4dxz              6.238376      -0.246341
                                                         3.196363      -1.844975
                                                         1.984239       2.762887
                                                         0.880043       0.850729
                                                         0.415053       0.246733
                                                         0.165954       0.024186
                                                         0.056012      -0.000050
                          1       8    4dy2              6.238376      -0.142225
                                                         3.196363      -1.065197
                                                         1.984239       1.595153
                                                         0.880043       0.491169
                                                         0.415053       0.142451
                                                         0.165954       0.013964
                                                         0.056012      -0.000029
                          1       8    4dyz              6.238376      -0.246341
                                                         3.196363      -1.844975
                                                         1.984239       2.762887
                                                         0.880043       0.850729
                                                         0.415053       0.246733
                                                         0.165954       0.024186
                                                         0.056012      -0.000050
                          1       8    4dz2              6.238376      -0.142225
                                                         3.196363      -1.065197
                                                         1.984239       1.595153
                                                         0.880043       0.491169
                                                         0.415053       0.142451
                                                         0.165954       0.013964
                                                         0.056012      -0.000029

                          1       9    5dx2              6.238376       0.729056
                                                         3.196363      -0.507028
                                                         1.984239      -0.114289
                                                         0.880043      -0.356952
                                                         0.415053      -0.024721
                                                         0.165954       0.048231
                                                         0.056012       0.005155
                          1       9    5dxy              6.238376       1.262761
                                                         3.196363      -0.878199
                                                         1.984239      -0.197954
                                                         0.880043      -0.618259
                                                         0.415053      -0.042817
                                                         0.165954       0.083538
                                                         0.056012       0.008928
                          1       9    5dxz              6.238376       1.262761
                                                         3.196363      -0.878199
                                                         1.984239      -0.197954
                                                         0.880043      -0.618259
                                                         0.415053      -0.042817
                                                         0.165954       0.083538
                                                         0.056012       0.008928
                          1       9    5dy2              6.238376       0.729056
                                                         3.196363      -0.507028
                                                         1.984239      -0.114289
                                                         0.880043      -0.356952
                                                         0.415053      -0.024721
                                                         0.165954       0.048231
                                                         0.056012       0.005155
                          1       9    5dyz              6.238376       1.262761
                                                         3.196363      -0.878199
                                                         1.984239      -0.197954
                                                         0.880043      -0.618259
                                                         0.415053      -0.042817
                                                         0.165954       0.083538
                                                         0.056012       0.008928
                          1       9    5dz2              6.238376       0.729056
                                                         3.196363      -0.507028
                                                         1.984239      -0.114289
                                                         0.880043      -0.356952
                                                         0.415053      -0.024721
                                                         0.165954       0.048231
                                                         0.056012       0.005155

                          1      10    6dx2              6.238376      -0.130594
                                                         3.196363      -1.518327
                                                         1.984239       1.406928
                                                         0.880043       1.581389
                                                         0.415053      -0.450446
                                                         0.165954      -0.006525
                                                         0.056012       0.006549
                          1      10    6dxy              6.238376      -0.226195
                                                         3.196363      -2.629820
                                                         1.984239       2.436871
                                                         0.880043       2.739047
                                                         0.415053      -0.780195
                                                         0.165954      -0.011302
                                                         0.056012       0.011344
                          1      10    6dxz              6.238376      -0.226195
                                                         3.196363      -2.629820
                                                         1.984239       2.436871
                                                         0.880043       2.739047
                                                         0.415053      -0.780195
                                                         0.165954      -0.011302
                                                         0.056012       0.011344
                          1      10    6dy2              6.238376      -0.130594
                                                         3.196363      -1.518327
                                                         1.984239       1.406928
                                                         0.880043       1.581389
                                                         0.415053      -0.450446
                                                         0.165954      -0.006525
                                                         0.056012       0.006549
                          1      10    6dyz              6.238376      -0.226195
                                                         3.196363      -2.629820
                                                         1.984239       2.436871
                                                         0.880043       2.739047
                                                         0.415053      -0.780195
                                                         0.165954      -0.011302
                                                         0.056012       0.011344
                          1      10    6dz2              6.238376      -0.130594
                                                         3.196363      -1.518327
                                                         1.984239       1.406928
                                                         0.880043       1.581389
                                                         0.415053      -0.450446
                                                         0.165954      -0.006525
                                                         0.056012       0.006549

                          1      11    5fx3              6.238376       0.144676
                                                         3.196363       0.566369
                                                         1.984239      -0.481619
                                                         0.880043      -0.320193
                                                         0.415053      -0.112268
                                                         0.165954      -0.007964
                                                         0.056012       0.000094
                          1      11    5fx2y             6.238376       0.323506
                                                         3.196363       1.266440
                                                         1.984239      -1.076932
                                                         0.880043      -0.715973
                                                         0.415053      -0.251039
                                                         0.165954      -0.017807
                                                         0.056012       0.000210
                          1      11    5fx2z             6.238376       0.323506
                                                         3.196363       1.266440
                                                         1.984239      -1.076932
                                                         0.880043      -0.715973
                                                         0.415053      -0.251039
                                                         0.165954      -0.017807
                                                         0.056012       0.000210
                          1      11    5fxy2             6.238376       0.323506
                                                         3.196363       1.266440
                                                         1.984239      -1.076932
                                                         0.880043      -0.715973
                                                         0.415053      -0.251039
                                                         0.165954      -0.017807
                                                         0.056012       0.000210
                          1      11    5fxyz             6.238376       0.560329
                                                         3.196363       2.193538
                                                         1.984239      -1.865301
                                                         0.880043      -1.240101
                                                         0.415053      -0.434812
                                                         0.165954      -0.030843
                                                         0.056012       0.000364
                          1      11    5fxz2             6.238376       0.323506
                                                         3.196363       1.266440
                                                         1.984239      -1.076932
                                                         0.880043      -0.715973
                                                         0.415053      -0.251039
                                                         0.165954      -0.017807
                                                         0.056012       0.000210
                          1      11    5fy3              6.238376       0.144676
                                                         3.196363       0.566369
                                                         1.984239      -0.481619
                                                         0.880043      -0.320193
                                                         0.415053      -0.112268
                                                         0.165954      -0.007964
                                                         0.056012       0.000094
                          1      11    5fy2z             6.238376       0.323506
                                                         3.196363       1.266440
                                                         1.984239      -1.076932
                                                         0.880043      -0.715973
                                                         0.415053      -0.251039
                                                         0.165954      -0.017807
                                                         0.056012       0.000210
                          1      11    5fyz2             6.238376       0.323506
                                                         3.196363       1.266440
                                                         1.984239      -1.076932
                                                         0.880043      -0.715973
                                                         0.415053      -0.251039
                                                         0.165954      -0.017807
                                                         0.056012       0.000210
                          1      11    5fz3              6.238376       0.144676
                                                         3.196363       0.566369
                                                         1.984239      -0.481619
                                                         0.880043      -0.320193
                                                         0.415053      -0.112268
                                                         0.165954      -0.007964
                                                         0.056012       0.000094

                          1      12    6fx3              6.238376      -1.756498
                                                         3.196363       0.749466
                                                         1.984239      -0.164637
                                                         0.880043       0.985227
                                                         0.415053      -0.015622
                                                         0.165954      -0.018186
                                                         0.056012      -0.000140
                          1      12    6fx2y             6.238376      -3.927648
                                                         3.196363       1.675856
                                                         1.984239      -0.368141
                                                         0.880043       2.203034
                                                         0.415053      -0.034931
                                                         0.165954      -0.040666
                                                         0.056012      -0.000313
                          1      12    6fx2z             6.238376      -3.927648
                                                         3.196363       1.675856
                                                         1.984239      -0.368141
                                                         0.880043       2.203034
                                                         0.415053      -0.034931
                                                         0.165954      -0.040666
                                                         0.056012      -0.000313
                          1      12    6fxy2             6.238376      -3.927648
                                                         3.196363       1.675856
                                                         1.984239      -0.368141
                                                         0.880043       2.203034
                                                         0.415053      -0.034931
                                                         0.165954      -0.040666
                                                         0.056012      -0.000313
                          1      12    6fxyz             6.238376      -6.802887
                                                         3.196363       2.902668
                                                         1.984239      -0.637638
                                                         0.880043       3.815768
                                                         0.415053      -0.060502
                                                         0.165954      -0.070436
                                                         0.056012      -0.000542
                          1      12    6fxz2             6.238376      -3.927648
                                                         3.196363       1.675856
                                                         1.984239      -0.368141
                                                         0.880043       2.203034
                                                         0.415053      -0.034931
                                                         0.165954      -0.040666
                                                         0.056012      -0.000313
                          1      12    6fy3              6.238376      -1.756498
                                                         3.196363       0.749466
                                                         1.984239      -0.164637
                                                         0.880043       0.985227
                                                         0.415053      -0.015622
                                                         0.165954      -0.018186
                                                         0.056012      -0.000140
                          1      12    6fy2z             6.238376      -3.927648
                                                         3.196363       1.675856
                                                         1.984239      -0.368141
                                                         0.880043       2.203034
                                                         0.415053      -0.034931
                                                         0.165954      -0.040666
                                                         0.056012      -0.000313
                          1      12    6fyz2             6.238376      -3.927648
                                                         3.196363       1.675856
                                                         1.984239      -0.368141
                                                         0.880043       2.203034
                                                         0.415053      -0.034931
                                                         0.165954      -0.040666
                                                         0.056012      -0.000313
                          1      12    6fz3              6.238376      -1.756498
                                                         3.196363       0.749466
                                                         1.984239      -0.164637
                                                         0.880043       0.985227
                                                         0.415053      -0.015622
                                                         0.165954      -0.018186
                                                         0.056012      -0.000140

       Atomic covalent radius [Angstrom]:                                  1.270

       Atomic van der Waals radius [Angstrom]:                             1.630

     GTH Potential information for                                   GTH-PBE-q15

       Description:                       Goedecker-Teter-Hutter pseudopotential
                                           Goedecker et al., PRB 54, 1703 (1996)
                                          Hartwigsen et al., PRB 58, 3641 (1998)
                                                      Krack, TCA 114, 145 (2005)

       Gaussian exponent of the core charge distribution:               2.704164
       Electronic configuration (s p d ...):                           3   6   6

       Parameters of the local part of the GTH pseudopotential:

                          rloc        C1          C2          C3          C4
                        0.430000   27.301999   -4.647157

       Parameters of the non-local part of the GTH (SOC) pseudopotential:

                   l      r(l)      h(i,j,l)
                                    k(i,j,l)
                   0    0.346175   -0.379219    3.340566
                                    3.340566   -4.312652
                   1    0.423468   -0.241516   -0.822150
                                   -0.822150    0.972781
                                    0.006726    0.278056
                                    0.278056   -0.329001
                   2    0.431865    1.218785   -2.674010
                                   -2.674010    3.032042
                                   -0.007602    0.032777
                                    0.032777   -0.037166


 MOLECULE KIND INFORMATION


 All atoms are their own molecule, skipping detailed information


 TOTAL NUMBERS AND MAXIMUM NUMBERS

  Total number of            - Atomic kinds:                                   1
                             - Atoms:                                          2
                             - Shell sets:                                     2
                             - Shells:                                        24
                             - Primitive Cartesian functions:                 14
                             - Cartesian basis functions:                    102
                             - Spherical basis functions:                     84

  Maximum angular momentum of- Orbital basis functions:                        3
                             - Local part of the GTH pseudopotential:          2
                             - Non-local part of the GTH pseudopotential:      4


 MODULE QUICKSTEP: ATOMIC COORDINATES IN ANGSTROM

   Atom Kind Element         X             Y             Z       Z(eff)     Mass
      1    1 Tc   43      0.000000      0.000000      0.000000  15.0000  97.9072
      2    1 Tc   43      1.380921      0.797275      2.209525  15.0000  97.9072



 SCF PARAMETERS         Density guess:                                    ATOMIC
                        --------------------------------------------------------
                        max_scf:                                             500
                        max_scf_history:                                       0
                        max_diis:                                              4
                        --------------------------------------------------------
                        eps_scf:                                        1.00E-09
                        eps_scf_history:                                0.00E+00
                        eps_diis:                                       1.00E-01
                        eps_eigval:                                     1.00E-05
                        --------------------------------------------------------
                        level_shift [a.u.]:                             0.000000
                        added MOs                                        69    0
                        --------------------------------------------------------
                        Mixing method:                            BROYDEN_MIXING
                                                charge density mixing in g-space
                        --------------------------------------------------------
                        Smear method:                                FERMI_DIRAC
                        Electronic temperature [K]:                        300.0
                        Electronic temperature [a.u.]:                  9.50E-04
                        Accuracy threshold:                             1.00E-10
                        --------------------------------------------------------
                        No outer SCF

 PW_GRID| Information for grid number                                          1
 PW_GRID| Grid distributed over                                     8 processors
 PW_GRID| Real space group dimensions                                     8    1
 PW_GRID| the grid is blocked:                                                NO
 PW_GRID| Cutoff [a.u.]                                                    500.0
 PW_GRID| spherical cutoff:                                                   NO
 PW_GRID|   Bounds   1            -27      26                Points:          54
 PW_GRID|   Bounds   2            -27      26                Points:          54
 PW_GRID|   Bounds   3            -45      44                Points:          90
 PW_GRID| Volume element (a.u.^3)  0.7506E-03     Volume (a.u.^3)       196.9984
 PW_GRID| Grid span                                                    FULLSPACE
 PW_GRID|   Distribution                         Average         Max         Min
 PW_GRID|   G-Vectors                            32805.0       32832       32778
 PW_GRID|   G-Rays                                 607.5         608         607
 PW_GRID|   Real Space Points                    32805.0       34020       29160

 PW_GRID| Information for grid number                                          2
 PW_GRID| Number of the reference grid                                         1
 PW_GRID| Grid distributed over                                     8 processors
 PW_GRID| Real space group dimensions                                     8    1
 PW_GRID| the grid is blocked:                                                NO
 PW_GRID| Cutoff [a.u.]                                                    166.7
 PW_GRID| spherical cutoff:                                                   NO
 PW_GRID|   Bounds   1            -16      15                Points:          32
 PW_GRID|   Bounds   2            -16      15                Points:          32
 PW_GRID|   Bounds   3            -27      26                Points:          54
 PW_GRID| Volume element (a.u.^3)  0.3563E-02     Volume (a.u.^3)       196.9984
 PW_GRID| Grid span                                                    FULLSPACE
 PW_GRID|   Distribution                         Average         Max         Min
 PW_GRID|   G-Vectors                             6912.0        6944        6880
 PW_GRID|   G-Rays                                 216.0         217         215
 PW_GRID|   Real Space Points                     6912.0        6912        6912

 PW_GRID| Information for grid number                                          3
 PW_GRID| Number of the reference grid                                         1
 PW_GRID| Grid distributed over                                     8 processors
 PW_GRID| Real space group dimensions                                     8    1
 PW_GRID| the grid is blocked:                                                NO
 PW_GRID| Cutoff [a.u.]                                                     55.6
 PW_GRID| spherical cutoff:                                                   NO
 PW_GRID|   Bounds   1             -9       8                Points:          18
 PW_GRID|   Bounds   2             -9       8                Points:          18
 PW_GRID|   Bounds   3            -15      14                Points:          30
 PW_GRID| Volume element (a.u.^3)  0.2027E-01     Volume (a.u.^3)       196.9984
 PW_GRID| Grid span                                                    FULLSPACE
 PW_GRID|   Distribution                         Average         Max         Min
 PW_GRID|   G-Vectors                             1215.0        1260        1170
 PW_GRID|   G-Rays                                  67.5          70          65
 PW_GRID|   Real Space Points                     1215.0        1620        1080

 PW_GRID| Information for grid number                                          4
 PW_GRID| Number of the reference grid                                         1
 PW_GRID| Grid distributed over                                     8 processors
 PW_GRID| Real space group dimensions                                     8    1
 PW_GRID| the grid is blocked:                                                NO
 PW_GRID| Cutoff [a.u.]                                                     18.5
 PW_GRID| spherical cutoff:                                                   NO
 PW_GRID|   Bounds   1             -6       5                Points:          12
 PW_GRID|   Bounds   2             -6       5                Points:          12
 PW_GRID|   Bounds   3             -9       8                Points:          18
 PW_GRID| Volume element (a.u.^3)  0.7600E-01     Volume (a.u.^3)       196.9984
 PW_GRID| Grid span                                                    FULLSPACE
 PW_GRID|   Distribution                         Average         Max         Min
 PW_GRID|   G-Vectors                              324.0         348         312
 PW_GRID|   G-Rays                                  27.0          29          26
 PW_GRID|   Real Space Points                      324.0         432         216

 POISSON| Solver                                                        PERIODIC
 POISSON| Periodicity                                                        XYZ

 RS_GRID| Information for grid number                                          1
 RS_GRID|   Bounds   1            -27      26                Points:          54
 RS_GRID|   Bounds   2            -27      26                Points:          54
 RS_GRID|   Bounds   3            -45      44                Points:          90
 RS_GRID| Real space fully replicated
 RS_GRID| Group size                                                           1

 RS_GRID| Information for grid number                                          2
 RS_GRID|   Bounds   1            -16      15                Points:          32
 RS_GRID|   Bounds   2            -16      15                Points:          32
 RS_GRID|   Bounds   3            -27      26                Points:          54
 RS_GRID| Real space fully replicated
 RS_GRID| Group size                                                           1

 RS_GRID| Information for grid number                                          3
 RS_GRID|   Bounds   1             -9       8                Points:          18
 RS_GRID|   Bounds   2             -9       8                Points:          18
 RS_GRID|   Bounds   3            -15      14                Points:          30
 RS_GRID| Real space fully replicated
 RS_GRID| Group size                                                           1

 RS_GRID| Information for grid number                                          4
 RS_GRID|   Bounds   1             -6       5                Points:          12
 RS_GRID|   Bounds   2             -6       5                Points:          12
 RS_GRID|   Bounds   3             -9       8                Points:          18
 RS_GRID| Real space fully replicated
 RS_GRID| Group size                                                           1

 Number of electrons:                                                         30
 Number of occupied orbitals:                                                 15
 Number of molecular orbitals:                                                84

 Number of orbital functions:                                                 84
 Number of independent orbital functions:                                     84

 Extrapolation method: initial_guess

 Atomic guess: The first density matrix is obtained in terms of atomic orbitals
               and electronic configurations assigned to each atomic kind

 Guess for atomic kind: Tc

 Electronic structure
    Total number of core electrons                                         28.00
    Total number of valence electrons                                      15.00
    Total number of electrons                                              43.00
    Multiplicity                                                   not specified
    S   [  2.00  2.00  2.00] 2.00  1.00
    P   [  6.00  6.00] 6.00
    D   [ 10.00] 6.00


 *******************************************************************************
                  Iteration          Convergence                     Energy [au]
 *******************************************************************************
                          1         4.20707                     -75.193618821910
[...]

 -------------------------------------------------------------------------------
 -                                                                             -
 -                                DBCSR STATISTICS                             -
 -                                                                             -
 -------------------------------------------------------------------------------
 COUNTER                                    TOTAL       BLAS       SMM       ACC
 flops inhomo. stacks                           0       0.0%      0.0%      0.0%
 flops total                         0.000000E+00       0.0%      0.0%      0.0%
 flops max/rank                      0.000000E+00       0.0%      0.0%      0.0%
 matmuls inhomo. stacks                         0       0.0%      0.0%      0.0%
 matmuls total                                  0       0.0%      0.0%      0.0%
 number of processed stacks                     0       0.0%      0.0%      0.0%
 average stack size                                     0.0       0.0       0.0
 marketing flops                     0.000000E+00
 -------------------------------------------------------------------------------
 -                                                                             -
 -                      DBCSR MESSAGE PASSING PERFORMANCE                      -
 -                                                                             -
 -------------------------------------------------------------------------------
 ROUTINE             CALLS      AVE VOLUME [Bytes]
 MP_Bcast                1                     12.
 MP_Allreduce           19                     21.
 MP_Alltoall        574000                  11005.
 -------------------------------------------------------------------------------

 -------------------------------------------------------------------------------
 -                                                                             -
 -                                DBM STATISTICS                               -
 -                                                                             -
 -------------------------------------------------------------------------------
    M  x    N  x    K                                          COUNT     PERCENT
 -------------------------------------------------------------------------------

 -------------------------------------------------------------------------------
 -                                                                             -
 -                                GRID STATISTICS                              -
 -                                                                             -
 -------------------------------------------------------------------------------
 LP    KERNEL             BACKEND                              COUNT     PERCENT
 6     collocate general  CPU                                 841920      51.06%
 6     integrate general  CPU                                 806840      48.94%
 0     collocate general  CPU                                      4       0.00%
 0     integrate general  CPU                                      2       0.00%
 -------------------------------------------------------------------------------

 MEMORY| Estimated peak process memory [MiB]                                1123

 -------------------------------------------------------------------------------
 ----                             MULTIGRID INFO                            ----
 -------------------------------------------------------------------------------
 count for grid        1:         112386          cutoff [a.u.]          500.00
 count for grid        2:          70548          cutoff [a.u.]          166.67
 count for grid        3:          57658          cutoff [a.u.]           55.56
 count for grid        4:          40410          cutoff [a.u.]           18.52
 total gridlevel count  :         281002

 -------------------------------------------------------------------------------
 -                                                                             -
 -                         MESSAGE PASSING PERFORMANCE                         -
 -                                                                             -
 -------------------------------------------------------------------------------

 ROUTINE             CALLS      AVE VOLUME [Bytes]
 MP_Group                6
 MP_Bcast           216628                  20974.
 MP_Allreduce       234254                     26.
 MP_Sync                 4
 MP_Alltoall           419                1478856.
 MP_SendRecv           686                  89768.
 MP_ISendRecv          651                  87970.
 MP_Wait            148895
 MP_comm_split           4
 MP_ISend           157964                   1616.
 MP_IRecv           252032                   1015.
 -------------------------------------------------------------------------------


 -------------------------------------------------------------------------------
 -                                                                             -
 -                           R E F E R E N C E S                               -
 -                                                                             -
 -------------------------------------------------------------------------------
 
 CP2K version 2025.1 (Development Version), the CP2K developers group (2025).
 CP2K is freely available from https://www.cp2k.org/ .
 
 T. D. Kuehne, M. Iannuzzi, M. Del Ben, V. V. Rybkin, P. Seewald, F. Stein, T. 
 Laino, R. Z. Khaliullin, O. Schuett, F. Schiffmann, D. Golze, J. Wilhelm, S. 
 Chulkov, M. H. Bani-Hashemian, V. Weber, U. Borstnik, M. Taillefumier, A. S. 
 Jakobovits, A. Lazzaro, H. Pabst, T. Mueller, R. Schade, M. Guidon, S. 
 Andermatt, N. Holmberg, G. K. Schenter, A. Hehn, A. Bussy, F. Belleflamme, G. 
 Tabacchi, A. Gloess, M. Lass, I. Bethune, C. J. Mundy, C. Plessl, M. Watkins, 
 J. VandeVondele, M. Krack, J. Hutter.
 J. Chem. Phys. 152, 194103 (2020).
 CP2K: An electronic structure and molecular dynamics software package - 
 Quickstep: Efficient and accurate electronic structure calculations.
 https://doi.org/10.1063/5.0007045

 O. Schuett, P. Messmer, J. Hutter, J. VandeVondele.
 Electronic Structure Calculations on Graphics Processing Units, 173-190 (2016).
 GPU-Accelerated Sparse Matrix-Matrix Multiplication for Linear Scaling Density 
 Functional Theory.
 https://doi.org/10.1002/9781118670712.ch8

 J. Hutter, M. Iannuzzi, F. Schiffmann, J. VandeVondele.
 WIREs Comput Mol Sci. 4, 15-25 (2014).
 CP2K: atomistic simulations of condensed matter systems.
 https://doi.org/10.1002/wcms.1159

 U. Borstnik, J. VandeVondele, V. Weber, J. Hutter.
 Parallel Comput. 40, 47-58 (2014).
 Sparse matrix multiplication: The distributed block-compressed sparse row 
 library.
 https://doi.org/10.1016/j.parco.2014.03.012

 J. VandeVondele, J. Hutter.
 J. Chem. Phys. 127, 114105 (2007).
 Gaussian basis sets for accurate calculations on molecular systems in gas and 
 condensed phases.
 https://doi.org/10.1063/1.2770708

 J. VandeVondele, M. Krack, F. Mohamed, M. Parrinello, T. Chassaing, J. Hutter.
 Comput. Phys. Commun. 167, 103-128 (2005).
 QUICKSTEP: Fast and accurate density functional calculations using a mixed 
 Gaussian and plane waves approach.
 https://doi.org/10.1016/j.cpc.2004.12.014

 M. Krack.
 Theor. Chem. Acc. 114, 145-152 (2005).
 Pseudopotentials for H to Kr optimized for gradient-corrected 
 exchange-correlation functionals.
 https://doi.org/10.1007/s00214-005-0655-y

 M. Frigo, S. G. Johnson.
 Proc. IEEE 93, 216-231 (2005).
 The design and implementation of FFTW3.
 https://doi.org/10.1109/JPROC.2004.840301

 C. Hartwigsen, S. Goedecker, J. Hutter.
 Phys. Rev. B 58, 3641-3662 (1998).
 Relativistic separable dual-space Gaussian pseudopotentials from H to Rn.
 https://doi.org/10.1103/PhysRevB.58.3641

 G. Lippert, J. Hutter, M. Parrinello.
 Mol. Phys. 92, 477-487 (1997).
 A hybrid Gaussian and plane wave density functional scheme.
 https://doi.org/10.1080/002689797170220

 S. Goedecker, M. Teter, J. Hutter.
 Phys. Rev. B 54, 1703-1710 (1996).
 Separable dual-space Gaussian pseudopotentials.
 https://doi.org/10.1103/PhysRevB.54.1703

 J. P. Perdew, K. Burke, M. Ernzerhof.
 Phys. Rev. Lett. 77, 3865-3868 (1996).
 Generalized gradient approximation made simple.
 https://doi.org/10.1103/PhysRevLett.77.3865


 -------------------------------------------------------------------------------
 -                                                                             -
 -                                T I M I N G                                  -
 -                                                                             -
 -------------------------------------------------------------------------------
 SUBROUTINE                       CALLS  ASD         SELF TIME        TOTAL TIME
                                MAXIMUM       AVERAGE  MAXIMUM  AVERAGE  MAXIMUM
 CP2K                                 1  1.0    0.025    0.029  872.293  872.293
 qs_energies                          1  2.0    0.016    0.051  871.074  871.097
 scf_env_do_scf                       1  3.0    0.000    0.000  846.931  846.931
 scf_env_do_scf_inner_loop           23  4.0    0.067    0.072  846.931  846.931
 do_general_diag_kp                  24  5.9    0.136    0.164  810.119  817.152
 qs_scf_new_mos_kp                   23  5.0    0.000    0.000  796.797  803.815
 mp_alltoall_i22                  97728  8.7  641.973  789.879  641.973  789.879
 dbcsr_desymmetrize_deep          55048  7.4    0.867    1.184  450.358  552.949
 rskp_transform                   12072  6.9   95.011  507.474   95.011  507.474
 dbcsr_complete_redistribute      42680  8.1    1.501    1.833  209.996  255.169
 kpoint_density_transform            23  7.0    0.093    0.110  247.618  248.398
 copy_fm_to_dbcsr                 11776  8.0    0.070    0.084  200.291  245.180
 transform_dmat                    5888  8.0   45.048  241.195   45.048  241.195
 qs_ks_update_qs_env                 23  5.0    0.000    0.000   11.412   42.290
 rebuild_ks_matrix                   23  6.0    0.000    0.000    8.408   39.286
 qs_ks_build_kohn_sham_matrix        23  7.0    0.128    0.134    8.408   39.286
 sum_up_and_integrate                23  8.0    0.000    0.000    7.403   38.183
 integrate_v_rspace                  23  9.0    0.122    0.652    7.402   38.183
 grid_integrate_task_list            23 10.0    7.074   37.420    7.074   37.420
 transfer_rs2pw                      98  8.0    0.001    0.002   29.394   36.239
 transfer_rs2pw_500                  26  8.9    0.026    0.029   29.369   36.212
 mp_sendrecv_dv                     686 10.0   29.360   36.208   29.360   36.208
 qs_rho_update_rho_low               24  5.0    0.000    0.000   31.245   31.274
 calculate_rho_elec                  24  6.0    0.020    0.065   31.244   31.274
 density_rs2pw                       24  7.0    0.001    0.001   25.368   31.219
 grid_collocate_task_list            24  7.0    5.855   30.931    5.855   30.931
 copy_dbcsr_to_fm                 30904  6.7    0.318    0.381   17.658   17.829
 cp_dbcsr_alloc_block_from_nbl    23800  5.0    1.195    6.110    1.331    6.714
 qs_energies_init_hamiltonians        1  3.0    0.000    0.000    6.379    6.379
 write_kpoints_restart               23  5.0    0.035    0.043    5.380    5.380
 build_core_hamiltonian_matrix        1  4.0    0.012    0.012    1.162    5.244
 qs_env_update_s_mstruct              1  4.0    0.000    0.000    4.324    5.124
 calculate_rho_core                   1  5.0    0.001    0.002    4.091    5.089
 mp_sum_d                        156083  9.0    4.047    4.838    4.047    4.838
 dbcsr_dot                       155481  8.0    0.795    1.713    4.441    4.806
 dbcsr_finalize                  152088  7.7    0.638    0.758    4.247    4.494
 cp_fm_start_copy_general         35920  7.3    0.678    0.926    4.207    4.288
 mp_alltoall_d11v                293184  9.2    3.634    3.951    3.634    3.951
 cp_cfm_geeig_canon                 773  6.9    0.007    0.007    3.432    3.473
 dbcsr_create_new                319713  7.7    2.348    3.067    2.556    3.292
 init_scf_run                         1  3.0    0.000    0.000    2.849    3.209
 scf_env_initial_rho_setup            1  4.0    0.000    0.000    2.849    3.209
 cp_cfm_heevd                      1546  7.9    0.002    0.002    3.121    3.154
 cp_cfm_heevd_base                 1546  8.9    3.119    3.152    3.119    3.152
 evaluate_core_matrix_traces         23  6.0    0.000    0.000    3.003    3.003
 calculate_ptrace_kp                 46  7.0    0.116    0.120    3.003    3.003
 dbcsr_merge_all                  42680 10.1    1.771    2.003    2.615    2.818
 self_consistency_check              23  5.0    0.110    0.113    2.568    2.745
 mp_cart_sub                      61810  8.7    2.539    2.569    2.539    2.569
 hybrid_alltoall_any              55048  8.4    0.223    0.247    2.375    2.563
 cp_sm_mix                        77740  6.0    0.286    0.774    2.308    2.539
 mp_allgather_i                   71840  8.3    2.159    2.274    2.159    2.274
 mp_max_d                         77742  7.0    1.835    2.179    1.835    2.179
 cp_fm_write_unformatted           6760  6.0    1.366    1.919    1.396    2.049
 mixing_allocate                      1  3.0    0.019    0.020    0.430    1.975
 calculate_first_density_matrix       1  5.0    0.002    0.002    1.567    1.926
 calculate_atomic_block_dm            1  6.0    0.001    0.001    1.558    1.920
 mp_alltoall_i11v                183088  8.9    1.735    1.792    1.735    1.792
 dbcsr_copy                      170636  6.6    0.967    1.129    1.424    1.763
 mp_cart_create                   30911  8.7    1.529    1.601    1.529    1.601
 build_core_ppnl                      1  5.0    0.294    1.387    0.294    1.387
 copy_fm_to_dbcsr_bc              11776  9.0    0.162    0.183    0.696    1.255
 build_overlap_matrix_low             1  5.0    0.044    0.143    0.245    1.106
 build_kinetic_matrix_low             1  5.0    0.043    0.142    0.243    1.104
 dbcsr_iterator_start            505051  8.6    0.891    0.916    1.021    1.069
 dbcsr_work_create                97728  8.7    0.583    0.613    0.958    1.060
 calculate_ecore_overlap              1  4.0    0.000    0.000    0.847    1.045
 create_qs_kind_set                   1  2.0    0.000    0.000    1.037    1.037
 read_qs_kind                         1  3.0    0.620    0.629    1.037    1.037
 mp_bcast_iv                     143836  8.3    0.901    1.035    0.901    1.035
 qs_env_rebuild_rho                   1  5.0    0.000    0.000    0.214    0.984
 qs_rho_rebuild                       1  6.0    0.010    0.010    0.214    0.984
 dbcsr_set                       242677  7.2    0.211    0.222    0.416    0.956
 mp_sum_iv                           24  5.3    0.772    0.952    0.772    0.952
 qs_scf_ensure_work_matrices          1  3.0    0.000    0.000    0.772    0.952
 dbcsr_data_new                 1085250  9.5    0.613    0.766    0.613    0.766
 tree_to_linear_d                 42680 11.1    0.653    0.755    0.653    0.755
 copy_dbcsr_to_fm_bc              30904  7.7    0.317    0.340    0.724    0.744
 dbcsr_work_destroy_all           97728  9.7    0.467    0.480    0.725    0.744
 kpoint_set_mo_occupation            23  7.0    0.646    0.651    0.697    0.741
 dbcsr_zero                      242677  8.2    0.204    0.735    0.204    0.735
 dbcsr_reserve_blocks             35576  7.7    0.180    0.651    0.196    0.679
 dbcsr_iterator_stop             505051  8.6    0.560    0.571    0.665    0.679
 dbcsr_data_release             1700397  9.8    0.594    0.637    0.594    0.637
 build_core_ppl                       1  5.0    0.115    0.579    0.115    0.579
 dbcsr_destroy                   164233  7.4    0.265    0.300    0.473    0.537
 parser_read_line                135383  4.0    0.045    0.048    0.474    0.478
 fft_wrap_pw1pw2                    419 10.0    0.003    0.004    0.412    0.448
 parser_read_line_low               155  5.2    0.048    0.210    0.429    0.435
 fft_wrap_pw1pw2_500                278 11.3    0.016    0.017    0.379    0.414
 broadcast_input_information        155  6.2    0.099    0.103    0.381    0.410
 cp_fm_finish_copy_general        14868  7.8    0.345    0.369    0.367    0.406
 fft3d_ps                           419 12.0    0.093    0.102    0.362    0.398
 dbcsr_copy_into_existing         15156  9.1    0.118    0.272    0.202    0.360
 kpoint_density_matrices             23  7.0    0.014    0.014    0.307    0.333
 quick_finalize                   55048  9.4    0.141    0.185    0.236    0.324
 parallel_gemm_fm                  2944  8.0    0.003    0.003    0.286    0.312
 mp_bcast_im                      71840  8.3    0.273    0.311    0.273    0.311
 parallel_gemm_fm_gemm             2944  9.0    0.003    0.003    0.283    0.309
 cp_fm_gemm                        2944 10.0    0.281    0.306    0.281    0.306
 cp_cfm_gemm                       2319  7.9    0.283    0.291    0.283    0.291
 mp_alltoall_z22v                   419 14.0    0.241    0.281    0.241    0.281
 mp_comm_free                     92757  8.7    0.215    0.253    0.215    0.253
 mp_waitall_1                    148895  8.3    0.121    0.253    0.121    0.253
 potential_pw2rs                     23 10.0    0.001    0.001    0.206    0.242
 qs_vxc_create                       23  8.0    0.000    0.000    0.212    0.212
 xc_vxc_pw_create                    23  9.0    0.007    0.007    0.211    0.212
 yz_to_x                            189 12.8    0.008    0.009    0.174    0.208
 mp_bcast_i_src                     620  7.2    0.168    0.198    0.168    0.198
 dbcsr_iterator_seek             505051  9.6    0.129    0.174    0.129    0.174
 dbcsr_make_index_exist          319713  8.7    0.140    0.155    0.140    0.155
 xc_pw_derive                       138 11.0    0.000    0.000    0.141    0.146
 dbcsr_sort_indices              133304 10.6    0.074    0.145    0.074    0.145
 gspace_mixing                       22  5.0    0.005    0.006    0.136    0.136
 mp_recv_dv                       20280  7.0    0.016    0.131    0.016    0.131
 mp_bcast_am_src                    155  7.2    0.102    0.110    0.112    0.117
 xc_rho_set_and_dset_create          23 10.0    0.005    0.005    0.104    0.108
 dbcsr_reserve_all_blocks         11776 10.0    0.018    0.023    0.087    0.108
 mp_isend_dv                      36512  8.2    0.101    0.108    0.101    0.108
 broyden_mixing                      22  6.0    0.101    0.104    0.106    0.107
 xc_pw_divergence                    23 10.0    0.000    0.000    0.098    0.101
 x_to_yz                            230 13.2    0.017    0.019    0.092    0.097
 mp_sum_dm3                          23  8.0    0.051    0.096    0.051    0.096
 qs_create_task_list                  1  5.0    0.000    0.000    0.018    0.095
 generate_qs_task_list                1  6.0    0.014    0.076    0.018    0.095
 merge_index                      42680 11.1    0.087    0.095    0.087    0.095
 dbcsr_data_copy_aa2              42680 10.8    0.041    0.090    0.041    0.090
 -------------------------------------------------------------------------------

 The number of warnings for this run is : 1
 
 -------------------------------------------------------------------------------
  **** **** ******  **  PROGRAM ENDED AT                 2025-08-04 04:39:44.659
 ***** ** ***  *** **   PROGRAM RAN ON                              i04r11c03s12
 **    ****   ******    PROGRAM RAN BY                                   di38fab
 ***** **    ** ** **   PROGRAM PROCESS ID                                184569
  **** **  *******  **  PROGRAM STOPPED IN /hppfs/scratch/04/di38fab/09_GTH/Delt
                                           a_Set/Tc/TZV2P-MOLOPT-PBE-GTH/8x8x8
