 DBCSR| CPU Multiplication driver                                           BLAS (U)
 DBCSR| Multrec recursion limit                                              512 (U)
 DBCSR| Multiplication stack size                                           1000 (D)
 DBCSR| Maximum elements for images                                    UNLIMITED (U)
 DBCSR| Multiplicative factor virtual images                                   1 (U)
 DBCSR| Use multiplication densification                                       T (D)
 DBCSR| Multiplication size stacks                                             3 (U)
 DBCSR| Use memory pool for CPU allocation                                     F (U)
 DBCSR| Number of 3D layers                                               SINGLE (U)
 DBCSR| Use MPI memory allocation                                              F (U)
 DBCSR| Use RMA algorithm                                                      F (U)
 DBCSR| Use Communication thread                                               T (U)
 DBCSR| Communication thread load                                             45 (D)
 DBCSR| MPI: My process id                                                     0
 DBCSR| MPI: Number of processes                                               8
 DBCSR| OMP: Current number of threads                                        12
 DBCSR| OMP: Max number of threads                                            12
 DBCSR| Split modifier for TAS multiplication algorithm                  1.0E+00 (U)


  **** **** ******  **  PROGRAM STARTED AT               2025-08-04 03:27:28.816
 ***** ** ***  *** **   PROGRAM STARTED ON                          i04r03c05s04
 **    ****   ******    PROGRAM STARTED BY                               di38fab
 ***** **    ** ** **   PROGRAM PROCESS ID                               3896305
  **** **  *******  **  PROGRAM STARTED IN /hppfs/scratch/04/di38fab/09_GTH/Delt
                                           a_Set/C/TZV2P-MOLOPT-PBE-GTH/8x8x8

 CP2K| version string:                 CP2K version 2025.1 (Development Version)
 CP2K| source code revision number:                                  git:3130539
 CP2K| cp2kflags: omp libint fftw3 libxc parallel scalapack max_contr=4         
 CP2K| is freely available from                            https://www.cp2k.org/
 CP2K| Program compiled at                         Tue Jun  3 16:14:32 CEST 2025
 CP2K| Program compiled on                                               login01
 CP2K| Program compiled for                                        Supermuc-foss
 CP2K| Data directory path                  /hppfs/work/pn36zo/di38fab/cp2k/data
 CP2K| Input file name                                                    GW.inp

 GLOBAL| Force Environment number                                              1
 GLOBAL| Basis set file name            /hppfs/scratch/04/di38fab/09_GTH/BASIS_A
 GLOBAL| Potential file name            /hppfs/work/pn36zo/di38fab/cp2k/data/GTH
 GLOBAL| MM Potential file name                                     MM_POTENTIAL
 GLOBAL| Coordinate file name                                              C.cif
 GLOBAL| Method name                                                        CP2K
 GLOBAL| Project name                                                       WSe2
 GLOBAL| Run type                                                         ENERGY
 GLOBAL| FFT library                                                       FFTW3
 GLOBAL| Diagonalization library                                       ScaLAPACK
 GLOBAL| Cholesky decomposition library                                ScaLAPACK
 GLOBAL| DGEMM library                                                      BLAS
 GLOBAL| Orthonormality check for eigenvectors                          DISABLED
 GLOBAL| Matrix multiplication library                                 ScaLAPACK
 GLOBAL| All-to-all communication in single precision                          F
 GLOBAL| FFTs using library dependent lengths                                  F
 GLOBAL| Grid backend                                                       AUTO
 GLOBAL| Global print level                                               MEDIUM
 GLOBAL| MPI I/O enabled                                                       T
 GLOBAL| Total number of message passing processes                             8
 GLOBAL| Number of threads for this process                                   12
 GLOBAL| This output is from process                                           0
 GLOBAL| OpenMP stack size per thread (OMP_STACKSIZE)                    default
 GLOBAL| CPU model name             Intel(R) Xeon(R) Platinum 8174 CPU @ 3.10GHz

 MEMORY| system memory details [Kb]
 MEMORY|                        rank 0           min           max       average
 MEMORY| MemTotal             98436664      98436664      98436708      98436686
 MEMORY| MemFree              84844704      84844704      85013672      84929188
 MEMORY| Buffers                     0             0             0             0
 MEMORY| Cached                2363128       2354004       2363128       2358566
 MEMORY| Slab                  1229156       1191204       1229156       1210180
 MEMORY| SReclaimable           272812        263884        272812        268348
 MEMORY| MemLikelyFree        87480644      87480644      87631560      87556102


 *** Fundamental physical constants (SI units) ***

 *** Literature: B. J. Mohr and B. N. Taylor,
 ***             CODATA recommended values of the fundamental physical
 ***             constants: 2006, Web Version 5.1
 ***             http://physics.nist.gov/constants

 Speed of light in vacuum [m/s]                             2.99792458000000E+08
 Magnetic constant or permeability of vacuum [N/A**2]       1.25663706143592E-06
 Electric constant or permittivity of vacuum [F/m]          8.85418781762039E-12
 Planck constant (h) [J*s]                                  6.62606896000000E-34
 Planck constant (h-bar) [J*s]                              1.05457162825177E-34
 Elementary charge [C]                                      1.60217648700000E-19
 Electron mass [kg]                                         9.10938215000000E-31
 Electron g factor [ ]                                     -2.00231930436220E+00
 Proton mass [kg]                                           1.67262163700000E-27
 Fine-structure constant                                    7.29735253760000E-03
 Rydberg constant [1/m]                                     1.09737315685270E+07
 Avogadro constant [1/mol]                                  6.02214179000000E+23
 Boltzmann constant [J/K]                                   1.38065040000000E-23
 Atomic mass unit [kg]                                      1.66053878200000E-27
 Bohr radius [m]                                            5.29177208590000E-11

 *** Conversion factors ***

 [u] -> [a.u.]                                              1.82288848426455E+03
 [Angstrom] -> [Bohr] = [a.u.]                              1.88972613288564E+00
 [a.u.] = [Bohr] -> [Angstrom]                              5.29177208590000E-01
 [a.u.] -> [s]                                              2.41888432650478E-17
 [a.u.] -> [fs]                                             2.41888432650478E-02
 [a.u.] -> [J]                                              4.35974393937059E-18
 [a.u.] -> [N]                                              8.23872205491840E-08
 [a.u.] -> [K]                                              3.15774647902944E+05
 [a.u.] -> [kJ/mol]                                         2.62549961709828E+03
 [a.u.] -> [kcal/mol]                                       6.27509468713739E+02
 [a.u.] -> [Pa]                                             2.94210107994716E+13
 [a.u.] -> [bar]                                            2.94210107994716E+08
 [a.u.] -> [atm]                                            2.90362800883016E+08
 [a.u.] -> [eV]                                             2.72113838565563E+01
 [a.u.] -> [Hz]                                             6.57968392072181E+15
 [a.u.] -> [1/cm] (wave numbers)                            2.19474631370540E+05
 [a.u./Bohr**2] -> [1/cm]                                   5.14048714338585E+03
 

 CELL_TOP| Volume [angstrom^3]:                                        46.656548
 CELL_TOP| Vector a [angstrom     2.469     0.000     0.000   |a| =     2.468570
 CELL_TOP| Vector b [angstrom    -1.234     2.138     0.000   |b| =     2.468570
 CELL_TOP| Vector c [angstrom     0.000     0.000     8.841   |c| =     8.840790
 CELL_TOP| Angle (b,c), alpha [degree]:                                90.000000
 CELL_TOP| Angle (a,c), beta  [degree]:                                90.000000
 CELL_TOP| Angle (a,b), gamma [degree]:                               120.000000
 CELL_TOP| Numerically orthorhombic:                                          NO
 CELL_TOP| Periodicity                                                       XYZ

 CELL_CIF| Volume [angstrom^3]:                                        46.656548
 CELL_CIF| Vector a [angstrom     2.469     0.000     0.000   |a| =     2.468570
 CELL_CIF| Vector b [angstrom    -1.234     2.138     0.000   |b| =     2.468570
 CELL_CIF| Vector c [angstrom     0.000     0.000     8.841   |c| =     8.840790
 CELL_CIF| Angle (b,c), alpha [degree]:                                90.000000
 CELL_CIF| Angle (a,c), beta  [degree]:                                90.000000
 CELL_CIF| Angle (a,b), gamma [degree]:                               120.000000
 CELL_CIF| Numerically orthorhombic:                                          NO
 CELL_CIF| Periodicity                                                       XYZ

 GENERATE|  Preliminary Number of Bonds generated:                             0
 GENERATE|  Achieved consistency in connectivity generation.

 CELL| Volume [angstrom^3]:                                            46.656548
 CELL| Vector a [angstrom]:       2.469     0.000     0.000   |a| =     2.468570
 CELL| Vector b [angstrom]:      -1.234     2.138     0.000   |b| =     2.468570
 CELL| Vector c [angstrom]:       0.000     0.000     8.841   |c| =     8.840790
 CELL| Angle (b,c), alpha [degree]:                                    90.000000
 CELL| Angle (a,c), beta  [degree]:                                    90.000000
 CELL| Angle (a,b), gamma [degree]:                                   120.000000
 CELL| Numerically orthorhombic:                                              NO
 CELL| Periodicity                                                           XYZ

 CELL_REF| Volume [angstrom^3]:                                        46.656548
 CELL_REF| Vector a [angstrom     2.469     0.000     0.000   |a| =     2.468570
 CELL_REF| Vector b [angstrom    -1.234     2.138     0.000   |b| =     2.468570
 CELL_REF| Vector c [angstrom     0.000     0.000     8.841   |c| =     8.840790
 CELL_REF| Angle (b,c), alpha [degree]:                                90.000000
 CELL_REF| Angle (a,c), beta  [degree]:                                90.000000
 CELL_REF| Angle (a,b), gamma [degree]:                               120.000000
 CELL_REF| Numerically orthorhombic:                                          NO
 CELL_REF| Periodicity                                                       XYZ

 *** WARNING in cryssym.F:180 :: Symmetry library SPGLIB not available ***


 *******************************************************************************
                                    Kpoints
 *******************************************************************************
 BRILLOUIN| K-point scheme                                        Monkhorst-Pack
 BRILLOUIN| K-Point grid                                             8    8    8
 BRILLOUIN| Accuracy in Symmetry determination                      0.100000E-05
 BRILLOUIN| K-Point point group symmetrization                               OFF
 BRILLOUIN| Wavefunction type                                            COMPLEX
 BRILLOUIN| List of Kpoints [2 Pi/Bohr]                                      256
 BRILLOUIN| Number           Weight            X              Y              Z
 BRILLOUIN|     1           0.00391       -0.43750       -0.43750       -0.43750
 BRILLOUIN|     2           0.00391       -0.43750       -0.43750       -0.31250
 BRILLOUIN|     3           0.00391       -0.43750       -0.43750       -0.18750
 BRILLOUIN|     4           0.00391       -0.43750       -0.43750       -0.06250
 BRILLOUIN|     5           0.00391       -0.43750       -0.43750        0.06250
 BRILLOUIN|     6           0.00391       -0.43750       -0.43750        0.18750
 BRILLOUIN|     7           0.00391       -0.43750       -0.43750        0.31250
 BRILLOUIN|     8           0.00391       -0.43750       -0.43750        0.43750
 BRILLOUIN|     9           0.00391       -0.43750       -0.31250       -0.43750
 BRILLOUIN|    10           0.00391       -0.43750       -0.31250       -0.31250
 BRILLOUIN|    11           0.00391       -0.43750       -0.31250       -0.18750
 BRILLOUIN|    12           0.00391       -0.43750       -0.31250       -0.06250
 BRILLOUIN|    13           0.00391       -0.43750       -0.31250        0.06250
 BRILLOUIN|    14           0.00391       -0.43750       -0.31250        0.18750
 BRILLOUIN|    15           0.00391       -0.43750       -0.31250        0.31250
 BRILLOUIN|    16           0.00391       -0.43750       -0.31250        0.43750
 BRILLOUIN|    17           0.00391       -0.43750       -0.18750       -0.43750
 BRILLOUIN|    18           0.00391       -0.43750       -0.18750       -0.31250
 BRILLOUIN|    19           0.00391       -0.43750       -0.18750       -0.18750
 BRILLOUIN|    20           0.00391       -0.43750       -0.18750       -0.06250
 BRILLOUIN|    21           0.00391       -0.43750       -0.18750        0.06250
 BRILLOUIN|    22           0.00391       -0.43750       -0.18750        0.18750
 BRILLOUIN|    23           0.00391       -0.43750       -0.18750        0.31250
 BRILLOUIN|    24           0.00391       -0.43750       -0.18750        0.43750
 BRILLOUIN|    25           0.00391       -0.43750       -0.06250       -0.43750
 BRILLOUIN|    26           0.00391       -0.43750       -0.06250       -0.31250
 BRILLOUIN|    27           0.00391       -0.43750       -0.06250       -0.18750
 BRILLOUIN|    28           0.00391       -0.43750       -0.06250       -0.06250
 BRILLOUIN|    29           0.00391       -0.43750       -0.06250        0.06250
 BRILLOUIN|    30           0.00391       -0.43750       -0.06250        0.18750
 BRILLOUIN|    31           0.00391       -0.43750       -0.06250        0.31250
 BRILLOUIN|    32           0.00391       -0.43750       -0.06250        0.43750
 BRILLOUIN|    33           0.00391       -0.43750        0.06250       -0.43750
 BRILLOUIN|    34           0.00391       -0.43750        0.06250       -0.31250
 BRILLOUIN|    35           0.00391       -0.43750        0.06250       -0.18750
 BRILLOUIN|    36           0.00391       -0.43750        0.06250       -0.06250
 BRILLOUIN|    37           0.00391       -0.43750        0.06250        0.06250
 BRILLOUIN|    38           0.00391       -0.43750        0.06250        0.18750
 BRILLOUIN|    39           0.00391       -0.43750        0.06250        0.31250
 BRILLOUIN|    40           0.00391       -0.43750        0.06250        0.43750
 BRILLOUIN|    41           0.00391       -0.43750        0.18750       -0.43750
 BRILLOUIN|    42           0.00391       -0.43750        0.18750       -0.31250
 BRILLOUIN|    43           0.00391       -0.43750        0.18750       -0.18750
 BRILLOUIN|    44           0.00391       -0.43750        0.18750       -0.06250
 BRILLOUIN|    45           0.00391       -0.43750        0.18750        0.06250
 BRILLOUIN|    46           0.00391       -0.43750        0.18750        0.18750
 BRILLOUIN|    47           0.00391       -0.43750        0.18750        0.31250
 BRILLOUIN|    48           0.00391       -0.43750        0.18750        0.43750
 BRILLOUIN|    49           0.00391       -0.43750        0.31250       -0.43750
 BRILLOUIN|    50           0.00391       -0.43750        0.31250       -0.31250
 BRILLOUIN|    51           0.00391       -0.43750        0.31250       -0.18750
 BRILLOUIN|    52           0.00391       -0.43750        0.31250       -0.06250
 BRILLOUIN|    53           0.00391       -0.43750        0.31250        0.06250
 BRILLOUIN|    54           0.00391       -0.43750        0.31250        0.18750
 BRILLOUIN|    55           0.00391       -0.43750        0.31250        0.31250
 BRILLOUIN|    56           0.00391       -0.43750        0.31250        0.43750
 BRILLOUIN|    57           0.00391       -0.43750        0.43750       -0.43750
 BRILLOUIN|    58           0.00391       -0.43750        0.43750       -0.31250
 BRILLOUIN|    59           0.00391       -0.43750        0.43750       -0.18750
 BRILLOUIN|    60           0.00391       -0.43750        0.43750       -0.06250
 BRILLOUIN|    61           0.00391       -0.43750        0.43750        0.06250
 BRILLOUIN|    62           0.00391       -0.43750        0.43750        0.18750
 BRILLOUIN|    63           0.00391       -0.43750        0.43750        0.31250
 BRILLOUIN|    64           0.00391       -0.43750        0.43750        0.43750
 BRILLOUIN|    65           0.00391       -0.31250       -0.43750       -0.43750
 BRILLOUIN|    66           0.00391       -0.31250       -0.43750       -0.31250
 BRILLOUIN|    67           0.00391       -0.31250       -0.43750       -0.18750
 BRILLOUIN|    68           0.00391       -0.31250       -0.43750       -0.06250
 BRILLOUIN|    69           0.00391       -0.31250       -0.43750        0.06250
 BRILLOUIN|    70           0.00391       -0.31250       -0.43750        0.18750
 BRILLOUIN|    71           0.00391       -0.31250       -0.43750        0.31250
 BRILLOUIN|    72           0.00391       -0.31250       -0.43750        0.43750
 BRILLOUIN|    73           0.00391       -0.31250       -0.31250       -0.43750
 BRILLOUIN|    74           0.00391       -0.31250       -0.31250       -0.31250
 BRILLOUIN|    75           0.00391       -0.31250       -0.31250       -0.18750
 BRILLOUIN|    76           0.00391       -0.31250       -0.31250       -0.06250
 BRILLOUIN|    77           0.00391       -0.31250       -0.31250        0.06250
 BRILLOUIN|    78           0.00391       -0.31250       -0.31250        0.18750
 BRILLOUIN|    79           0.00391       -0.31250       -0.31250        0.31250
 BRILLOUIN|    80           0.00391       -0.31250       -0.31250        0.43750
 BRILLOUIN|    81           0.00391       -0.31250       -0.18750       -0.43750
 BRILLOUIN|    82           0.00391       -0.31250       -0.18750       -0.31250
 BRILLOUIN|    83           0.00391       -0.31250       -0.18750       -0.18750
 BRILLOUIN|    84           0.00391       -0.31250       -0.18750       -0.06250
 BRILLOUIN|    85           0.00391       -0.31250       -0.18750        0.06250
 BRILLOUIN|    86           0.00391       -0.31250       -0.18750        0.18750
 BRILLOUIN|    87           0.00391       -0.31250       -0.18750        0.31250
 BRILLOUIN|    88           0.00391       -0.31250       -0.18750        0.43750
 BRILLOUIN|    89           0.00391       -0.31250       -0.06250       -0.43750
 BRILLOUIN|    90           0.00391       -0.31250       -0.06250       -0.31250
 BRILLOUIN|    91           0.00391       -0.31250       -0.06250       -0.18750
 BRILLOUIN|    92           0.00391       -0.31250       -0.06250       -0.06250
 BRILLOUIN|    93           0.00391       -0.31250       -0.06250        0.06250
 BRILLOUIN|    94           0.00391       -0.31250       -0.06250        0.18750
 BRILLOUIN|    95           0.00391       -0.31250       -0.06250        0.31250
 BRILLOUIN|    96           0.00391       -0.31250       -0.06250        0.43750
 BRILLOUIN|    97           0.00391       -0.31250        0.06250       -0.43750
 BRILLOUIN|    98           0.00391       -0.31250        0.06250       -0.31250
 BRILLOUIN|    99           0.00391       -0.31250        0.06250       -0.18750
 BRILLOUIN|   100           0.00391       -0.31250        0.06250       -0.06250
 BRILLOUIN|   101           0.00391       -0.31250        0.06250        0.06250
 BRILLOUIN|   102           0.00391       -0.31250        0.06250        0.18750
 BRILLOUIN|   103           0.00391       -0.31250        0.06250        0.31250
 BRILLOUIN|   104           0.00391       -0.31250        0.06250        0.43750
 BRILLOUIN|   105           0.00391       -0.31250        0.18750       -0.43750
 BRILLOUIN|   106           0.00391       -0.31250        0.18750       -0.31250
 BRILLOUIN|   107           0.00391       -0.31250        0.18750       -0.18750
 BRILLOUIN|   108           0.00391       -0.31250        0.18750       -0.06250
 BRILLOUIN|   109           0.00391       -0.31250        0.18750        0.06250
 BRILLOUIN|   110           0.00391       -0.31250        0.18750        0.18750
 BRILLOUIN|   111           0.00391       -0.31250        0.18750        0.31250
 BRILLOUIN|   112           0.00391       -0.31250        0.18750        0.43750
 BRILLOUIN|   113           0.00391       -0.31250        0.31250       -0.43750
 BRILLOUIN|   114           0.00391       -0.31250        0.31250       -0.31250
 BRILLOUIN|   115           0.00391       -0.31250        0.31250       -0.18750
 BRILLOUIN|   116           0.00391       -0.31250        0.31250       -0.06250
 BRILLOUIN|   117           0.00391       -0.31250        0.31250        0.06250
 BRILLOUIN|   118           0.00391       -0.31250        0.31250        0.18750
 BRILLOUIN|   119           0.00391       -0.31250        0.31250        0.31250
 BRILLOUIN|   120           0.00391       -0.31250        0.31250        0.43750
 BRILLOUIN|   121           0.00391       -0.31250        0.43750       -0.43750
 BRILLOUIN|   122           0.00391       -0.31250        0.43750       -0.31250
 BRILLOUIN|   123           0.00391       -0.31250        0.43750       -0.18750
 BRILLOUIN|   124           0.00391       -0.31250        0.43750       -0.06250
 BRILLOUIN|   125           0.00391       -0.31250        0.43750        0.06250
 BRILLOUIN|   126           0.00391       -0.31250        0.43750        0.18750
 BRILLOUIN|   127           0.00391       -0.31250        0.43750        0.31250
 BRILLOUIN|   128           0.00391       -0.31250        0.43750        0.43750
 BRILLOUIN|   129           0.00391       -0.18750       -0.43750       -0.43750
 BRILLOUIN|   130           0.00391       -0.18750       -0.43750       -0.31250
 BRILLOUIN|   131           0.00391       -0.18750       -0.43750       -0.18750
 BRILLOUIN|   132           0.00391       -0.18750       -0.43750       -0.06250
 BRILLOUIN|   133           0.00391       -0.18750       -0.43750        0.06250
 BRILLOUIN|   134           0.00391       -0.18750       -0.43750        0.18750
 BRILLOUIN|   135           0.00391       -0.18750       -0.43750        0.31250
 BRILLOUIN|   136           0.00391       -0.18750       -0.43750        0.43750
 BRILLOUIN|   137           0.00391       -0.18750       -0.31250       -0.43750
 BRILLOUIN|   138           0.00391       -0.18750       -0.31250       -0.31250
 BRILLOUIN|   139           0.00391       -0.18750       -0.31250       -0.18750
 BRILLOUIN|   140           0.00391       -0.18750       -0.31250       -0.06250
 BRILLOUIN|   141           0.00391       -0.18750       -0.31250        0.06250
 BRILLOUIN|   142           0.00391       -0.18750       -0.31250        0.18750
 BRILLOUIN|   143           0.00391       -0.18750       -0.31250        0.31250
 BRILLOUIN|   144           0.00391       -0.18750       -0.31250        0.43750
 BRILLOUIN|   145           0.00391       -0.18750       -0.18750       -0.43750
 BRILLOUIN|   146           0.00391       -0.18750       -0.18750       -0.31250
 BRILLOUIN|   147           0.00391       -0.18750       -0.18750       -0.18750
 BRILLOUIN|   148           0.00391       -0.18750       -0.18750       -0.06250
 BRILLOUIN|   149           0.00391       -0.18750       -0.18750        0.06250
 BRILLOUIN|   150           0.00391       -0.18750       -0.18750        0.18750
 BRILLOUIN|   151           0.00391       -0.18750       -0.18750        0.31250
 BRILLOUIN|   152           0.00391       -0.18750       -0.18750        0.43750
 BRILLOUIN|   153           0.00391       -0.18750       -0.06250       -0.43750
 BRILLOUIN|   154           0.00391       -0.18750       -0.06250       -0.31250
 BRILLOUIN|   155           0.00391       -0.18750       -0.06250       -0.18750
 BRILLOUIN|   156           0.00391       -0.18750       -0.06250       -0.06250
 BRILLOUIN|   157           0.00391       -0.18750       -0.06250        0.06250
 BRILLOUIN|   158           0.00391       -0.18750       -0.06250        0.18750
 BRILLOUIN|   159           0.00391       -0.18750       -0.06250        0.31250
 BRILLOUIN|   160           0.00391       -0.18750       -0.06250        0.43750
 BRILLOUIN|   161           0.00391       -0.18750        0.06250       -0.43750
 BRILLOUIN|   162           0.00391       -0.18750        0.06250       -0.31250
 BRILLOUIN|   163           0.00391       -0.18750        0.06250       -0.18750
 BRILLOUIN|   164           0.00391       -0.18750        0.06250       -0.06250
 BRILLOUIN|   165           0.00391       -0.18750        0.06250        0.06250
 BRILLOUIN|   166           0.00391       -0.18750        0.06250        0.18750
 BRILLOUIN|   167           0.00391       -0.18750        0.06250        0.31250
 BRILLOUIN|   168           0.00391       -0.18750        0.06250        0.43750
 BRILLOUIN|   169           0.00391       -0.18750        0.18750       -0.43750
 BRILLOUIN|   170           0.00391       -0.18750        0.18750       -0.31250
 BRILLOUIN|   171           0.00391       -0.18750        0.18750       -0.18750
 BRILLOUIN|   172           0.00391       -0.18750        0.18750       -0.06250
 BRILLOUIN|   173           0.00391       -0.18750        0.18750        0.06250
 BRILLOUIN|   174           0.00391       -0.18750        0.18750        0.18750
 BRILLOUIN|   175           0.00391       -0.18750        0.18750        0.31250
 BRILLOUIN|   176           0.00391       -0.18750        0.18750        0.43750
 BRILLOUIN|   177           0.00391       -0.18750        0.31250       -0.43750
 BRILLOUIN|   178           0.00391       -0.18750        0.31250       -0.31250
 BRILLOUIN|   179           0.00391       -0.18750        0.31250       -0.18750
 BRILLOUIN|   180           0.00391       -0.18750        0.31250       -0.06250
 BRILLOUIN|   181           0.00391       -0.18750        0.31250        0.06250
 BRILLOUIN|   182           0.00391       -0.18750        0.31250        0.18750
 BRILLOUIN|   183           0.00391       -0.18750        0.31250        0.31250
 BRILLOUIN|   184           0.00391       -0.18750        0.31250        0.43750
 BRILLOUIN|   185           0.00391       -0.18750        0.43750       -0.43750
 BRILLOUIN|   186           0.00391       -0.18750        0.43750       -0.31250
 BRILLOUIN|   187           0.00391       -0.18750        0.43750       -0.18750
 BRILLOUIN|   188           0.00391       -0.18750        0.43750       -0.06250
 BRILLOUIN|   189           0.00391       -0.18750        0.43750        0.06250
 BRILLOUIN|   190           0.00391       -0.18750        0.43750        0.18750
 BRILLOUIN|   191           0.00391       -0.18750        0.43750        0.31250
 BRILLOUIN|   192           0.00391       -0.18750        0.43750        0.43750
 BRILLOUIN|   193           0.00391       -0.06250       -0.43750       -0.43750
 BRILLOUIN|   194           0.00391       -0.06250       -0.43750       -0.31250
 BRILLOUIN|   195           0.00391       -0.06250       -0.43750       -0.18750
 BRILLOUIN|   196           0.00391       -0.06250       -0.43750       -0.06250
 BRILLOUIN|   197           0.00391       -0.06250       -0.43750        0.06250
 BRILLOUIN|   198           0.00391       -0.06250       -0.43750        0.18750
 BRILLOUIN|   199           0.00391       -0.06250       -0.43750        0.31250
 BRILLOUIN|   200           0.00391       -0.06250       -0.43750        0.43750
 BRILLOUIN|   201           0.00391       -0.06250       -0.31250       -0.43750
 BRILLOUIN|   202           0.00391       -0.06250       -0.31250       -0.31250
 BRILLOUIN|   203           0.00391       -0.06250       -0.31250       -0.18750
 BRILLOUIN|   204           0.00391       -0.06250       -0.31250       -0.06250
 BRILLOUIN|   205           0.00391       -0.06250       -0.31250        0.06250
 BRILLOUIN|   206           0.00391       -0.06250       -0.31250        0.18750
 BRILLOUIN|   207           0.00391       -0.06250       -0.31250        0.31250
 BRILLOUIN|   208           0.00391       -0.06250       -0.31250        0.43750
 BRILLOUIN|   209           0.00391       -0.06250       -0.18750       -0.43750
 BRILLOUIN|   210           0.00391       -0.06250       -0.18750       -0.31250
 BRILLOUIN|   211           0.00391       -0.06250       -0.18750       -0.18750
 BRILLOUIN|   212           0.00391       -0.06250       -0.18750       -0.06250
 BRILLOUIN|   213           0.00391       -0.06250       -0.18750        0.06250
 BRILLOUIN|   214           0.00391       -0.06250       -0.18750        0.18750
 BRILLOUIN|   215           0.00391       -0.06250       -0.18750        0.31250
 BRILLOUIN|   216           0.00391       -0.06250       -0.18750        0.43750
 BRILLOUIN|   217           0.00391       -0.06250       -0.06250       -0.43750
 BRILLOUIN|   218           0.00391       -0.06250       -0.06250       -0.31250
 BRILLOUIN|   219           0.00391       -0.06250       -0.06250       -0.18750
 BRILLOUIN|   220           0.00391       -0.06250       -0.06250       -0.06250
 BRILLOUIN|   221           0.00391       -0.06250       -0.06250        0.06250
 BRILLOUIN|   222           0.00391       -0.06250       -0.06250        0.18750
 BRILLOUIN|   223           0.00391       -0.06250       -0.06250        0.31250
 BRILLOUIN|   224           0.00391       -0.06250       -0.06250        0.43750
 BRILLOUIN|   225           0.00391       -0.06250        0.06250       -0.43750
 BRILLOUIN|   226           0.00391       -0.06250        0.06250       -0.31250
 BRILLOUIN|   227           0.00391       -0.06250        0.06250       -0.18750
 BRILLOUIN|   228           0.00391       -0.06250        0.06250       -0.06250
 BRILLOUIN|   229           0.00391       -0.06250        0.06250        0.06250
 BRILLOUIN|   230           0.00391       -0.06250        0.06250        0.18750
 BRILLOUIN|   231           0.00391       -0.06250        0.06250        0.31250
 BRILLOUIN|   232           0.00391       -0.06250        0.06250        0.43750
 BRILLOUIN|   233           0.00391       -0.06250        0.18750       -0.43750
 BRILLOUIN|   234           0.00391       -0.06250        0.18750       -0.31250
 BRILLOUIN|   235           0.00391       -0.06250        0.18750       -0.18750
 BRILLOUIN|   236           0.00391       -0.06250        0.18750       -0.06250
 BRILLOUIN|   237           0.00391       -0.06250        0.18750        0.06250
 BRILLOUIN|   238           0.00391       -0.06250        0.18750        0.18750
 BRILLOUIN|   239           0.00391       -0.06250        0.18750        0.31250
 BRILLOUIN|   240           0.00391       -0.06250        0.18750        0.43750
 BRILLOUIN|   241           0.00391       -0.06250        0.31250       -0.43750
 BRILLOUIN|   242           0.00391       -0.06250        0.31250       -0.31250
 BRILLOUIN|   243           0.00391       -0.06250        0.31250       -0.18750
 BRILLOUIN|   244           0.00391       -0.06250        0.31250       -0.06250
 BRILLOUIN|   245           0.00391       -0.06250        0.31250        0.06250
 BRILLOUIN|   246           0.00391       -0.06250        0.31250        0.18750
 BRILLOUIN|   247           0.00391       -0.06250        0.31250        0.31250
 BRILLOUIN|   248           0.00391       -0.06250        0.31250        0.43750
 BRILLOUIN|   249           0.00391       -0.06250        0.43750       -0.43750
 BRILLOUIN|   250           0.00391       -0.06250        0.43750       -0.31250
 BRILLOUIN|   251           0.00391       -0.06250        0.43750       -0.18750
 BRILLOUIN|   252           0.00391       -0.06250        0.43750       -0.06250
 BRILLOUIN|   253           0.00391       -0.06250        0.43750        0.06250
 BRILLOUIN|   254           0.00391       -0.06250        0.43750        0.18750
 BRILLOUIN|   255           0.00391       -0.06250        0.43750        0.31250
 BRILLOUIN|   256           0.00391       -0.06250        0.43750        0.43750
 *******************************************************************************

 *******************************************************************************
 *******************************************************************************
 **                                                                           **
 **     #####                         ##              ##                      **
 **    ##   ##            ##          ##              ##                      **
 **   ##     ##                       ##            ######                    **
 **   ##     ##  ##   ##  ##   #####  ##  ##   ####   ##    #####    #####    **
 **   ##     ##  ##   ##  ##  ##      ## ##   ##      ##   ##   ##  ##   ##   **
 **   ##  ## ##  ##   ##  ##  ##      ####     ###    ##   ######   ######    **
 **    ##  ###   ##   ##  ##  ##      ## ##      ##   ##   ##       ##        **
 **     #######   #####   ##   #####  ##  ##  ####    ##    #####   ##        **
 **           ##                                                    ##        **
 **                                                                           **
 **                                                ... make the atoms dance   **
 **                                                                           **
 **            Copyright (C) by CP2K developers group (2000-2025)             **
 **                      J. Chem. Phys. 152, 194103 (2020)                    **
 **                                                                           **
 *******************************************************************************

 DFT| Spin restricted Kohn-Sham (RKS) calculation                            RKS
 DFT| Multiplicity                                                             1
 DFT| Number of spin states                                                    1
 DFT| Charge                                                                   0
 DFT| Self-interaction correction (SIC)                                       NO
 DFT| Cutoffs: density                                              1.000000E-10
 DFT|          gradient                                             1.000000E-10
 DFT|          tau                                                  1.000000E-10
 DFT|          cutoff_smoothing_range                               0.000000E+00
 DFT| XC density smoothing                                                  NONE
 DFT| XC derivatives                                                          PW

 FUNCTIONAL| PBE:
 FUNCTIONAL| J.P.Perdew, K.Burke, M.Ernzerhof, Phys. Rev. Letter, vol. 77, n 18,
 FUNCTIONAL|  pp. 3865-3868, (1996) {spin unpolarized}                          


 QS| Method:                                                                 GPW
 QS| Density plane wave grid type                        NON-SPHERICAL FULLSPACE
 QS| Number of grid levels:                                                    4
 QS| Density cutoff [a.u.]:                                                500.0
 QS| Multi grid cutoff [a.u.]: 1) grid level                               500.0
 QS|                           2) grid level                               166.7
 QS|                           3) grid level                                55.6
 QS|                           4) grid level                                18.5
 QS| Grid level progression factor:                                          3.0
 QS| Relative density cutoff [a.u.]:                                        50.0
 QS| Interaction thresholds: eps_pgf_orb:                                1.0E-16
 QS|                         eps_filter_matrix:                          0.0E+00
 QS|                         eps_core_charge:                            1.0E-18
 QS|                         eps_rho_gspace:                             1.0E-16
 QS|                         eps_rho_rspace:                             1.0E-16
 QS|                         eps_gvg_rspace:                             1.0E-08
 QS|                         eps_ppl:                                    1.0E-02
 QS|                         eps_ppnl:                                   1.0E-10


 ATOMIC KIND INFORMATION

  1. Atomic kind: C                                     Number of atoms:       4

     Orbital Basis Set                                   TZV2P-MOLOPT-GGA-GTH-q4

       Number of orbital shell sets:                                           1
       Number of orbital shells:                                               9
       Number of primitive Cartesian functions:                                5
       Number of Cartesian basis functions:                                   34
       Number of spherical basis functions:                                   29
       Norm type:                                                              2

       Normalised Cartesian orbitals:

                        Set   Shell   Orbital            Exponent    Coefficient

                          1       1    2s                5.599010      -0.388516
                                                         2.008517      -0.222960
                                                         0.755557       0.256069
                                                         0.292158       0.177682
                                                         0.105328       0.019401

                          1       2    3s                5.599010       0.700337
                                                         2.008517       0.202467
                                                         0.755557      -0.073086
                                                         0.292158      -0.004274
                                                         0.105328       0.122810

                          1       3    4s                5.599010      -2.176345
                                                         2.008517      -0.220775
                                                         0.755557       0.109238
                                                         0.292158      -0.129517
                                                         0.105328       0.038801

                          1       4    3px               5.599010      -0.769001
                                                         2.008517      -0.634471
                                                         0.755557      -0.400220
                                                         0.292158      -0.124705
                                                         0.105328      -0.014325
                          1       4    3py               5.599010      -0.769001
                                                         2.008517      -0.634471
                                                         0.755557      -0.400220
                                                         0.292158      -0.124705
                                                         0.105328      -0.014325
                          1       4    3pz               5.599010      -0.769001
                                                         2.008517      -0.634471
                                                         0.755557      -0.400220
                                                         0.292158      -0.124705
                                                         0.105328      -0.014325

                          1       5    4px               5.599010       0.895802
                                                         2.008517       0.817480
                                                         0.755557       0.269326
                                                         0.292158       0.009009
                                                         0.105328      -0.085852
                          1       5    4py               5.599010       0.895802
                                                         2.008517       0.817480
                                                         0.755557       0.269326
                                                         0.292158       0.009009
                                                         0.105328      -0.085852
                          1       5    4pz               5.599010       0.895802
                                                         2.008517       0.817480
                                                         0.755557       0.269326
                                                         0.292158       0.009009
                                                         0.105328      -0.085852

                          1       6    5px               5.599010       1.029767
                                                         2.008517       2.903527
                                                         0.755557       0.336187
                                                         0.292158      -0.258025
                                                         0.105328       0.023472
                          1       6    5py               5.599010       1.029767
                                                         2.008517       2.903527
                                                         0.755557       0.336187
                                                         0.292158      -0.258025
                                                         0.105328       0.023472
                          1       6    5pz               5.599010       1.029767
                                                         2.008517       2.903527
                                                         0.755557       0.336187
                                                         0.292158      -0.258025
                                                         0.105328       0.023472

                          1       7    4dx2              5.599010      -4.629244
                                                         2.008517       1.670071
                                                         0.755557       0.309368
                                                         0.292158       0.124707
                                                         0.105328      -0.001260
                          1       7    4dxy              5.599010      -8.018085
                                                         2.008517       2.892648
                                                         0.755557       0.535841
                                                         0.292158       0.215998
                                                         0.105328      -0.002182
                          1       7    4dxz              5.599010      -8.018085
                                                         2.008517       2.892648
                                                         0.755557       0.535841
                                                         0.292158       0.215998
                                                         0.105328      -0.002182
                          1       7    4dy2              5.599010      -4.629244
                                                         2.008517       1.670071
                                                         0.755557       0.309368
                                                         0.292158       0.124707
                                                         0.105328      -0.001260
                          1       7    4dyz              5.599010      -8.018085
                                                         2.008517       2.892648
                                                         0.755557       0.535841
                                                         0.292158       0.215998
                                                         0.105328      -0.002182
                          1       7    4dz2              5.599010      -4.629244
                                                         2.008517       1.670071
                                                         0.755557       0.309368
                                                         0.292158       0.124707
                                                         0.105328      -0.001260

                          1       8    5dx2              5.599010      -0.765539
                                                         2.008517       0.044731
                                                         0.755557       0.033894
                                                         0.292158       0.006499
                                                         0.105328       0.031042
                          1       8    5dxy              5.599010      -1.325952
                                                         2.008517       0.077477
                                                         0.755557       0.058707
                                                         0.292158       0.011257
                                                         0.105328       0.053766
                          1       8    5dxz              5.599010      -1.325952
                                                         2.008517       0.077477
                                                         0.755557       0.058707
                                                         0.292158       0.011257
                                                         0.105328       0.053766
                          1       8    5dy2              5.599010      -0.765539
                                                         2.008517       0.044731
                                                         0.755557       0.033894
                                                         0.292158       0.006499
                                                         0.105328       0.031042
                          1       8    5dyz              5.599010      -1.325952
                                                         2.008517       0.077477
                                                         0.755557       0.058707
                                                         0.292158       0.011257
                                                         0.105328       0.053766
                          1       8    5dz2              5.599010      -0.765539
                                                         2.008517       0.044731
                                                         0.755557       0.033894
                                                         0.292158       0.006499
                                                         0.105328       0.031042

                          1       9    5fx3              5.599010      -0.150044
                                                         2.008517      -0.042629
                                                         0.755557       0.009866
                                                         0.292158       0.091648
                                                         0.105328       0.000020
                          1       9    5fx2y             5.599010      -0.335509
                                                         2.008517      -0.095321
                                                         0.755557       0.022061
                                                         0.292158       0.204931
                                                         0.105328       0.000045
                          1       9    5fx2z             5.599010      -0.335509
                                                         2.008517      -0.095321
                                                         0.755557       0.022061
                                                         0.292158       0.204931
                                                         0.105328       0.000045
                          1       9    5fxy2             5.599010      -0.335509
                                                         2.008517      -0.095321
                                                         0.755557       0.022061
                                                         0.292158       0.204931
                                                         0.105328       0.000045
                          1       9    5fxyz             5.599010      -0.581119
                                                         2.008517      -0.165100
                                                         0.755557       0.038210
                                                         0.292158       0.354951
                                                         0.105328       0.000078
                          1       9    5fxz2             5.599010      -0.335509
                                                         2.008517      -0.095321
                                                         0.755557       0.022061
                                                         0.292158       0.204931
                                                         0.105328       0.000045
                          1       9    5fy3              5.599010      -0.150044
                                                         2.008517      -0.042629
                                                         0.755557       0.009866
                                                         0.292158       0.091648
                                                         0.105328       0.000020
                          1       9    5fy2z             5.599010      -0.335509
                                                         2.008517      -0.095321
                                                         0.755557       0.022061
                                                         0.292158       0.204931
                                                         0.105328       0.000045
                          1       9    5fyz2             5.599010      -0.335509
                                                         2.008517      -0.095321
                                                         0.755557       0.022061
                                                         0.292158       0.204931
                                                         0.105328       0.000045
                          1       9    5fz3              5.599010      -0.150044
                                                         2.008517      -0.042629
                                                         0.755557       0.009866
                                                         0.292158       0.091648
                                                         0.105328       0.000020

       Atomic covalent radius [Angstrom]:                                  0.770

       Atomic van der Waals radius [Angstrom]:                             1.700

     GTH Potential information for                                    GTH-PBE-q4

       Description:                       Goedecker-Teter-Hutter pseudopotential
                                           Goedecker et al., PRB 54, 1703 (1996)
                                          Hartwigsen et al., PRB 58, 3641 (1998)
                                                      Krack, TCA 114, 145 (2005)

       Gaussian exponent of the core charge distribution:               4.364419
       Electronic configuration (s p d ...):                               2   2

       Parameters of the local part of the GTH pseudopotential:

                          rloc        C1          C2          C3          C4
                        0.338471   -8.803674    1.339211

       Parameters of the non-local part of the GTH (SOC) pseudopotential:

                   l      r(l)      h(i,j,l)
                                    k(i,j,l)
                   0    0.302576    9.622487
                   1    0.291507    0.000000
                                    0.002073


 MOLECULE KIND INFORMATION


 All atoms are their own molecule, skipping detailed information


 TOTAL NUMBERS AND MAXIMUM NUMBERS

  Total number of            - Atomic kinds:                                   1
                             - Atoms:                                          4
                             - Shell sets:                                     4
                             - Shells:                                        36
                             - Primitive Cartesian functions:                 20
                             - Cartesian basis functions:                    136
                             - Spherical basis functions:                    116

  Maximum angular momentum of- Orbital basis functions:                        3
                             - Local part of the GTH pseudopotential:          2
                             - Non-local part of the GTH pseudopotential:      1


 MODULE QUICKSTEP: ATOMIC COORDINATES IN ANGSTROM

   Atom Kind Element         X             Y             Z       Z(eff)     Mass
      1    1 C     6      0.000000      0.000000      2.210198   4.0000  12.0107
      2    1 C     6      0.000000      0.000000      6.630593   4.0000  12.0107
      3    1 C     6     -0.000012      1.425237      2.210198   4.0000  12.0107
      4    1 C     6      1.234297      0.712608      6.630593   4.0000  12.0107



 SCF PARAMETERS         Density guess:                                    ATOMIC
                        --------------------------------------------------------
                        max_scf:                                             500
                        max_scf_history:                                       0
                        max_diis:                                              4
                        --------------------------------------------------------
                        eps_scf:                                        1.00E-09
                        eps_scf_history:                                0.00E+00
                        eps_diis:                                       1.00E-01
                        eps_eigval:                                     1.00E-05
                        --------------------------------------------------------
                        level_shift [a.u.]:                             0.000000
                        added MOs                                       108    0
                        --------------------------------------------------------
                        Mixing method:                            BROYDEN_MIXING
                                                charge density mixing in g-space
                        --------------------------------------------------------
                        No outer SCF

 PW_GRID| Information for grid number                                          1
 PW_GRID| Grid distributed over                                     8 processors
 PW_GRID| Real space group dimensions                                     8    1
 PW_GRID| the grid is blocked:                                                NO
 PW_GRID| Cutoff [a.u.]                                                    500.0
 PW_GRID| spherical cutoff:                                                   NO
 PW_GRID|   Bounds   1            -24      23                Points:          48
 PW_GRID|   Bounds   2            -24      23                Points:          48
 PW_GRID|   Bounds   3            -90      89                Points:         180
 PW_GRID| Volume element (a.u.^3)  0.7592E-03     Volume (a.u.^3)       314.8540
 PW_GRID| Grid span                                                    FULLSPACE
 PW_GRID|   Distribution                         Average         Max         Min
 PW_GRID|   G-Vectors                            51840.0       51840       51840
 PW_GRID|   G-Rays                                1080.0        1080        1080
 PW_GRID|   Real Space Points                    51840.0       51840       51840

 PW_GRID| Information for grid number                                          2
 PW_GRID| Number of the reference grid                                         1
 PW_GRID| Grid distributed over                                     8 processors
 PW_GRID| Real space group dimensions                                     8    1
 PW_GRID| the grid is blocked:                                                NO
 PW_GRID| Cutoff [a.u.]                                                    166.7
 PW_GRID| spherical cutoff:                                                   NO
 PW_GRID|   Bounds   1            -13      13                Points:          27
 PW_GRID|   Bounds   2            -13      13                Points:          27
 PW_GRID|   Bounds   3            -50      49                Points:         100
 PW_GRID| Volume element (a.u.^3)  0.4319E-02     Volume (a.u.^3)       314.8540
 PW_GRID| Grid span                                                    FULLSPACE
 PW_GRID|   Distribution                         Average         Max         Min
 PW_GRID|   G-Vectors                             9112.5       10152        7128
 PW_GRID|   G-Rays                                 337.5         376         264
 PW_GRID|   Real Space Points                     9112.5       10800        8100

 PW_GRID| Information for grid number                                          3
 PW_GRID| Number of the reference grid                                         1
 PW_GRID| Grid distributed over                                     8 processors
 PW_GRID| Real space group dimensions                                     8    1
 PW_GRID| the grid is blocked:                                                NO
 PW_GRID| Cutoff [a.u.]                                                     55.6
 PW_GRID| spherical cutoff:                                                   NO
 PW_GRID|   Bounds   1             -7       7                Points:          15
 PW_GRID|   Bounds   2             -7       7                Points:          15
 PW_GRID|   Bounds   3            -30      29                Points:          60
 PW_GRID| Volume element (a.u.^3)  0.2332E-01     Volume (a.u.^3)       314.8540
 PW_GRID| Grid span                                                    FULLSPACE
 PW_GRID|   Distribution                         Average         Max         Min
 PW_GRID|   G-Vectors                             1687.5        1725        1560
 PW_GRID|   G-Rays                                 112.5         115         104
 PW_GRID|   Real Space Points                     1687.5        1800         900

 PW_GRID| Information for grid number                                          4
 PW_GRID| Number of the reference grid                                         1
 PW_GRID| Grid distributed over                                     8 processors
 PW_GRID| Real space group dimensions                                     8    1
 PW_GRID| the grid is blocked:                                                NO
 PW_GRID| Cutoff [a.u.]                                                     18.5
 PW_GRID| spherical cutoff:                                                   NO
 PW_GRID|   Bounds   1             -4       4                Points:           9
 PW_GRID|   Bounds   2             -4       4                Points:           9
 PW_GRID|   Bounds   3            -18      17                Points:          36
 PW_GRID| Volume element (a.u.^3)  0.1080         Volume (a.u.^3)       314.8540
 PW_GRID| Grid span                                                    FULLSPACE
 PW_GRID|   Distribution                         Average         Max         Min
 PW_GRID|   G-Vectors                              364.5         396         342
 PW_GRID|   G-Rays                                  40.5          44          38
 PW_GRID|   Real Space Points                      364.5         648         324

 POISSON| Solver                                                        PERIODIC
 POISSON| Periodicity                                                        XYZ

 RS_GRID| Information for grid number                                          1
 RS_GRID|   Bounds   1            -24      23                Points:          48
 RS_GRID|   Bounds   2            -24      23                Points:          48
 RS_GRID|   Bounds   3            -90      89                Points:         180
 RS_GRID| Real space fully replicated
 RS_GRID| Group size                                                           1

 RS_GRID| Information for grid number                                          2
 RS_GRID|   Bounds   1            -13      13                Points:          27
 RS_GRID|   Bounds   2            -13      13                Points:          27
 RS_GRID|   Bounds   3            -50      49                Points:         100
 RS_GRID| Real space fully replicated
 RS_GRID| Group size                                                           1

 RS_GRID| Information for grid number                                          3
 RS_GRID|   Bounds   1             -7       7                Points:          15
 RS_GRID|   Bounds   2             -7       7                Points:          15
 RS_GRID|   Bounds   3            -30      29                Points:          60
 RS_GRID| Real space fully replicated
 RS_GRID| Group size                                                           1

 RS_GRID| Information for grid number                                          4
 RS_GRID|   Bounds   1             -4       4                Points:           9
 RS_GRID|   Bounds   2             -4       4                Points:           9
 RS_GRID|   Bounds   3            -18      17                Points:          36
 RS_GRID| Real space fully replicated
 RS_GRID| Group size                                                           1

 Number of electrons:                                                         16
 Number of occupied orbitals:                                                  8
 Number of molecular orbitals:                                               116

 Number of orbital functions:                                                116
 Number of independent orbital functions:                                    116

 Extrapolation method: initial_guess

 Atomic guess: The first density matrix is obtained in terms of atomic orbitals
               and electronic configurations assigned to each atomic kind

 Guess for atomic kind: C

 Electronic structure
    Total number of core electrons                                          2.00
    Total number of valence electrons                                       4.00
    Total number of electrons                                               6.00
    Multiplicity                                                   not specified
    S   [  2.00] 2.00
    P      2.00


 *******************************************************************************
                  Iteration          Convergence                     Energy [au]
 *******************************************************************************
                          1        0.117937                      -5.273052063679
                          2        0.812786E-01                  -5.277633847598
                          3        0.376706E-03                  -5.281806329871
                          4        0.116560E-03                  -5.281806372930
                          5        0.136223E-06                  -5.281806380636

 Energy components [Hartree]           Total Energy ::           -5.281806380636
                                        Band Energy ::           -1.313906521103
                                     Kinetic Energy ::            3.393378272153
                                   Potential Energy ::           -8.675184652789
                                      Virial (-V/T) ::            2.556503860468
                                        Core Energy ::           -8.293909207386
                                          XC Energy ::           -1.378342305436
                                     Coulomb Energy ::            4.390445132186
                       Total Pseudopotential Energy ::          -11.721808617052
                       Local Pseudopotential Energy ::          -12.386096381424
                    Nonlocal Pseudopotential Energy ::            0.664287764373
                                        Confinement ::            0.345211375128

 Orbital energies  State     L     Occupation   Energy[a.u.]          Energy[eV]

                       1     0          2.000      -0.483426          -13.154677

                       1     1          2.000      -0.173528           -4.721930


 Total Electron Density at R=0:                                         0.000018
 Re-scaling the density matrix to get the right number of electrons
                  # Electrons              Trace(P)               Scaling factor
                           16                16.000                        1.000


 SCF WAVEFUNCTION OPTIMIZATION

  Step     Update method      Time    Convergence         Total energy    Change
  ------------------------------------------------------------------------------
     1 NoMix/Diag. 0.50E-01    5.6     0.80804714       -22.9121484854 -2.29E+01
     2 Broy./Diag. 0.50E-01    5.7     0.00345253       -20.5136566457  2.40E+00
     3 Broy./Diag. 0.50E-01    5.7     0.08868843       -21.9210420374 -1.41E+00
     4 Broy./Diag. 0.50E-01    5.7     0.00066215       -22.5824063704 -6.61E-01
     5 Broy./Diag. 0.50E-01    5.7     0.01516506       -22.5990875334 -1.67E-02
     6 Broy./Diag. 0.50E-01    5.7     0.00072787       -22.7086324061 -1.10E-01
     7 Broy./Diag. 0.50E-01    5.7     0.00743346       -22.7313405276 -2.27E-02
     8 Broy./Diag. 0.50E-01    5.7     0.00025550       -22.7765421328 -4.52E-02
     9 Broy./Diag. 0.50E-01    5.7     0.00219234       -22.7799498544 -3.41E-03
    10 Broy./Diag. 0.50E-01    5.7     0.00008744       -22.7846766444 -4.73E-03
    11 Broy./Diag. 0.50E-01    5.7     0.00060230       -22.7822519543  2.42E-03
    12 Broy./Diag. 0.50E-01    5.7     0.00011355       -22.7814577263  7.94E-04
    13 Broy./Diag. 0.50E-01    5.7     0.00002092       -22.7813402379  1.17E-04
    14 Broy./Diag. 0.50E-01    5.7     0.00015840       -22.7816561479 -3.16E-04
    15 Broy./Diag. 0.50E-01    5.7     0.00000328       -22.7817195645 -6.34E-05
    16 Broy./Diag. 0.50E-01    5.7     0.00003490       -22.7817478120 -2.82E-05
    17 Broy./Diag. 0.50E-01    5.7     0.00000502       -22.7817585973 -1.08E-05
    18 Broy./Diag. 0.50E-01    5.7     0.00002448       -22.7817654739 -6.88E-06
    19 Broy./Diag. 0.50E-01    5.7     0.00000688       -22.7817608651  4.61E-06
    20 Broy./Diag. 0.50E-01    5.7     0.00000458       -22.7817503239  1.05E-05
    21 Broy./Diag. 0.50E-01    5.7     0.00000074       -22.7817432774  7.05E-06
    22 Broy./Diag. 0.50E-01    5.7     0.00000432       -22.7817463793 -3.10E-06
    23 Broy./Diag. 0.50E-01    5.7     0.00000396       -22.7817520277 -5.65E-06
    24 Broy./Diag. 0.50E-01    5.7     0.00000053       -22.7817538536 -1.83E-06
    25 Broy./Diag. 0.50E-01    5.7     0.00000064       -22.7817534126  4.41E-07
    26 Broy./Diag. 0.50E-01    5.7     0.00000171       -22.7817531873  2.25E-07
    27 Broy./Diag. 0.50E-01    5.7     0.00000141       -22.7817532897 -1.02E-07
    28 Broy./Diag. 0.50E-01    5.7     0.00000185       -22.7817529023  3.87E-07
    29 Broy./Diag. 0.50E-01    5.7     0.00000041       -22.7817509130  1.99E-06
    30 Broy./Diag. 0.50E-01    5.7     0.00000026       -22.7817507103  2.03E-07
    31 Broy./Diag. 0.50E-01    5.7     0.00000069       -22.7817508008 -9.06E-08
    32 Broy./Diag. 0.50E-01    5.7     0.00000051       -22.7817508655 -6.46E-08
    33 Broy./Diag. 0.50E-01    5.7     0.00000020       -22.7817508568  8.68E-09
    34 Broy./Diag. 0.50E-01    5.7     0.00000003       -22.7817509051 -4.83E-08
    35 Broy./Diag. 0.50E-01    5.7     0.00000024       -22.7817509594 -5.43E-08
    36 Broy./Diag. 0.50E-01    5.7     0.00000007       -22.7817509021  5.73E-08
    37 Broy./Diag. 0.50E-01    5.7     1.4793E-09       -22.7817508384  6.37E-08
    38 Broy./Diag. 0.50E-01    5.7     0.00000008       -22.7817508055  3.29E-08
    39 Broy./Diag. 0.50E-01    5.7     0.00000002       -22.7817507923  1.32E-08
    40 Broy./Diag. 0.50E-01    5.7     0.00000001       -22.7817507856  6.63E-09
    41 Broy./Diag. 0.50E-01    5.7     8.0259E-09       -22.7817507785  7.19E-09
    42 Broy./Diag. 0.50E-01    5.7     8.8199E-09       -22.7817507720  6.42E-09
    43 Broy./Diag. 0.50E-01    5.7     2.5904E-09       -22.7817507662  5.84E-09
    44 Broy./Diag. 0.50E-01    5.7     2.4021E-09       -22.7817507650  1.21E-09
    45 Broy./Diag. 0.50E-01    5.7     4.0824E-09       -22.7817507637  1.32E-09
    46 Broy./Diag. 0.50E-01    5.7     2.0278E-09       -22.7817507636  9.23E-11
    47 Broy./Diag. 0.50E-01    5.7     2.0239E-09       -22.7817507673 -3.70E-09
    48 Broy./Diag. 0.50E-01    5.7     1.7722E-09       -22.7817507692 -1.88E-09
    49 Broy./Diag. 0.50E-01    5.7     2.9755E-09       -22.7817507683  8.71E-10
    50 Broy./Diag. 0.50E-01    5.7     2.3632E-09       -22.7817507669  1.38E-09
    51 Broy./Diag. 0.50E-01    5.7     1.6050E-09       -22.7817507666  2.99E-10
    52 Broy./Diag. 0.50E-01    5.7     1.7777E-09       -22.7817507664  1.83E-10
    53 Broy./Diag. 0.50E-01    5.7     3.8717E-10       -22.7817507657  7.71E-10

  *** SCF run converged in    53 steps ***


  Electronic density on regular grids:        -16.0000000000       -0.0000000000
  Core density on regular grids:               16.0000000000        0.0000000000
  Total charge density on r-space grids:       -0.0000000000
  Total charge density g-space grids:          -0.0000000000

  Overlap energy of the core charge distribution:               0.00000065508197
  Self energy of the core charge distribution:                -53.34003170706085
  Core Hamiltonian energy:                                     16.71198121410843
  Hartree energy:                                              20.84814547092274
  Exchange-correlation energy:                                 -7.00184639870407

  Total energy:                                               -22.78175076565178

 !-----------------------------------------------------------------------------!
                     Mulliken Population Analysis

 #  Atom  Element  Kind  Atomic population                           Net charge
       1     C        1          4.003006                             -0.003006
       2     C        1          4.003006                             -0.003006
       3     C        1          3.996994                              0.003006
       4     C        1          3.996994                              0.003006
 # Total charge                             16.000000                  0.000000

 !-----------------------------------------------------------------------------!

 !-----------------------------------------------------------------------------!
                           Hirshfeld Charges

  #Atom  Element  Kind  Ref Charge     Population                    Net charge
      1       C      1       4.000          4.000                         0.000
      2       C      1       4.000          4.000                         0.000
      3       C      1       4.000          4.000                        -0.000
      4       C      1       4.000          4.000                        -0.000

  Total Charge                                                           -0.000
 !-----------------------------------------------------------------------------!

 KPOINTS| Band Structure Calculation
 KPOINTS| Number of k-point sets                                               1
 KPOINTS| Number of added MOs/bands                                           -1
 KPOINTS| Number of k-points in set    1                                     148
 KPOINTS| In units of b-vector [2pi/Bohr]
 KPOINTS| Special point     1 not specifi     0.000000     0.000000     0.000000
 KPOINTS| Special point     2 not specifi     0.500000     0.000000     0.000000
 KPOINTS| Special point     3 not specifi     0.333333     0.333333     0.000000
 KPOINTS| Special point     4 not specifi     0.000000     0.000000     0.000000
 KPOINTS| Time for k-point line                                            2.318

 ENERGY| Total FORCE_EVAL ( QS ) energy [hartree]            -22.781750765651775

 -------------------------------------------------------------------------------
 -                                                                             -
 -                                DBCSR STATISTICS                             -
 -                                                                             -
 -------------------------------------------------------------------------------
 COUNTER                                    TOTAL       BLAS       SMM       ACC
 flops inhomo. stacks                           0       0.0%      0.0%      0.0%
 flops total                         0.000000E+00       0.0%      0.0%      0.0%
 flops max/rank                      0.000000E+00       0.0%      0.0%      0.0%
 matmuls inhomo. stacks                         0       0.0%      0.0%      0.0%
 matmuls total                                  0       0.0%      0.0%      0.0%
 number of processed stacks                     0       0.0%      0.0%      0.0%
 average stack size                                     0.0       0.0       0.0
 marketing flops                     0.000000E+00
 -------------------------------------------------------------------------------
 -                                                                             -
 -                      DBCSR MESSAGE PASSING PERFORMANCE                      -
 -                                                                             -
 -------------------------------------------------------------------------------
 ROUTINE             CALLS      AVE VOLUME [Bytes]
 MP_Bcast                1                     12.
 MP_Allreduce           19                     21.
 MP_Alltoall       1162492                   6071.
 -------------------------------------------------------------------------------

 -------------------------------------------------------------------------------
 -                                                                             -
 -                                DBM STATISTICS                               -
 -                                                                             -
 -------------------------------------------------------------------------------
    M  x    N  x    K                                          COUNT     PERCENT
 -------------------------------------------------------------------------------

 -------------------------------------------------------------------------------
 -                                                                             -
 -                                GRID STATISTICS                              -
 -                                                                             -
 -------------------------------------------------------------------------------
 LP    KERNEL             BACKEND                              COUNT     PERCENT
 6     collocate general  CPU                                1130220      50.47%
 6     integrate general  CPU                                1109290      49.53%
 0     collocate general  CPU                                      8       0.00%
 0     integrate general  CPU                                      4       0.00%
 -------------------------------------------------------------------------------

 MEMORY| Estimated peak process memory [MiB]                                 431

 -------------------------------------------------------------------------------
 ----                             MULTIGRID INFO                            ----
 -------------------------------------------------------------------------------
 count for grid        1:          30628          cutoff [a.u.]          500.00
 count for grid        2:          24172          cutoff [a.u.]          166.67
 count for grid        3:          35758          cutoff [a.u.]           55.56
 count for grid        4:          10992          cutoff [a.u.]           18.52
 total gridlevel count  :         101550

 -------------------------------------------------------------------------------
 -                                                                             -
 -                         MESSAGE PASSING PERFORMANCE                         -
 -                                                                             -
 -------------------------------------------------------------------------------

 ROUTINE             CALLS      AVE VOLUME [Bytes]
 MP_Group                6
 MP_Bcast           493124                   8797.
 MP_Allreduce       177377                     82.
 MP_Sync                 4
 MP_Alltoall           959                2286961.
 MP_SendRecv          1526                 132786.
 MP_ISendRecv         1491                 131512.
 MP_Wait            339815
 MP_comm_split           4
 MP_ISend           359564                   3080.
 MP_IRecv           574592                   1930.
 -------------------------------------------------------------------------------


 -------------------------------------------------------------------------------
 -                                                                             -
 -                           R E F E R E N C E S                               -
 -                                                                             -
 -------------------------------------------------------------------------------
 
 CP2K version 2025.1 (Development Version), the CP2K developers group (2025).
 CP2K is freely available from https://www.cp2k.org/ .
 
 T. D. Kuehne, M. Iannuzzi, M. Del Ben, V. V. Rybkin, P. Seewald, F. Stein, T. 
 Laino, R. Z. Khaliullin, O. Schuett, F. Schiffmann, D. Golze, J. Wilhelm, S. 
 Chulkov, M. H. Bani-Hashemian, V. Weber, U. Borstnik, M. Taillefumier, A. S. 
 Jakobovits, A. Lazzaro, H. Pabst, T. Mueller, R. Schade, M. Guidon, S. 
 Andermatt, N. Holmberg, G. K. Schenter, A. Hehn, A. Bussy, F. Belleflamme, G. 
 Tabacchi, A. Gloess, M. Lass, I. Bethune, C. J. Mundy, C. Plessl, M. Watkins, 
 J. VandeVondele, M. Krack, J. Hutter.
 J. Chem. Phys. 152, 194103 (2020).
 CP2K: An electronic structure and molecular dynamics software package - 
 Quickstep: Efficient and accurate electronic structure calculations.
 https://doi.org/10.1063/5.0007045

 O. Schuett, P. Messmer, J. Hutter, J. VandeVondele.
 Electronic Structure Calculations on Graphics Processing Units, 173-190 (2016).
 GPU-Accelerated Sparse Matrix-Matrix Multiplication for Linear Scaling Density 
 Functional Theory.
 https://doi.org/10.1002/9781118670712.ch8

 J. Hutter, M. Iannuzzi, F. Schiffmann, J. VandeVondele.
 WIREs Comput Mol Sci. 4, 15-25 (2014).
 CP2K: atomistic simulations of condensed matter systems.
 https://doi.org/10.1002/wcms.1159

 U. Borstnik, J. VandeVondele, V. Weber, J. Hutter.
 Parallel Comput. 40, 47-58 (2014).
 Sparse matrix multiplication: The distributed block-compressed sparse row 
 library.
 https://doi.org/10.1016/j.parco.2014.03.012

 J. VandeVondele, J. Hutter.
 J. Chem. Phys. 127, 114105 (2007).
 Gaussian basis sets for accurate calculations on molecular systems in gas and 
 condensed phases.
 https://doi.org/10.1063/1.2770708

 J. VandeVondele, M. Krack, F. Mohamed, M. Parrinello, T. Chassaing, J. Hutter.
 Comput. Phys. Commun. 167, 103-128 (2005).
 QUICKSTEP: Fast and accurate density functional calculations using a mixed 
 Gaussian and plane waves approach.
 https://doi.org/10.1016/j.cpc.2004.12.014

 M. Krack.
 Theor. Chem. Acc. 114, 145-152 (2005).
 Pseudopotentials for H to Kr optimized for gradient-corrected 
 exchange-correlation functionals.
 https://doi.org/10.1007/s00214-005-0655-y

 M. Frigo, S. G. Johnson.
 Proc. IEEE 93, 216-231 (2005).
 The design and implementation of FFTW3.
 https://doi.org/10.1109/JPROC.2004.840301

 C. Hartwigsen, S. Goedecker, J. Hutter.
 Phys. Rev. B 58, 3641-3662 (1998).
 Relativistic separable dual-space Gaussian pseudopotentials from H to Rn.
 https://doi.org/10.1103/PhysRevB.58.3641

 G. Lippert, J. Hutter, M. Parrinello.
 Mol. Phys. 92, 477-487 (1997).
 A hybrid Gaussian and plane wave density functional scheme.
 https://doi.org/10.1080/002689797170220

 S. Goedecker, M. Teter, J. Hutter.
 Phys. Rev. B 54, 1703-1710 (1996).
 Separable dual-space Gaussian pseudopotentials.
 https://doi.org/10.1103/PhysRevB.54.1703

 J. P. Perdew, K. Burke, M. Ernzerhof.
 Phys. Rev. Lett. 77, 3865-3868 (1996).
 Generalized gradient approximation made simple.
 https://doi.org/10.1103/PhysRevLett.77.3865


 -------------------------------------------------------------------------------
 -                                                                             -
 -                                T I M I N G                                  -
 -                                                                             -
 -------------------------------------------------------------------------------
 SUBROUTINE                       CALLS  ASD         SELF TIME        TOTAL TIME
                                MAXIMUM       AVERAGE  MAXIMUM  AVERAGE  MAXIMUM
 CP2K                                 1  1.0    0.013    0.016  309.214  309.214
 qs_energies                          1  2.0    0.010    0.050  308.046  308.069
 scf_env_do_scf                       1  3.0    0.000    0.000  304.511  304.511
 scf_env_do_scf_inner_loop           53  4.0    0.056    0.057  304.511  304.511
 do_general_diag_kp                  54  5.9    0.346    0.354  280.308  281.837
 qs_scf_new_mos_kp                   53  5.0    0.000    0.001  278.052  279.572
 rskp_transform                   27432  7.0   87.151  141.878   87.151  141.878
 mp_alltoall_i22                 198370  8.8   87.663  118.329   87.663  118.329
 dbcsr_desymmetrize_deep         113049  7.5    2.032    2.110   71.827   93.366
 kpoint_density_transform            53  7.0    0.152    0.155   80.989   81.094
 transform_dmat                   13568  8.0   41.007   66.619   41.007   66.619
 dbcsr_complete_redistribute      85321  8.3    3.409    3.491   52.012   61.045
 copy_fm_to_dbcsr                 27136  8.0    0.173    0.176   33.489   42.293
 copy_dbcsr_to_fm                 58185  6.9    0.642    0.661   29.979   30.496
 qs_ks_update_qs_env                 53  5.0    0.000    0.000   10.992   15.334
 rebuild_ks_matrix                   53  6.0    0.000    0.000    9.025   13.366
 qs_ks_build_kohn_sham_matrix        53  7.0    0.102    0.103    9.025   13.366
 sum_up_and_integrate                53  8.0    0.001    0.001    7.664   12.012
 integrate_v_rspace                  53  9.0    0.125    0.196    7.662   12.010
 cp_fm_start_copy_general         82000  7.3    2.082    2.608   11.832   11.931
 grid_integrate_task_list            53 10.0    7.162   11.431    7.162   11.431
 qs_rho_update_rho_low               54  5.0    0.000    0.000   10.442   10.488
 calculate_rho_elec                  54  6.0    0.041    0.061   10.442   10.488
 grid_collocate_task_list            54  7.0    6.283    9.866    6.283    9.866
 cp_cfm_geeig                      1733  6.9    0.015    0.016    8.970    9.065
 dbcsr_finalize                  216722  8.6    1.002    1.076    7.295    7.775
 mp_alltoall_d11v                595110  9.4    7.132    7.444    7.132    7.444
 cp_cfm_heevd                      1733  7.9    0.003    0.003    6.818    6.889
 cp_cfm_heevd_base                 1733  8.9    6.816    6.886    6.816    6.886
 mp_allgather_i                  164000  8.3    6.579    6.799    6.579    6.799
 transfer_rs2pw                     218  8.0    0.003    0.003    4.103    5.465
 density_rs2pw                       54  7.0    0.002    0.002    4.114    5.413
 transfer_rs2pw_500                  56  8.9    0.094    0.097    4.032    5.392
 mp_sendrecv_dv                    1526 10.0    3.986    5.348    3.986    5.348
 mp_cart_sub                     116372  8.9    4.716    4.733    4.716    4.733
 dbcsr_merge_all                  85321 10.3    2.187    2.546    4.088    4.502
 hybrid_alltoall_any             113049  8.5    0.480    0.485    4.148    4.274
 mp_alltoall_i11v                369012  9.0    3.640    3.757    3.640    3.757
 write_kpoints_restart               53  5.0    0.012    0.018    2.949    2.950
 mp_cart_create                   58192  8.9    2.795    2.850    2.795    2.850
 mp_bcast_iv                     328154  8.3    1.947    2.203    1.947    2.203
 dbcsr_work_create               198370  8.8    1.184    1.208    2.052    2.077
 dbcsr_create_new                409157  8.1    1.629    1.684    1.964    2.017
 evaluate_core_matrix_traces         53  6.0    0.000    0.000    1.967    1.967
 calculate_ptrace_kp                106  7.0    0.089    0.091    1.967    1.967
 dbcsr_dot                       117343  8.0    0.725    0.882    1.941    1.964
 dbcsr_copy                      145585  7.0    0.825    0.874    1.548    1.656
 dbcsr_iterator_start            715670  8.9    1.332    1.361    1.583    1.613
 cp_fm_finish_copy_general        34068  7.8    1.470    1.491    1.540    1.564
 dbcsr_work_destroy_all          198370  9.8    0.943    0.953    1.510    1.527
 tree_to_linear_d                 85321 11.3    1.433    1.490    1.433    1.490
 dbcsr_data_new                 2137906  9.7    1.413    1.468    1.413    1.468
 copy_dbcsr_to_fm_bc              58185  7.9    0.642    0.658    1.346    1.389
 copy_fm_to_dbcsr_bc              27136  9.0    0.394    0.410    1.336    1.379
 cp_cfm_triangular_multiply        5199  7.9    1.275    1.291    1.275    1.291
 cp_fm_write_unformatted           3321  6.0    0.729    1.160    0.858    1.283
 dbcsr_data_release             3079674 10.1    1.235    1.266    1.235    1.266
 self_consistency_check              53  5.0    0.084    0.086    1.183    1.221
 dbcsr_iterator_stop             715670  8.9    0.850    0.868    1.010    1.027
 mp_sum_d                        118189  9.0    0.933    1.021    0.933    1.021
 cp_sm_mix                        58671  6.0    0.286    0.371    0.965    1.018
 create_qs_kind_set                   1  2.0    0.000    0.000    1.004    1.004
 read_qs_kind                         1  3.0    0.613    0.619    1.004    1.004
 fft_wrap_pw1pw2                    959 10.0    0.008    0.009    0.917    0.966
 kpoint_density_matrices             53  7.0    0.040    0.042    0.932    0.960
 dbcsr_destroy                   291815  8.2    0.501    0.511    0.919    0.958
 parallel_gemm_fm                  6784  8.0    0.006    0.006    0.861    0.888
 parallel_gemm_fm_gemm             6784  9.0    0.006    0.007    0.855    0.882
 fft_wrap_pw1pw2_500                638 11.3    0.058    0.060    0.832    0.878
 cp_fm_gemm                        6784 10.0    0.849    0.875    0.849    0.875
 fft3d_ps                           959 12.0    0.277    0.281    0.750    0.802
 qs_energies_init_hamiltonians        1  3.0    0.000    0.000    0.679    0.679
 mp_bcast_im                     164000  8.3    0.602    0.678    0.602    0.678
 cp_dbcsr_alloc_block_from_nbl     8069  5.1    0.343    0.534    0.422    0.646
 quick_finalize                  113049  9.5    0.359    0.363    0.627    0.629
 mp_max_d                         58673  7.0    0.545    0.625    0.545    0.625
 dbcsr_copy_into_existing         28243  9.8    0.350    0.455    0.515    0.622
 dbcsr_set                       264382  7.7    0.251    0.256    0.495    0.601
 qs_vxc_create                       53  8.0    0.001    0.001    0.598    0.600
 xc_vxc_pw_create                    53  9.0    0.024    0.024    0.598    0.599
 mp_waitall_1                    339815  8.3    0.325    0.585    0.325    0.585
 gspace_mixing                       52  5.0    0.020    0.020    0.548    0.548
 build_core_hamiltonian_matrix        1  4.0    0.004    0.004    0.365    0.546
 mp_send_dv                        3321  7.0    0.114    0.519    0.114    0.519
 mp_alltoall_z22v                   959 14.0    0.402    0.460    0.402    0.460
 mp_comm_free                    174600  8.9    0.439    0.459    0.439    0.459
 broyden_mixing                      52  6.0    0.439    0.449    0.454    0.456
 parser_read_line                133956  4.0    0.044    0.046    0.449    0.453
 cp_cfm_cholesky_decompose         1733  7.9    0.425    0.436    0.425    0.436
 mp_isend_dv                      82592  8.3    0.399    0.424    0.399    0.424
 potential_pw2rs                     53 10.0    0.003    0.003    0.375    0.422
 parser_read_line_low               153  5.2    0.048    0.202    0.404    0.408
 cp_cfm_triangular_invert          1733  7.9    0.384    0.388    0.384    0.388
 xc_pw_derive                       318 11.0    0.001    0.001    0.387    0.388
 kpoint_set_mo_occupation            53  7.0    0.131    0.132    0.290    0.384
 broadcast_input_information        153  6.2    0.099    0.103    0.356    0.383
 dbcsr_zero                      264382  8.7    0.244    0.345    0.244    0.345
 qs_env_update_s_mstruct              1  4.0    0.000    0.000    0.269    0.329
 xc_rho_set_and_dset_create          53 10.0    0.014    0.014    0.317    0.318
 init_scf_run                         1  3.0    0.000    0.000    0.289    0.311
 scf_env_initial_rho_setup            1  4.0    0.000    0.000    0.289    0.311
 dbcsr_reserve_blocks             35205  9.9    0.227    0.266    0.262    0.303
 x_to_yz                            530 13.2    0.043    0.046    0.259    0.265
 calculate_rho_core                   1  5.0    0.001    0.001    0.191    0.263
 dbcsr_iterator_seek             715670  9.9    0.251    0.262    0.251    0.262
 yz_to_x                            429 12.8    0.022    0.023    0.208    0.260
 mp_sum_dm3                          53  8.0    0.159    0.255    0.159    0.255
 xc_pw_divergence                    53 10.0    0.001    0.001    0.252    0.253
 dbcsr_sort_indices              233575 10.8    0.240    0.247    0.240    0.247
 dbcsr_reserve_all_blocks         27136 10.0    0.047    0.050    0.235    0.244
 transfer_pw2rs                     213 11.0    0.001    0.001    0.236    0.237
 dbcsr_make_index_exist          409157  9.1    0.218    0.223    0.218    0.223
 mixing_allocate                      1  3.0    0.006    0.006    0.133    0.197
 dbcsr_data_copy_aa2              85321 11.3    0.169    0.195    0.169    0.195
 merge_index                      85321 11.3    0.166    0.185    0.166    0.185
 transfer_pw2rs_500                  54 11.9    0.093    0.103    0.174    0.178
 mp_bcast_i_src                     612  7.2    0.144    0.169    0.144    0.169
 mp_irecv_iv                     328000  8.3    0.021    0.165    0.021    0.165
 cp_cfm_scale_and_add_fm           6932  6.9    0.146    0.150    0.146    0.150
 dbcsr_switch_data_area          113049 10.5    0.102    0.104    0.134    0.135
 cp_fm_cleanup_copy_general       58256  7.0    0.087    0.087    0.131    0.132
 mp_bcast_am_src                    153  7.2    0.100    0.107    0.111    0.124
 mp_recv_dv                        9963  7.0    0.015    0.123    0.015    0.123
 build_overlap_matrix_low             1  5.0    0.019    0.027    0.081    0.120
 build_kinetic_matrix_low             1  5.0    0.018    0.026    0.079    0.117
 mp_isend_iv                     184648  8.3    0.030    0.112    0.030    0.112
 build_core_ppl                       1  5.0    0.068    0.110    0.068    0.110
 qs_env_rebuild_rho                   1  5.0    0.000    0.000    0.067    0.098
 qs_rho_rebuild                       1  6.0    0.003    0.003    0.067    0.098
 xc_functional_eval                  53 11.0    0.000    0.000    0.097    0.098
 pbe_lda_eval                        53 12.0    0.096    0.097    0.096    0.097
 calculate_first_density_matrix       1  5.0    0.001    0.001    0.070    0.091
 calculate_atomic_block_dm            1  6.0    0.001    0.001    0.066    0.088
 mp_irecv_im2                    164000  8.3    0.010    0.079    0.010    0.079
 dbcsr_distribution_new           85323  8.6    0.077    0.078    0.077    0.078
 dbcsr_get_data_size_used        198370  9.8    0.068    0.073    0.068    0.073
 build_core_ppnl                      1  5.0    0.048    0.073    0.048    0.073
 mp_sum_dv                          348  3.6    0.034    0.066    0.034    0.066
 dbcsr_make_dbcsr_index          233575 10.8    0.063    0.066    0.063    0.066
 topology_control                     1  2.0    0.000    0.000    0.063    0.063
 transfer_rs2pw_170                  54  9.0    0.014    0.015    0.050    0.057
 cp_cfm_to_cfm_columns             1733  7.9    0.052    0.056    0.052    0.056
 pw_scatter_p                       530 12.2    0.055    0.056    0.055    0.056
 cp_cfm_to_fm                      1733  6.9    0.054    0.054    0.054    0.054
 calculate_ecore_overlap              1  4.0    0.000    0.000    0.038    0.052
 pw_poisson_solve                    53  8.0    0.001    0.001    0.051    0.052
 mp_isend_im2                     92324  8.3    0.013    0.051    0.013    0.051
 mp_isendrecv_dv                   1491 13.0    0.022    0.051    0.022    0.051
 fft_wrap_pw1pw2_170                107 10.5    0.003    0.003    0.047    0.050
 mp_irecv_dv                      82592  8.3    0.048    0.049    0.048    0.049
 transfer_pw2rs_170                  53 12.0    0.014    0.015    0.042    0.046
 restraint_control                    1  2.0    0.000    0.000    0.023    0.045
 mp_sum_i                             4  2.8    0.023    0.045    0.023    0.045
 read_cell_cif                        2  4.5    0.002    0.004    0.043    0.044
 mp_sum_iv                           24  5.3    0.032    0.044    0.032    0.044
 qs_scf_ensure_work_matrices          1  3.0    0.000    0.000    0.032    0.043
 coordinate_control                   1  3.0    0.000    0.001    0.038    0.038
 coordinate_control_READ_COORDI       1  4.0    0.000    0.000    0.037    0.038
 read_coordinate_cif                  1  5.0    0.002    0.002    0.037    0.038
 mp_comm_size                    118829  9.0    0.031    0.035    0.031    0.035
 pw_integral_ab_c1d_c1d_gs           53  9.0    0.030    0.030    0.031    0.031
 -------------------------------------------------------------------------------

 The number of warnings for this run is : 1
 
 -------------------------------------------------------------------------------
  **** **** ******  **  PROGRAM ENDED AT                 2025-08-04 03:32:38.347
 ***** ** ***  *** **   PROGRAM RAN ON                              i04r03c05s04
 **    ****   ******    PROGRAM RAN BY                                   di38fab
 ***** **    ** ** **   PROGRAM PROCESS ID                               3896305
  **** **  *******  **  PROGRAM STOPPED IN /hppfs/scratch/04/di38fab/09_GTH/Delt
                                           a_Set/C/TZV2P-MOLOPT-PBE-GTH/8x8x8
