   3   3   0   0
  0.3706986E+02  0.9418130E-09  0.9418130E-09  0.9418130E-09  0.5000000E-15
  1.000000000000000E-004
  CAR 
 Na                                      
     29.38343639    -27.16231114  301      0.32323148      1.00000000
    -27.162  0.0000E+00  0.0000E+00
    -26.974  0.0000E+00  0.0000E+00
    -26.785  0.0000E+00  0.0000E+00
    -26.597  0.0000E+00  0.0000E+00
    -26.408  0.0000E+00  0.0000E+00
    -26.220  0.0000E+00  0.0000E+00
    -26.031  0.0000E+00  0.0000E+00
    -25.843  0.0000E+00  0.0000E+00
    -25.654  0.0000E+00  0.0000E+00
    -25.466  0.0000E+00  0.0000E+00
    -25.277  0.0000E+00  0.0000E+00
    -25.089  0.0000E+00  0.0000E+00
    -24.900  0.0000E+00  0.0000E+00
    -24.712  0.5704E-02  0.1075E-02
    -24.524  0.8634E+02  0.1627E+02
    -24.335  0.9155E+01  0.1800E+02
    -24.147  0.0000E+00  0.1800E+02
    -23.958  0.0000E+00  0.1800E+02
    -23.770  0.0000E+00  0.1800E+02
    -23.581  0.0000E+00  0.1800E+02
    -23.393  0.0000E+00  0.1800E+02
    -23.204  0.0000E+00  0.1800E+02
    -23.016  0.0000E+00  0.1800E+02
    -22.827  0.0000E+00  0.1800E+02
    -22.639  0.0000E+00  0.1800E+02
    -22.450  0.0000E+00  0.1800E+02
    -22.262  0.0000E+00  0.1800E+02
    -22.073  0.0000E+00  0.1800E+02
    -21.885  0.0000E+00  0.1800E+02
    -21.696  0.0000E+00  0.1800E+02
    -21.508  0.0000E+00  0.1800E+02
    -21.319  0.0000E+00  0.1800E+02
    -21.131  0.0000E+00  0.1800E+02
    -20.942  0.0000E+00  0.1800E+02
    -20.754  0.0000E+00  0.1800E+02
    -20.565  0.0000E+00  0.1800E+02
    -20.377  0.0000E+00  0.1800E+02
    -20.188  0.0000E+00  0.1800E+02
    -20.000  0.0000E+00  0.1800E+02
    -19.811  0.0000E+00  0.1800E+02
    -19.623  0.0000E+00  0.1800E+02
    -19.434  0.0000E+00  0.1800E+02
    -19.246  0.0000E+00  0.1800E+02
    -19.057  0.0000E+00  0.1800E+02
    -18.869  0.0000E+00  0.1800E+02
    -18.680  0.0000E+00  0.1800E+02
    -18.492  0.0000E+00  0.1800E+02
    -18.303  0.0000E+00  0.1800E+02
    -18.115  0.0000E+00  0.1800E+02
    -17.927  0.0000E+00  0.1800E+02
    -17.738  0.0000E+00  0.1800E+02
    -17.550  0.0000E+00  0.1800E+02
    -17.361  0.0000E+00  0.1800E+02
    -17.173  0.0000E+00  0.1800E+02
    -16.984  0.0000E+00  0.1800E+02
    -16.796  0.0000E+00  0.1800E+02
    -16.607  0.0000E+00  0.1800E+02
    -16.419  0.0000E+00  0.1800E+02
    -16.230  0.0000E+00  0.1800E+02
    -16.042  0.0000E+00  0.1800E+02
    -15.853  0.0000E+00  0.1800E+02
    -15.665  0.0000E+00  0.1800E+02
    -15.476  0.0000E+00  0.1800E+02
    -15.288  0.0000E+00  0.1800E+02
    -15.099  0.0000E+00  0.1800E+02
    -14.911  0.0000E+00  0.1800E+02
    -14.722  0.0000E+00  0.1800E+02
    -14.534  0.0000E+00  0.1800E+02
    -14.345  0.0000E+00  0.1800E+02
    -14.157  0.0000E+00  0.1800E+02
    -13.968  0.0000E+00  0.1800E+02
    -13.780  0.0000E+00  0.1800E+02
    -13.591  0.0000E+00  0.1800E+02
    -13.403  0.0000E+00  0.1800E+02
    -13.214  0.0000E+00  0.1800E+02
    -13.026  0.0000E+00  0.1800E+02
    -12.837  0.0000E+00  0.1800E+02
    -12.649  0.0000E+00  0.1800E+02
    -12.460  0.0000E+00  0.1800E+02
    -12.272  0.0000E+00  0.1800E+02
    -12.083  0.0000E+00  0.1800E+02
    -11.895  0.0000E+00  0.1800E+02
    -11.706  0.0000E+00  0.1800E+02
    -11.518  0.0000E+00  0.1800E+02
    -11.330  0.0000E+00  0.1800E+02
    -11.141  0.0000E+00  0.1800E+02
    -10.953  0.0000E+00  0.1800E+02
    -10.764  0.0000E+00  0.1800E+02
    -10.576  0.0000E+00  0.1800E+02
    -10.387  0.0000E+00  0.1800E+02
    -10.199  0.0000E+00  0.1800E+02
    -10.010  0.0000E+00  0.1800E+02
     -9.822  0.0000E+00  0.1800E+02
     -9.633  0.0000E+00  0.1800E+02
     -9.445  0.0000E+00  0.1800E+02
     -9.256  0.0000E+00  0.1800E+02
     -9.068  0.0000E+00  0.1800E+02
     -8.879  0.0000E+00  0.1800E+02
     -8.691  0.0000E+00  0.1800E+02
     -8.502  0.0000E+00  0.1800E+02
     -8.314  0.0000E+00  0.1800E+02
     -8.125  0.0000E+00  0.1800E+02
     -7.937  0.0000E+00  0.1800E+02
     -7.748  0.0000E+00  0.1800E+02
     -7.560  0.0000E+00  0.1800E+02
     -7.371  0.0000E+00  0.1800E+02
     -7.183  0.0000E+00  0.1800E+02
     -6.994  0.0000E+00  0.1800E+02
     -6.806  0.0000E+00  0.1800E+02
     -6.617  0.0000E+00  0.1800E+02
     -6.429  0.0000E+00  0.1800E+02
     -6.240  0.0000E+00  0.1800E+02
     -6.052  0.0000E+00  0.1800E+02
     -5.863  0.0000E+00  0.1800E+02
     -5.675  0.0000E+00  0.1800E+02
     -5.486  0.0000E+00  0.1800E+02
     -5.298  0.0000E+00  0.1800E+02
     -5.109  0.0000E+00  0.1800E+02
     -4.921  0.0000E+00  0.1800E+02
     -4.732  0.0000E+00  0.1800E+02
     -4.544  0.0000E+00  0.1800E+02
     -4.356  0.0000E+00  0.1800E+02
     -4.167  0.0000E+00  0.1800E+02
     -3.979  0.0000E+00  0.1800E+02
     -3.790  0.0000E+00  0.1800E+02
     -3.602  0.0000E+00  0.1800E+02
     -3.413  0.0000E+00  0.1800E+02
     -3.225  0.3136E-16  0.1800E+02
     -3.036  0.8194E-04  0.1800E+02
     -2.848  0.8463E-01  0.1802E+02
     -2.659  0.2840E+00  0.1807E+02
     -2.471  0.5385E+00  0.1817E+02
     -2.282  0.4196E+00  0.1825E+02
     -2.094  0.7569E+00  0.1839E+02
     -1.905  0.7185E+00  0.1853E+02
     -1.717  0.6082E+00  0.1864E+02
     -1.528  0.1106E+01  0.1885E+02
     -1.340  0.8709E+00  0.1902E+02
     -1.151  0.8274E+00  0.1917E+02
     -0.963  0.1029E+01  0.1937E+02
     -0.774  0.1343E+01  0.1962E+02
     -0.586  0.1036E+01  0.1981E+02
     -0.397  0.1096E+01  0.2002E+02
     -0.209  0.1195E+01  0.2025E+02
     -0.020  0.1420E+01  0.2051E+02
      0.168  0.1465E+01  0.2079E+02
      0.357  0.1398E+01  0.2105E+02
      0.545  0.1188E+01  0.2128E+02
      0.734  0.1493E+01  0.2156E+02
      0.922  0.1801E+01  0.2190E+02
      1.111  0.1597E+01  0.2220E+02
      1.299  0.1624E+01  0.2250E+02
      1.488  0.1831E+01  0.2285E+02
      1.676  0.1234E+01  0.2308E+02
      1.865  0.1625E+01  0.2339E+02
      2.053  0.2111E+01  0.2379E+02
      2.241  0.1737E+01  0.2411E+02
      2.430  0.1625E+01  0.2442E+02
      2.618  0.1588E+01  0.2472E+02
      2.807  0.2149E+01  0.2512E+02
      2.995  0.2159E+01  0.2553E+02
      3.184  0.1745E+01  0.2586E+02
      3.372  0.2089E+01  0.2625E+02
      3.561  0.2073E+01  0.2664E+02
      3.749  0.1679E+01  0.2696E+02
      3.938  0.2202E+01  0.2738E+02
      4.126  0.1968E+01  0.2775E+02
      4.315  0.1985E+01  0.2812E+02
      4.503  0.2625E+01  0.2862E+02
      4.692  0.2047E+01  0.2900E+02
      4.880  0.1735E+01  0.2933E+02
      5.069  0.2132E+01  0.2973E+02
      5.257  0.2836E+01  0.3027E+02
      5.446  0.1989E+01  0.3064E+02
      5.634  0.2231E+01  0.3106E+02
      5.823  0.1904E+01  0.3142E+02
      6.011  0.2479E+01  0.3189E+02
      6.200  0.2574E+01  0.3237E+02
      6.388  0.2345E+01  0.3281E+02
      6.577  0.2345E+01  0.3326E+02
      6.765  0.2482E+01  0.3372E+02
      6.954  0.2351E+01  0.3417E+02
      7.142  0.2422E+01  0.3462E+02
      7.331  0.2542E+01  0.3510E+02
      7.519  0.2461E+01  0.3557E+02
      7.708  0.2861E+01  0.3611E+02
      7.896  0.2448E+01  0.3657E+02
      8.085  0.3013E+01  0.3714E+02
      8.273  0.2668E+01  0.3764E+02
      8.462  0.2256E+01  0.3806E+02
      8.650  0.2980E+01  0.3862E+02
      8.838  0.2819E+01  0.3916E+02
      9.027  0.2432E+01  0.3961E+02
      9.215  0.3305E+01  0.4024E+02
      9.404  0.2279E+01  0.4067E+02
      9.592  0.2803E+01  0.4120E+02
      9.781  0.3051E+01  0.4177E+02
      9.969  0.2667E+01  0.4227E+02
     10.158  0.3121E+01  0.4286E+02
     10.346  0.3208E+01  0.4347E+02
     10.535  0.2874E+01  0.4401E+02
     10.723  0.2780E+01  0.4453E+02
     10.912  0.2728E+01  0.4505E+02
     11.100  0.3032E+01  0.4562E+02
     11.289  0.2548E+01  0.4610E+02
     11.477  0.3074E+01  0.4668E+02
     11.666  0.3218E+01  0.4728E+02
     11.854  0.2989E+01  0.4785E+02
     12.043  0.3285E+01  0.4847E+02
     12.231  0.3129E+01  0.4906E+02
     12.420  0.3578E+01  0.4973E+02
     12.608  0.3281E+01  0.5035E+02
     12.797  0.3055E+01  0.5092E+02
     12.985  0.2811E+01  0.5145E+02
     13.174  0.3314E+01  0.5208E+02
     13.362  0.3366E+01  0.5271E+02
     13.551  0.3627E+01  0.5340E+02
     13.739  0.3840E+01  0.5412E+02
     13.928  0.3040E+01  0.5469E+02
     14.116  0.3427E+01  0.5534E+02
     14.305  0.3382E+01  0.5598E+02
     14.493  0.3691E+01  0.5667E+02
     14.682  0.3097E+01  0.5726E+02
     14.870  0.4053E+01  0.5802E+02
     15.059  0.3209E+01  0.5863E+02
     15.247  0.3155E+01  0.5922E+02
     15.435  0.3953E+01  0.5997E+02
     15.624  0.3613E+01  0.6065E+02
     15.812  0.3685E+01  0.6134E+02
     16.001  0.3936E+01  0.6208E+02
     16.189  0.3817E+01  0.6280E+02
     16.378  0.3554E+01  0.6347E+02
     16.566  0.3952E+01  0.6422E+02
     16.755  0.3383E+01  0.6485E+02
     16.943  0.3886E+01  0.6559E+02
     17.132  0.4236E+01  0.6639E+02
     17.320  0.3338E+01  0.6701E+02
     17.509  0.4020E+01  0.6777E+02
     17.697  0.4109E+01  0.6855E+02
     17.886  0.2761E+01  0.6907E+02
     18.074  0.3942E+01  0.6981E+02
     18.263  0.4680E+01  0.7069E+02
     18.451  0.3736E+01  0.7140E+02
     18.640  0.4080E+01  0.7217E+02
     18.828  0.3158E+01  0.7276E+02
     19.017  0.4190E+01  0.7355E+02
     19.205  0.3355E+01  0.7418E+02
     19.394  0.3898E+01  0.7492E+02
     19.582  0.3846E+01  0.7564E+02
     19.771  0.3630E+01  0.7633E+02
     19.959  0.4117E+01  0.7710E+02
     20.148  0.3793E+01  0.7782E+02
     20.336  0.3507E+01  0.7848E+02
     20.525  0.3731E+01  0.7918E+02
     20.713  0.3271E+01  0.7980E+02
     20.902  0.3109E+01  0.8038E+02
     21.090  0.2995E+01  0.8095E+02
     21.279  0.3563E+01  0.8162E+02
     21.467  0.3214E+01  0.8223E+02
     21.656  0.4007E+01  0.8298E+02
     21.844  0.2970E+01  0.8354E+02
     22.032  0.3590E+01  0.8422E+02
     22.221  0.3251E+01  0.8483E+02
     22.409  0.3260E+01  0.8545E+02
     22.598  0.4318E+01  0.8626E+02
     22.786  0.4052E+01  0.8702E+02
     22.975  0.3603E+01  0.8770E+02
     23.163  0.3822E+01  0.8842E+02
     23.352  0.4046E+01  0.8919E+02
     23.540  0.3774E+01  0.8990E+02
     23.729  0.3591E+01  0.9057E+02
     23.917  0.3531E+01  0.9124E+02
     24.106  0.3646E+01  0.9193E+02
     24.294  0.4199E+01  0.9272E+02
     24.483  0.3335E+01  0.9335E+02
     24.671  0.4054E+01  0.9411E+02
     24.860  0.2993E+01  0.9467E+02
     25.048  0.1664E+01  0.9499E+02
     25.237  0.1708E+01  0.9531E+02
     25.425  0.1389E+01  0.9557E+02
     25.614  0.8756E+00  0.9574E+02
     25.802  0.5333E+00  0.9584E+02
     25.991  0.2278E+00  0.9588E+02
     26.179  0.2425E+00  0.9593E+02
     26.368  0.2313E+00  0.9597E+02
     26.556  0.1232E+00  0.9599E+02
     26.745  0.3120E-02  0.9599E+02
     26.933  0.3586E-01  0.9600E+02
     27.122  0.1276E-04  0.9600E+02
     27.310  0.0000E+00  0.9600E+02
     27.499  0.0000E+00  0.9600E+02
     27.687  0.0000E+00  0.9600E+02
     27.876  0.0000E+00  0.9600E+02
     28.064  0.0000E+00  0.9600E+02
     28.253  0.0000E+00  0.9600E+02
     28.441  0.0000E+00  0.9600E+02
     28.629  0.0000E+00  0.9600E+02
     28.818  0.0000E+00  0.9600E+02
     29.006  0.0000E+00  0.9600E+02
     29.195  0.0000E+00  0.9600E+02
     29.383  0.0000E+00  0.9600E+02
