       N       E                     dE             d eps       ncg     rms          rms(c)
DAV:   1    -0.394494078342E+01   -0.39449E+01   -0.23689E-06  9792   0.670E-03    0.984E-04
DAV:   2    -0.394494070293E+01    0.80489E-07   -0.18148E-07  9360   0.217E-03
   1 F= -.39449407E+01 E0= -.39440741E+01  d E =-.173319E-02
       N       E                     dE             ncg
DAV:   1    -0.806039341368E+05   -0.13822E+06    18144
DAV:   2    -0.840220204402E+05   -0.34181E+04    26880
DAV:   3    -0.840256833650E+05   -0.36629E+01    18144
DAV:   4    -0.840256936462E+05   -0.10281E-01    32976
DAV:   5    -0.840256936469E+05   -0.66438E-06    18144
       N       E                     dE             ncg
DAV:   1     0.544619033114E+05   -0.30676E+04      672
DAV:   2     0.543186100338E+05   -0.14329E+03     1008
DAV:   3     0.543184868415E+05   -0.12319E+00      672
DAV:   4     0.543184865846E+05   -0.25694E-03     1344
DAV:   5     0.543184865846E+05   -0.22628E-08      672
