Na                                      
           1
     3.668156    0.000000    8.674434
     1.758688    3.219065    8.674434
     0.000000    0.000000    9.418130
   Na
     3
Direct configuration=     1
   0.00000000  0.00000000  0.00000000
   0.22222000  0.22222000  0.22222000
   0.77778000  0.77778000  0.77778000
