 DBCSR| CPU Multiplication driver                                           BLAS (U)
 DBCSR| Multrec recursion limit                                              512 (U)
 DBCSR| Multiplication stack size                                           1000 (D)
 DBCSR| Maximum elements for images                                    UNLIMITED (U)
 DBCSR| Multiplicative factor virtual images                                   1 (U)
 DBCSR| Use multiplication densification                                       T (D)
 DBCSR| Multiplication size stacks                                             3 (U)
 DBCSR| Use memory pool for CPU allocation                                     F (U)
 DBCSR| Number of 3D layers                                               SINGLE (U)
 DBCSR| Use MPI memory allocation                                              F (U)
 DBCSR| Use RMA algorithm                                                      F (U)
 DBCSR| Use Communication thread                                               T (U)
 DBCSR| Communication thread load                                             45 (D)
 DBCSR| MPI: My process id                                                     0
 DBCSR| MPI: Number of processes                                              16
 DBCSR| OMP: Current number of threads                                        12
 DBCSR| OMP: Max number of threads                                            12
 DBCSR| Split modifier for TAS multiplication algorithm                  1.0E+00 (U)


  **** **** ******  **  PROGRAM STARTED AT               2025-08-07 21:57:47.069
 ***** ** ***  *** **   PROGRAM STARTED ON                          i04r10c05s03
 **    ****   ******    PROGRAM STARTED BY                               di38fab
 ***** **    ** ** **   PROGRAM PROCESS ID                               1021132
  **** **  *******  **  PROGRAM STARTED IN /hppfs/scratch/04/di38fab/09_GTH/Delt
                                           a_Set/Bi/aug-TZVP-MOLOPT-GTH-tier-2/8
                                           x8x8

 CP2K| version string:                 CP2K version 2025.1 (Development Version)
 CP2K| source code revision number:                                  git:3130539
 CP2K| cp2kflags: omp libint fftw3 libxc parallel scalapack max_contr=4         
 CP2K| is freely available from                            https://www.cp2k.org/
 CP2K| Program compiled at                         Tue Jun  3 16:14:32 CEST 2025
 CP2K| Program compiled on                                               login01
 CP2K| Program compiled for                                        Supermuc-foss
 CP2K| Data directory path                  /hppfs/work/pn36zo/di38fab/cp2k/data
 CP2K| Input file name                                                    GW.inp

 GLOBAL| Force Environment number                                              1
 GLOBAL| Basis set file name            /hppfs/scratch/04/di38fab/09_GTH/BASIS_A
 GLOBAL| Potential file name            /hppfs/work/pn36zo/di38fab/cp2k/data/GTH
 GLOBAL| MM Potential file name                                     MM_POTENTIAL
 GLOBAL| Coordinate file name                                             Bi.cif
 GLOBAL| Method name                                                        CP2K
 GLOBAL| Project name                                                       WSe2
 GLOBAL| Run type                                                         ENERGY
 GLOBAL| FFT library                                                       FFTW3
 GLOBAL| Diagonalization library                                       ScaLAPACK
 GLOBAL| Cholesky decomposition library                                ScaLAPACK
 GLOBAL| DGEMM library                                                      BLAS
 GLOBAL| Orthonormality check for eigenvectors                          DISABLED
 GLOBAL| Matrix multiplication library                                 ScaLAPACK
 GLOBAL| All-to-all communication in single precision                          F
 GLOBAL| FFTs using library dependent lengths                                  F
 GLOBAL| Grid backend                                                       AUTO
 GLOBAL| Global print level                                               MEDIUM
 GLOBAL| MPI I/O enabled                                                       T
 GLOBAL| Total number of message passing processes                            16
 GLOBAL| Number of threads for this process                                   12
 GLOBAL| This output is from process                                           0
 GLOBAL| OpenMP stack size per thread (OMP_STACKSIZE)                    default
 GLOBAL| CPU model name             Intel(R) Xeon(R) Platinum 8174 CPU @ 3.10GHz

 MEMORY| system memory details [Kb]
 MEMORY|                        rank 0           min           max       average
 MEMORY| MemTotal             98436708      98436708      98436708      98436708
 MEMORY| MemFree              84421916      84359504      84582384      84480161
 MEMORY| Buffers                     0             0             0             0
 MEMORY| Cached                2398984       2381380       2406784       2394517
 MEMORY| Slab                  1290040       1271392       1290040       1281127
 MEMORY| SReclaimable           276104        269284        276104        273249
 MEMORY| MemLikelyFree        87097004      87035572      87235836      87147927


 *** Fundamental physical constants (SI units) ***

 *** Literature: B. J. Mohr and B. N. Taylor,
 ***             CODATA recommended values of the fundamental physical
 ***             constants: 2006, Web Version 5.1
 ***             http://physics.nist.gov/constants

 Speed of light in vacuum [m/s]                             2.99792458000000E+08
 Magnetic constant or permeability of vacuum [N/A**2]       1.25663706143592E-06
 Electric constant or permittivity of vacuum [F/m]          8.85418781762039E-12
 Planck constant (h) [J*s]                                  6.62606896000000E-34
 Planck constant (h-bar) [J*s]                              1.05457162825177E-34
 Elementary charge [C]                                      1.60217648700000E-19
 Electron mass [kg]                                         9.10938215000000E-31
 Electron g factor [ ]                                     -2.00231930436220E+00
 Proton mass [kg]                                           1.67262163700000E-27
 Fine-structure constant                                    7.29735253760000E-03
 Rydberg constant [1/m]                                     1.09737315685270E+07
 Avogadro constant [1/mol]                                  6.02214179000000E+23
 Boltzmann constant [J/K]                                   1.38065040000000E-23
 Atomic mass unit [kg]                                      1.66053878200000E-27
 Bohr radius [m]                                            5.29177208590000E-11

 *** Conversion factors ***

 [u] -> [a.u.]                                              1.82288848426455E+03
 [Angstrom] -> [Bohr] = [a.u.]                              1.88972613288564E+00
 [a.u.] = [Bohr] -> [Angstrom]                              5.29177208590000E-01
 [a.u.] -> [s]                                              2.41888432650478E-17
 [a.u.] -> [fs]                                             2.41888432650478E-02
 [a.u.] -> [J]                                              4.35974393937059E-18
 [a.u.] -> [N]                                              8.23872205491840E-08
 [a.u.] -> [K]                                              3.15774647902944E+05
 [a.u.] -> [kJ/mol]                                         2.62549961709828E+03
 [a.u.] -> [kcal/mol]                                       6.27509468713739E+02
 [a.u.] -> [Pa]                                             2.94210107994716E+13
 [a.u.] -> [bar]                                            2.94210107994716E+08
 [a.u.] -> [atm]                                            2.90362800883016E+08
 [a.u.] -> [eV]                                             2.72113838565563E+01
 [a.u.] -> [Hz]                                             6.57968392072181E+15
 [a.u.] -> [1/cm] (wave numbers)                            2.19474631370540E+05
 [a.u./Bohr**2] -> [1/cm]                                   5.14048714338585E+03
 

 CELL_TOP| Volume [angstrom^3]:                                       222.141237
 CELL_TOP| Vector a [angstrom     4.589     0.000     0.000   |a| =     4.588660
 CELL_TOP| Vector b [angstrom    -2.294     3.974     0.000   |b| =     4.588660
 CELL_TOP| Vector c [angstrom     0.000     0.000    12.182   |c| =    12.182230
 CELL_TOP| Angle (b,c), alpha [degree]:                                90.000000
 CELL_TOP| Angle (a,c), beta  [degree]:                                90.000000
 CELL_TOP| Angle (a,b), gamma [degree]:                               120.000000
 CELL_TOP| Numerically orthorhombic:                                          NO
 CELL_TOP| Periodicity                                                       XYZ

 CELL_CIF| Volume [angstrom^3]:                                       222.141237
 CELL_CIF| Vector a [angstrom     4.589     0.000     0.000   |a| =     4.588660
 CELL_CIF| Vector b [angstrom    -2.294     3.974     0.000   |b| =     4.588660
 CELL_CIF| Vector c [angstrom     0.000     0.000    12.182   |c| =    12.182230
 CELL_CIF| Angle (b,c), alpha [degree]:                                90.000000
 CELL_CIF| Angle (a,c), beta  [degree]:                                90.000000
 CELL_CIF| Angle (a,b), gamma [degree]:                               120.000000
 CELL_CIF| Numerically orthorhombic:                                          NO
 CELL_CIF| Periodicity                                                       XYZ

 GENERATE|  Preliminary Number of Bonds generated:                             0
 GENERATE|  Achieved consistency in connectivity generation.

 CELL| Volume [angstrom^3]:                                           222.141237
 CELL| Vector a [angstrom]:       4.589     0.000     0.000   |a| =     4.588660
 CELL| Vector b [angstrom]:      -2.294     3.974     0.000   |b| =     4.588660
 CELL| Vector c [angstrom]:       0.000     0.000    12.182   |c| =    12.182230
 CELL| Angle (b,c), alpha [degree]:                                    90.000000
 CELL| Angle (a,c), beta  [degree]:                                    90.000000
 CELL| Angle (a,b), gamma [degree]:                                   120.000000
 CELL| Numerically orthorhombic:                                              NO
 CELL| Periodicity                                                           XYZ

 CELL_REF| Volume [angstrom^3]:                                       222.141237
 CELL_REF| Vector a [angstrom     4.589     0.000     0.000   |a| =     4.588660
 CELL_REF| Vector b [angstrom    -2.294     3.974     0.000   |b| =     4.588660
 CELL_REF| Vector c [angstrom     0.000     0.000    12.182   |c| =    12.182230
 CELL_REF| Angle (b,c), alpha [degree]:                                90.000000
 CELL_REF| Angle (a,c), beta  [degree]:                                90.000000
 CELL_REF| Angle (a,b), gamma [degree]:                               120.000000
 CELL_REF| Numerically orthorhombic:                                          NO
 CELL_REF| Periodicity                                                       XYZ

 *** WARNING in cryssym.F:180 :: Symmetry library SPGLIB not available ***


 *******************************************************************************
                                    Kpoints
 *******************************************************************************
 BRILLOUIN| K-point scheme                                        Monkhorst-Pack
 BRILLOUIN| K-Point grid                                             8    8    8
 BRILLOUIN| Accuracy in Symmetry determination                      0.100000E-05
 BRILLOUIN| K-Point point group symmetrization                               OFF
 BRILLOUIN| Wavefunction type                                            COMPLEX
 BRILLOUIN| List of Kpoints [2 Pi/Bohr]                                      256
 BRILLOUIN| Number           Weight            X              Y              Z
 BRILLOUIN|     1           0.00391       -0.43750       -0.43750       -0.43750
 BRILLOUIN|     2           0.00391       -0.43750       -0.43750       -0.31250
 BRILLOUIN|     3           0.00391       -0.43750       -0.43750       -0.18750
 BRILLOUIN|     4           0.00391       -0.43750       -0.43750       -0.06250
 BRILLOUIN|     5           0.00391       -0.43750       -0.43750        0.06250
 BRILLOUIN|     6           0.00391       -0.43750       -0.43750        0.18750
 BRILLOUIN|     7           0.00391       -0.43750       -0.43750        0.31250
 BRILLOUIN|     8           0.00391       -0.43750       -0.43750        0.43750
 BRILLOUIN|     9           0.00391       -0.43750       -0.31250       -0.43750
 BRILLOUIN|    10           0.00391       -0.43750       -0.31250       -0.31250
 BRILLOUIN|    11           0.00391       -0.43750       -0.31250       -0.18750
 BRILLOUIN|    12           0.00391       -0.43750       -0.31250       -0.06250
 BRILLOUIN|    13           0.00391       -0.43750       -0.31250        0.06250
 BRILLOUIN|    14           0.00391       -0.43750       -0.31250        0.18750
 BRILLOUIN|    15           0.00391       -0.43750       -0.31250        0.31250
 BRILLOUIN|    16           0.00391       -0.43750       -0.31250        0.43750
 BRILLOUIN|    17           0.00391       -0.43750       -0.18750       -0.43750
 BRILLOUIN|    18           0.00391       -0.43750       -0.18750       -0.31250
 BRILLOUIN|    19           0.00391       -0.43750       -0.18750       -0.18750
 BRILLOUIN|    20           0.00391       -0.43750       -0.18750       -0.06250
 BRILLOUIN|    21           0.00391       -0.43750       -0.18750        0.06250
 BRILLOUIN|    22           0.00391       -0.43750       -0.18750        0.18750
 BRILLOUIN|    23           0.00391       -0.43750       -0.18750        0.31250
 BRILLOUIN|    24           0.00391       -0.43750       -0.18750        0.43750
 BRILLOUIN|    25           0.00391       -0.43750       -0.06250       -0.43750
 BRILLOUIN|    26           0.00391       -0.43750       -0.06250       -0.31250
 BRILLOUIN|    27           0.00391       -0.43750       -0.06250       -0.18750
 BRILLOUIN|    28           0.00391       -0.43750       -0.06250       -0.06250
 BRILLOUIN|    29           0.00391       -0.43750       -0.06250        0.06250
 BRILLOUIN|    30           0.00391       -0.43750       -0.06250        0.18750
 BRILLOUIN|    31           0.00391       -0.43750       -0.06250        0.31250
 BRILLOUIN|    32           0.00391       -0.43750       -0.06250        0.43750
 BRILLOUIN|    33           0.00391       -0.43750        0.06250       -0.43750
 BRILLOUIN|    34           0.00391       -0.43750        0.06250       -0.31250
 BRILLOUIN|    35           0.00391       -0.43750        0.06250       -0.18750
 BRILLOUIN|    36           0.00391       -0.43750        0.06250       -0.06250
 BRILLOUIN|    37           0.00391       -0.43750        0.06250        0.06250
 BRILLOUIN|    38           0.00391       -0.43750        0.06250        0.18750
 BRILLOUIN|    39           0.00391       -0.43750        0.06250        0.31250
 BRILLOUIN|    40           0.00391       -0.43750        0.06250        0.43750
 BRILLOUIN|    41           0.00391       -0.43750        0.18750       -0.43750
 BRILLOUIN|    42           0.00391       -0.43750        0.18750       -0.31250
 BRILLOUIN|    43           0.00391       -0.43750        0.18750       -0.18750
 BRILLOUIN|    44           0.00391       -0.43750        0.18750       -0.06250
 BRILLOUIN|    45           0.00391       -0.43750        0.18750        0.06250
 BRILLOUIN|    46           0.00391       -0.43750        0.18750        0.18750
 BRILLOUIN|    47           0.00391       -0.43750        0.18750        0.31250
 BRILLOUIN|    48           0.00391       -0.43750        0.18750        0.43750
 BRILLOUIN|    49           0.00391       -0.43750        0.31250       -0.43750
 BRILLOUIN|    50           0.00391       -0.43750        0.31250       -0.31250
 BRILLOUIN|    51           0.00391       -0.43750        0.31250       -0.18750
 BRILLOUIN|    52           0.00391       -0.43750        0.31250       -0.06250
 BRILLOUIN|    53           0.00391       -0.43750        0.31250        0.06250
 BRILLOUIN|    54           0.00391       -0.43750        0.31250        0.18750
 BRILLOUIN|    55           0.00391       -0.43750        0.31250        0.31250
 BRILLOUIN|    56           0.00391       -0.43750        0.31250        0.43750
 BRILLOUIN|    57           0.00391       -0.43750        0.43750       -0.43750
 BRILLOUIN|    58           0.00391       -0.43750        0.43750       -0.31250
 BRILLOUIN|    59           0.00391       -0.43750        0.43750       -0.18750
 BRILLOUIN|    60           0.00391       -0.43750        0.43750       -0.06250
 BRILLOUIN|    61           0.00391       -0.43750        0.43750        0.06250
 BRILLOUIN|    62           0.00391       -0.43750        0.43750        0.18750
 BRILLOUIN|    63           0.00391       -0.43750        0.43750        0.31250
 BRILLOUIN|    64           0.00391       -0.43750        0.43750        0.43750
 BRILLOUIN|    65           0.00391       -0.31250       -0.43750       -0.43750
 BRILLOUIN|    66           0.00391       -0.31250       -0.43750       -0.31250
 BRILLOUIN|    67           0.00391       -0.31250       -0.43750       -0.18750
 BRILLOUIN|    68           0.00391       -0.31250       -0.43750       -0.06250
 BRILLOUIN|    69           0.00391       -0.31250       -0.43750        0.06250
 BRILLOUIN|    70           0.00391       -0.31250       -0.43750        0.18750
 BRILLOUIN|    71           0.00391       -0.31250       -0.43750        0.31250
 BRILLOUIN|    72           0.00391       -0.31250       -0.43750        0.43750
 BRILLOUIN|    73           0.00391       -0.31250       -0.31250       -0.43750
 BRILLOUIN|    74           0.00391       -0.31250       -0.31250       -0.31250
 BRILLOUIN|    75           0.00391       -0.31250       -0.31250       -0.18750
 BRILLOUIN|    76           0.00391       -0.31250       -0.31250       -0.06250
 BRILLOUIN|    77           0.00391       -0.31250       -0.31250        0.06250
 BRILLOUIN|    78           0.00391       -0.31250       -0.31250        0.18750
 BRILLOUIN|    79           0.00391       -0.31250       -0.31250        0.31250
 BRILLOUIN|    80           0.00391       -0.31250       -0.31250        0.43750
 BRILLOUIN|    81           0.00391       -0.31250       -0.18750       -0.43750
 BRILLOUIN|    82           0.00391       -0.31250       -0.18750       -0.31250
 BRILLOUIN|    83           0.00391       -0.31250       -0.18750       -0.18750
 BRILLOUIN|    84           0.00391       -0.31250       -0.18750       -0.06250
 BRILLOUIN|    85           0.00391       -0.31250       -0.18750        0.06250
 BRILLOUIN|    86           0.00391       -0.31250       -0.18750        0.18750
 BRILLOUIN|    87           0.00391       -0.31250       -0.18750        0.31250
 BRILLOUIN|    88           0.00391       -0.31250       -0.18750        0.43750
 BRILLOUIN|    89           0.00391       -0.31250       -0.06250       -0.43750
 BRILLOUIN|    90           0.00391       -0.31250       -0.06250       -0.31250
 BRILLOUIN|    91           0.00391       -0.31250       -0.06250       -0.18750
 BRILLOUIN|    92           0.00391       -0.31250       -0.06250       -0.06250
 BRILLOUIN|    93           0.00391       -0.31250       -0.06250        0.06250
 BRILLOUIN|    94           0.00391       -0.31250       -0.06250        0.18750
 BRILLOUIN|    95           0.00391       -0.31250       -0.06250        0.31250
 BRILLOUIN|    96           0.00391       -0.31250       -0.06250        0.43750
 BRILLOUIN|    97           0.00391       -0.31250        0.06250       -0.43750
 BRILLOUIN|    98           0.00391       -0.31250        0.06250       -0.31250
 BRILLOUIN|    99           0.00391       -0.31250        0.06250       -0.18750
 BRILLOUIN|   100           0.00391       -0.31250        0.06250       -0.06250
 BRILLOUIN|   101           0.00391       -0.31250        0.06250        0.06250
 BRILLOUIN|   102           0.00391       -0.31250        0.06250        0.18750
 BRILLOUIN|   103           0.00391       -0.31250        0.06250        0.31250
 BRILLOUIN|   104           0.00391       -0.31250        0.06250        0.43750
 BRILLOUIN|   105           0.00391       -0.31250        0.18750       -0.43750
 BRILLOUIN|   106           0.00391       -0.31250        0.18750       -0.31250
 BRILLOUIN|   107           0.00391       -0.31250        0.18750       -0.18750
 BRILLOUIN|   108           0.00391       -0.31250        0.18750       -0.06250
 BRILLOUIN|   109           0.00391       -0.31250        0.18750        0.06250
 BRILLOUIN|   110           0.00391       -0.31250        0.18750        0.18750
 BRILLOUIN|   111           0.00391       -0.31250        0.18750        0.31250
 BRILLOUIN|   112           0.00391       -0.31250        0.18750        0.43750
 BRILLOUIN|   113           0.00391       -0.31250        0.31250       -0.43750
 BRILLOUIN|   114           0.00391       -0.31250        0.31250       -0.31250
 BRILLOUIN|   115           0.00391       -0.31250        0.31250       -0.18750
 BRILLOUIN|   116           0.00391       -0.31250        0.31250       -0.06250
 BRILLOUIN|   117           0.00391       -0.31250        0.31250        0.06250
 BRILLOUIN|   118           0.00391       -0.31250        0.31250        0.18750
 BRILLOUIN|   119           0.00391       -0.31250        0.31250        0.31250
 BRILLOUIN|   120           0.00391       -0.31250        0.31250        0.43750
 BRILLOUIN|   121           0.00391       -0.31250        0.43750       -0.43750
 BRILLOUIN|   122           0.00391       -0.31250        0.43750       -0.31250
 BRILLOUIN|   123           0.00391       -0.31250        0.43750       -0.18750
 BRILLOUIN|   124           0.00391       -0.31250        0.43750       -0.06250
 BRILLOUIN|   125           0.00391       -0.31250        0.43750        0.06250
 BRILLOUIN|   126           0.00391       -0.31250        0.43750        0.18750
 BRILLOUIN|   127           0.00391       -0.31250        0.43750        0.31250
 BRILLOUIN|   128           0.00391       -0.31250        0.43750        0.43750
 BRILLOUIN|   129           0.00391       -0.18750       -0.43750       -0.43750
 BRILLOUIN|   130           0.00391       -0.18750       -0.43750       -0.31250
 BRILLOUIN|   131           0.00391       -0.18750       -0.43750       -0.18750
 BRILLOUIN|   132           0.00391       -0.18750       -0.43750       -0.06250
 BRILLOUIN|   133           0.00391       -0.18750       -0.43750        0.06250
 BRILLOUIN|   134           0.00391       -0.18750       -0.43750        0.18750
 BRILLOUIN|   135           0.00391       -0.18750       -0.43750        0.31250
 BRILLOUIN|   136           0.00391       -0.18750       -0.43750        0.43750
 BRILLOUIN|   137           0.00391       -0.18750       -0.31250       -0.43750
 BRILLOUIN|   138           0.00391       -0.18750       -0.31250       -0.31250
 BRILLOUIN|   139           0.00391       -0.18750       -0.31250       -0.18750
 BRILLOUIN|   140           0.00391       -0.18750       -0.31250       -0.06250
 BRILLOUIN|   141           0.00391       -0.18750       -0.31250        0.06250
 BRILLOUIN|   142           0.00391       -0.18750       -0.31250        0.18750
 BRILLOUIN|   143           0.00391       -0.18750       -0.31250        0.31250
 BRILLOUIN|   144           0.00391       -0.18750       -0.31250        0.43750
 BRILLOUIN|   145           0.00391       -0.18750       -0.18750       -0.43750
 BRILLOUIN|   146           0.00391       -0.18750       -0.18750       -0.31250
 BRILLOUIN|   147           0.00391       -0.18750       -0.18750       -0.18750
 BRILLOUIN|   148           0.00391       -0.18750       -0.18750       -0.06250
 BRILLOUIN|   149           0.00391       -0.18750       -0.18750        0.06250
 BRILLOUIN|   150           0.00391       -0.18750       -0.18750        0.18750
 BRILLOUIN|   151           0.00391       -0.18750       -0.18750        0.31250
 BRILLOUIN|   152           0.00391       -0.18750       -0.18750        0.43750
 BRILLOUIN|   153           0.00391       -0.18750       -0.06250       -0.43750
 BRILLOUIN|   154           0.00391       -0.18750       -0.06250       -0.31250
 BRILLOUIN|   155           0.00391       -0.18750       -0.06250       -0.18750
 BRILLOUIN|   156           0.00391       -0.18750       -0.06250       -0.06250
 BRILLOUIN|   157           0.00391       -0.18750       -0.06250        0.06250
 BRILLOUIN|   158           0.00391       -0.18750       -0.06250        0.18750
 BRILLOUIN|   159           0.00391       -0.18750       -0.06250        0.31250
 BRILLOUIN|   160           0.00391       -0.18750       -0.06250        0.43750
 BRILLOUIN|   161           0.00391       -0.18750        0.06250       -0.43750
 BRILLOUIN|   162           0.00391       -0.18750        0.06250       -0.31250
 BRILLOUIN|   163           0.00391       -0.18750        0.06250       -0.18750
 BRILLOUIN|   164           0.00391       -0.18750        0.06250       -0.06250
 BRILLOUIN|   165           0.00391       -0.18750        0.06250        0.06250
 BRILLOUIN|   166           0.00391       -0.18750        0.06250        0.18750
 BRILLOUIN|   167           0.00391       -0.18750        0.06250        0.31250
 BRILLOUIN|   168           0.00391       -0.18750        0.06250        0.43750
 BRILLOUIN|   169           0.00391       -0.18750        0.18750       -0.43750
 BRILLOUIN|   170           0.00391       -0.18750        0.18750       -0.31250
 BRILLOUIN|   171           0.00391       -0.18750        0.18750       -0.18750
 BRILLOUIN|   172           0.00391       -0.18750        0.18750       -0.06250
 BRILLOUIN|   173           0.00391       -0.18750        0.18750        0.06250
 BRILLOUIN|   174           0.00391       -0.18750        0.18750        0.18750
 BRILLOUIN|   175           0.00391       -0.18750        0.18750        0.31250
 BRILLOUIN|   176           0.00391       -0.18750        0.18750        0.43750
 BRILLOUIN|   177           0.00391       -0.18750        0.31250       -0.43750
 BRILLOUIN|   178           0.00391       -0.18750        0.31250       -0.31250
 BRILLOUIN|   179           0.00391       -0.18750        0.31250       -0.18750
 BRILLOUIN|   180           0.00391       -0.18750        0.31250       -0.06250
 BRILLOUIN|   181           0.00391       -0.18750        0.31250        0.06250
 BRILLOUIN|   182           0.00391       -0.18750        0.31250        0.18750
 BRILLOUIN|   183           0.00391       -0.18750        0.31250        0.31250
 BRILLOUIN|   184           0.00391       -0.18750        0.31250        0.43750
 BRILLOUIN|   185           0.00391       -0.18750        0.43750       -0.43750
 BRILLOUIN|   186           0.00391       -0.18750        0.43750       -0.31250
 BRILLOUIN|   187           0.00391       -0.18750        0.43750       -0.18750
 BRILLOUIN|   188           0.00391       -0.18750        0.43750       -0.06250
 BRILLOUIN|   189           0.00391       -0.18750        0.43750        0.06250
 BRILLOUIN|   190           0.00391       -0.18750        0.43750        0.18750
 BRILLOUIN|   191           0.00391       -0.18750        0.43750        0.31250
 BRILLOUIN|   192           0.00391       -0.18750        0.43750        0.43750
 BRILLOUIN|   193           0.00391       -0.06250       -0.43750       -0.43750
 BRILLOUIN|   194           0.00391       -0.06250       -0.43750       -0.31250
 BRILLOUIN|   195           0.00391       -0.06250       -0.43750       -0.18750
 BRILLOUIN|   196           0.00391       -0.06250       -0.43750       -0.06250
 BRILLOUIN|   197           0.00391       -0.06250       -0.43750        0.06250
 BRILLOUIN|   198           0.00391       -0.06250       -0.43750        0.18750
 BRILLOUIN|   199           0.00391       -0.06250       -0.43750        0.31250
 BRILLOUIN|   200           0.00391       -0.06250       -0.43750        0.43750
 BRILLOUIN|   201           0.00391       -0.06250       -0.31250       -0.43750
 BRILLOUIN|   202           0.00391       -0.06250       -0.31250       -0.31250
 BRILLOUIN|   203           0.00391       -0.06250       -0.31250       -0.18750
 BRILLOUIN|   204           0.00391       -0.06250       -0.31250       -0.06250
 BRILLOUIN|   205           0.00391       -0.06250       -0.31250        0.06250
 BRILLOUIN|   206           0.00391       -0.06250       -0.31250        0.18750
 BRILLOUIN|   207           0.00391       -0.06250       -0.31250        0.31250
 BRILLOUIN|   208           0.00391       -0.06250       -0.31250        0.43750
 BRILLOUIN|   209           0.00391       -0.06250       -0.18750       -0.43750
 BRILLOUIN|   210           0.00391       -0.06250       -0.18750       -0.31250
 BRILLOUIN|   211           0.00391       -0.06250       -0.18750       -0.18750
 BRILLOUIN|   212           0.00391       -0.06250       -0.18750       -0.06250
 BRILLOUIN|   213           0.00391       -0.06250       -0.18750        0.06250
 BRILLOUIN|   214           0.00391       -0.06250       -0.18750        0.18750
 BRILLOUIN|   215           0.00391       -0.06250       -0.18750        0.31250
 BRILLOUIN|   216           0.00391       -0.06250       -0.18750        0.43750
 BRILLOUIN|   217           0.00391       -0.06250       -0.06250       -0.43750
 BRILLOUIN|   218           0.00391       -0.06250       -0.06250       -0.31250
 BRILLOUIN|   219           0.00391       -0.06250       -0.06250       -0.18750
 BRILLOUIN|   220           0.00391       -0.06250       -0.06250       -0.06250
 BRILLOUIN|   221           0.00391       -0.06250       -0.06250        0.06250
 BRILLOUIN|   222           0.00391       -0.06250       -0.06250        0.18750
 BRILLOUIN|   223           0.00391       -0.06250       -0.06250        0.31250
 BRILLOUIN|   224           0.00391       -0.06250       -0.06250        0.43750
 BRILLOUIN|   225           0.00391       -0.06250        0.06250       -0.43750
 BRILLOUIN|   226           0.00391       -0.06250        0.06250       -0.31250
 BRILLOUIN|   227           0.00391       -0.06250        0.06250       -0.18750
 BRILLOUIN|   228           0.00391       -0.06250        0.06250       -0.06250
 BRILLOUIN|   229           0.00391       -0.06250        0.06250        0.06250
 BRILLOUIN|   230           0.00391       -0.06250        0.06250        0.18750
 BRILLOUIN|   231           0.00391       -0.06250        0.06250        0.31250
 BRILLOUIN|   232           0.00391       -0.06250        0.06250        0.43750
 BRILLOUIN|   233           0.00391       -0.06250        0.18750       -0.43750
 BRILLOUIN|   234           0.00391       -0.06250        0.18750       -0.31250
 BRILLOUIN|   235           0.00391       -0.06250        0.18750       -0.18750
 BRILLOUIN|   236           0.00391       -0.06250        0.18750       -0.06250
 BRILLOUIN|   237           0.00391       -0.06250        0.18750        0.06250
 BRILLOUIN|   238           0.00391       -0.06250        0.18750        0.18750
 BRILLOUIN|   239           0.00391       -0.06250        0.18750        0.31250
 BRILLOUIN|   240           0.00391       -0.06250        0.18750        0.43750
 BRILLOUIN|   241           0.00391       -0.06250        0.31250       -0.43750
 BRILLOUIN|   242           0.00391       -0.06250        0.31250       -0.31250
 BRILLOUIN|   243           0.00391       -0.06250        0.31250       -0.18750
 BRILLOUIN|   244           0.00391       -0.06250        0.31250       -0.06250
 BRILLOUIN|   245           0.00391       -0.06250        0.31250        0.06250
 BRILLOUIN|   246           0.00391       -0.06250        0.31250        0.18750
 BRILLOUIN|   247           0.00391       -0.06250        0.31250        0.31250
 BRILLOUIN|   248           0.00391       -0.06250        0.31250        0.43750
 BRILLOUIN|   249           0.00391       -0.06250        0.43750       -0.43750
 BRILLOUIN|   250           0.00391       -0.06250        0.43750       -0.31250
 BRILLOUIN|   251           0.00391       -0.06250        0.43750       -0.18750
 BRILLOUIN|   252           0.00391       -0.06250        0.43750       -0.06250
 BRILLOUIN|   253           0.00391       -0.06250        0.43750        0.06250
 BRILLOUIN|   254           0.00391       -0.06250        0.43750        0.18750
 BRILLOUIN|   255           0.00391       -0.06250        0.43750        0.31250
 BRILLOUIN|   256           0.00391       -0.06250        0.43750        0.43750
 *******************************************************************************

 *******************************************************************************
 *******************************************************************************
 **                                                                           **
 **     #####                         ##              ##                      **
 **    ##   ##            ##          ##              ##                      **
 **   ##     ##                       ##            ######                    **
 **   ##     ##  ##   ##  ##   #####  ##  ##   ####   ##    #####    #####    **
 **   ##     ##  ##   ##  ##  ##      ## ##   ##      ##   ##   ##  ##   ##   **
 **   ##  ## ##  ##   ##  ##  ##      ####     ###    ##   ######   ######    **
 **    ##  ###   ##   ##  ##  ##      ## ##      ##   ##   ##       ##        **
 **     #######   #####   ##   #####  ##  ##  ####    ##    #####   ##        **
 **           ##                                                    ##        **
 **                                                                           **
 **                                                ... make the atoms dance   **
 **                                                                           **
 **            Copyright (C) by CP2K developers group (2000-2025)             **
 **                      J. Chem. Phys. 152, 194103 (2020)                    **
 **                                                                           **
 *******************************************************************************

 DFT| Spin restricted Kohn-Sham (RKS) calculation                            RKS
 DFT| Multiplicity                                                             1
 DFT| Number of spin states                                                    1
 DFT| Charge                                                                   0
 DFT| Self-interaction correction (SIC)                                       NO
 DFT| Cutoffs: density                                              1.000000E-10
 DFT|          gradient                                             1.000000E-10
 DFT|          tau                                                  1.000000E-10
 DFT|          cutoff_smoothing_range                               0.000000E+00
 DFT| XC density smoothing                                                  NONE
 DFT| XC derivatives                                                          PW

 FUNCTIONAL| PBE:
 FUNCTIONAL| J.P.Perdew, K.Burke, M.Ernzerhof, Phys. Rev. Letter, vol. 77, n 18,
 FUNCTIONAL|  pp. 3865-3868, (1996) {spin unpolarized}                          


 QS| Method:                                                                 GPW
 QS| Density plane wave grid type                        NON-SPHERICAL FULLSPACE
 QS| Number of grid levels:                                                    4
 QS| Density cutoff [a.u.]:                                                500.0
 QS| Multi grid cutoff [a.u.]: 1) grid level                               500.0
 QS|                           2) grid level                               166.7
 QS|                           3) grid level                                55.6
 QS|                           4) grid level                                18.5
 QS| Grid level progression factor:                                          3.0
 QS| Relative density cutoff [a.u.]:                                        50.0
 QS| Interaction thresholds: eps_pgf_orb:                                1.0E-16
 QS|                         eps_filter_matrix:                          0.0E+00
 QS|                         eps_core_charge:                            1.0E-18
 QS|                         eps_rho_gspace:                             1.0E-16
 QS|                         eps_rho_rspace:                             1.0E-16
 QS|                         eps_gvg_rspace:                             1.0E-08
 QS|                         eps_ppl:                                    1.0E-02
 QS|                         eps_ppnl:                                   1.0E-10


 ATOMIC KIND INFORMATION

  1. Atomic kind: Bi                                    Number of atoms:       6

     Orbital Basis Set                                aug-TZVP-MOLOPT-GTH-tier-2

       Number of orbital shell sets:                                           1
       Number of orbital shells:                                              14
       Number of primitive Cartesian functions:                                6
       Number of Cartesian basis functions:                                   69
       Number of spherical basis functions:                                   54
       Norm type:                                                              2

       Normalised Cartesian orbitals:

                        Set   Shell   Orbital            Exponent    Coefficient

                          1       1    2s                0.041275       0.036970
                                                         0.065905       0.000000
                                                         0.105231       0.143008
                                                         0.244984      -0.634634
                                                         1.112852       1.652867
                                                         1.476279      -0.997444

                          1       2    3s                0.041275       0.012494
                                                         0.065905       0.000000
                                                         0.105231       0.099805
                                                         0.244984       0.037757
                                                         1.112852      -0.165742
                                                         1.476279       0.075949

                          1       3    4s                0.041275      -0.093379
                                                         0.065905       0.000000
                                                         0.105231       0.059838
                                                         0.244984       0.118362
                                                         1.112852       0.390054
                                                         1.476279      -0.415974

                          1       4    5s                0.041275       0.234809
                                                         0.065905      -0.418569
                                                         0.105231       0.073809
                                                         0.244984       0.005753
                                                         1.112852       0.000000
                                                         1.476279       0.000000

                          1       5    3px               0.041275       0.016319
                                                         0.065905       0.000000
                                                         0.105231       0.071240
                                                         0.244984      -0.349920
                                                         1.112852       0.914642
                                                         1.476279      -0.495330
                          1       5    3py               0.041275       0.016319
                                                         0.065905       0.000000
                                                         0.105231       0.071240
                                                         0.244984      -0.349920
                                                         1.112852       0.914642
                                                         1.476279      -0.495330
                          1       5    3pz               0.041275       0.016319
                                                         0.065905       0.000000
                                                         0.105231       0.071240
                                                         0.244984      -0.349920
                                                         1.112852       0.914642
                                                         1.476279      -0.495330

                          1       6    4px               0.041275       0.005556
                                                         0.065905       0.000000
                                                         0.105231       0.049044
                                                         0.244984       0.086390
                                                         1.112852      -0.270445
                                                         1.476279       0.147718
                          1       6    4py               0.041275       0.005556
                                                         0.065905       0.000000
                                                         0.105231       0.049044
                                                         0.244984       0.086390
                                                         1.112852      -0.270445
                                                         1.476279       0.147718
                          1       6    4pz               0.041275       0.005556
                                                         0.065905       0.000000
                                                         0.105231       0.049044
                                                         0.244984       0.086390
                                                         1.112852      -0.270445
                                                         1.476279       0.147718

                          1       7    5px               0.041275      -0.036259
                                                         0.065905       0.000000
                                                         0.105231       0.055940
                                                         0.244984       0.006851
                                                         1.112852       0.797077
                                                         1.476279      -0.656714
                          1       7    5py               0.041275      -0.036259
                                                         0.065905       0.000000
                                                         0.105231       0.055940
                                                         0.244984       0.006851
                                                         1.112852       0.797077
                                                         1.476279      -0.656714
                          1       7    5pz               0.041275      -0.036259
                                                         0.065905       0.000000
                                                         0.105231       0.055940
                                                         0.244984       0.006851
                                                         1.112852       0.797077
                                                         1.476279      -0.656714

                          1       8    6px               0.041275       0.054666
                                                         0.065905      -0.104555
                                                         0.105231      -0.025387
                                                         0.244984      -0.003462
                                                         1.112852       0.000000
                                                         1.476279       0.000000
                          1       8    6py               0.041275       0.054666
                                                         0.065905      -0.104555
                                                         0.105231      -0.025387
                                                         0.244984      -0.003462
                                                         1.112852       0.000000
                                                         1.476279       0.000000
                          1       8    6pz               0.041275       0.054666
                                                         0.065905      -0.104555
                                                         0.105231      -0.025387
                                                         0.244984      -0.003462
                                                         1.112852       0.000000
                                                         1.476279       0.000000

                          1       9    4dx2              0.041275      -0.001828
                                                         0.065905       0.000000
                                                         0.105231      -0.010675
                                                         0.244984      -0.083232
                                                         1.112852       0.508863
                                                         1.476279      -0.420686
                          1       9    4dxy              0.041275      -0.003166
                                                         0.065905       0.000000
                                                         0.105231      -0.018489
                                                         0.244984      -0.144163
                                                         1.112852       0.881376
                                                         1.476279      -0.728650
                          1       9    4dxz              0.041275      -0.003166
                                                         0.065905       0.000000
                                                         0.105231      -0.018489
                                                         0.244984      -0.144163
                                                         1.112852       0.881376
                                                         1.476279      -0.728650
                          1       9    4dy2              0.041275      -0.001828
                                                         0.065905       0.000000
                                                         0.105231      -0.010675
                                                         0.244984      -0.083232
                                                         1.112852       0.508863
                                                         1.476279      -0.420686
                          1       9    4dyz              0.041275      -0.003166
                                                         0.065905       0.000000
                                                         0.105231      -0.018489
                                                         0.244984      -0.144163
                                                         1.112852       0.881376
                                                         1.476279      -0.728650
                          1       9    4dz2              0.041275      -0.001828
                                                         0.065905       0.000000
                                                         0.105231      -0.010675
                                                         0.244984      -0.083232
                                                         1.112852       0.508863
                                                         1.476279      -0.420686

                          1      10    5dx2              0.041275       0.003551
                                                         0.065905       0.000000
                                                         0.105231       0.025154
                                                         0.244984      -0.088808
                                                         1.112852       0.361337
                                                         1.476279      -0.209042
                          1      10    5dxy              0.041275       0.006151
                                                         0.065905       0.000000
                                                         0.105231       0.043568
                                                         0.244984      -0.153821
                                                         1.112852       0.625855
                                                         1.476279      -0.362072
                          1      10    5dxz              0.041275       0.006151
                                                         0.065905       0.000000
                                                         0.105231       0.043568
                                                         0.244984      -0.153821
                                                         1.112852       0.625855
                                                         1.476279      -0.362072
                          1      10    5dy2              0.041275       0.003551
                                                         0.065905       0.000000
                                                         0.105231       0.025154
                                                         0.244984      -0.088808
                                                         1.112852       0.361337
                                                         1.476279      -0.209042
                          1      10    5dyz              0.041275       0.006151
                                                         0.065905       0.000000
                                                         0.105231       0.043568
                                                         0.244984      -0.153821
                                                         1.112852       0.625855
                                                         1.476279      -0.362072
                          1      10    5dz2              0.041275       0.003551
                                                         0.065905       0.000000
                                                         0.105231       0.025154
                                                         0.244984      -0.088808
                                                         1.112852       0.361337
                                                         1.476279      -0.209042

                          1      11    6dx2              0.041275       0.002085
                                                         0.065905       0.000373
                                                         0.105231       0.014215
                                                         0.244984       0.050648
                                                         1.112852       0.000000
                                                         1.476279       0.000000
                          1      11    6dxy              0.041275       0.003612
                                                         0.065905       0.000646
                                                         0.105231       0.024621
                                                         0.244984       0.087725
                                                         1.112852       0.000000
                                                         1.476279       0.000000
                          1      11    6dxz              0.041275       0.003612
                                                         0.065905       0.000646
                                                         0.105231       0.024621
                                                         0.244984       0.087725
                                                         1.112852       0.000000
                                                         1.476279       0.000000
                          1      11    6dy2              0.041275       0.002085
                                                         0.065905       0.000373
                                                         0.105231       0.014215
                                                         0.244984       0.050648
                                                         1.112852       0.000000
                                                         1.476279       0.000000
                          1      11    6dyz              0.041275       0.003612
                                                         0.065905       0.000646
                                                         0.105231       0.024621
                                                         0.244984       0.087725
                                                         1.112852       0.000000
                                                         1.476279       0.000000
                          1      11    6dz2              0.041275       0.002085
                                                         0.065905       0.000373
                                                         0.105231       0.014215
                                                         0.244984       0.050648
                                                         1.112852       0.000000
                                                         1.476279       0.000000

                          1      12    5fx3              0.041275       0.000400
                                                         0.065905       0.000000
                                                         0.105231      -0.002865
                                                         0.244984       0.065556
                                                         1.112852       0.459413
                                                         1.476279      -0.602018
                          1      12    5fx2y             0.041275       0.000895
                                                         0.065905       0.000000
                                                         0.105231      -0.006406
                                                         0.244984       0.146588
                                                         1.112852       1.027279
                                                         1.476279      -1.346154
                          1      12    5fx2z             0.041275       0.000895
                                                         0.065905       0.000000
                                                         0.105231      -0.006406
                                                         0.244984       0.146588
                                                         1.112852       1.027279
                                                         1.476279      -1.346154
                          1      12    5fxy2             0.041275       0.000895
                                                         0.065905       0.000000
                                                         0.105231      -0.006406
                                                         0.244984       0.146588
                                                         1.112852       1.027279
                                                         1.476279      -1.346154
                          1      12    5fxyz             0.041275       0.001550
                                                         0.065905       0.000000
                                                         0.105231      -0.011096
                                                         0.244984       0.253897
                                                         1.112852       1.779300
                                                         1.476279      -2.331607
                          1      12    5fxz2             0.041275       0.000895
                                                         0.065905       0.000000
                                                         0.105231      -0.006406
                                                         0.244984       0.146588
                                                         1.112852       1.027279
                                                         1.476279      -1.346154
                          1      12    5fy3              0.041275       0.000400
                                                         0.065905       0.000000
                                                         0.105231      -0.002865
                                                         0.244984       0.065556
                                                         1.112852       0.459413
                                                         1.476279      -0.602018
                          1      12    5fy2z             0.041275       0.000895
                                                         0.065905       0.000000
                                                         0.105231      -0.006406
                                                         0.244984       0.146588
                                                         1.112852       1.027279
                                                         1.476279      -1.346154
                          1      12    5fyz2             0.041275       0.000895
                                                         0.065905       0.000000
                                                         0.105231      -0.006406
                                                         0.244984       0.146588
                                                         1.112852       1.027279
                                                         1.476279      -1.346154
                          1      12    5fz3              0.041275       0.000400
                                                         0.065905       0.000000
                                                         0.105231      -0.002865
                                                         0.244984       0.065556
                                                         1.112852       0.459413
                                                         1.476279      -0.602018

                          1      13    6fx3              0.041275       0.000000
                                                         0.065905      -0.000325
                                                         0.105231       0.008817
                                                         0.244984       0.011474
                                                         1.112852       0.000000
                                                         1.476279       0.000000
                          1      13    6fx2y             0.041275       0.000001
                                                         0.065905      -0.000727
                                                         0.105231       0.019716
                                                         0.244984       0.025657
                                                         1.112852       0.000000
                                                         1.476279       0.000000
                          1      13    6fx2z             0.041275       0.000001
                                                         0.065905      -0.000727
                                                         0.105231       0.019716
                                                         0.244984       0.025657
                                                         1.112852       0.000000
                                                         1.476279       0.000000
                          1      13    6fxy2             0.041275       0.000001
                                                         0.065905      -0.000727
                                                         0.105231       0.019716
                                                         0.244984       0.025657
                                                         1.112852       0.000000
                                                         1.476279       0.000000
                          1      13    6fxyz             0.041275       0.000001
                                                         0.065905      -0.001259
                                                         0.105231       0.034150
                                                         0.244984       0.044438
                                                         1.112852       0.000000
                                                         1.476279       0.000000
                          1      13    6fxz2             0.041275       0.000001
                                                         0.065905      -0.000727
                                                         0.105231       0.019716
                                                         0.244984       0.025657
                                                         1.112852       0.000000
                                                         1.476279       0.000000
                          1      13    6fy3              0.041275       0.000000
                                                         0.065905      -0.000325
                                                         0.105231       0.008817
                                                         0.244984       0.011474
                                                         1.112852       0.000000
                                                         1.476279       0.000000
                          1      13    6fy2z             0.041275       0.000001
                                                         0.065905      -0.000727
                                                         0.105231       0.019716
                                                         0.244984       0.025657
                                                         1.112852       0.000000
                                                         1.476279       0.000000
                          1      13    6fyz2             0.041275       0.000001
                                                         0.065905      -0.000727
                                                         0.105231       0.019716
                                                         0.244984       0.025657
                                                         1.112852       0.000000
                                                         1.476279       0.000000
                          1      13    6fz3              0.041275       0.000000
                                                         0.065905      -0.000325
                                                         0.105231       0.008817
                                                         0.244984       0.011474
                                                         1.112852       0.000000
                                                         1.476279       0.000000

                          1      14    6gx4              0.041275      -0.000019
                                                         0.065905       0.000072
                                                         0.105231       0.000309
                                                         0.244984       0.020541
                                                         1.112852       0.000000
                                                         1.476279       0.000000
                          1      14    6gx3y             0.041275      -0.000051
                                                         0.065905       0.000191
                                                         0.105231       0.000818
                                                         0.244984       0.054347
                                                         1.112852       0.000000
                                                         1.476279       0.000000
                          1      14    6gx3z             0.041275      -0.000051
                                                         0.065905       0.000191
                                                         0.105231       0.000818
                                                         0.244984       0.054347
                                                         1.112852       0.000000
                                                         1.476279       0.000000
                          1      14    6gx2y2            0.041275      -0.000065
                                                         0.065905       0.000246
                                                         0.105231       0.001056
                                                         0.244984       0.070162
                                                         1.112852       0.000000
                                                         1.476279       0.000000
                          1      14    6gx2yz            0.041275      -0.000113
                                                         0.065905       0.000427
                                                         0.105231       0.001829
                                                         0.244984       0.121524
                                                         1.112852       0.000000
                                                         1.476279       0.000000
                          1      14    6gx2z2            0.041275      -0.000065
                                                         0.065905       0.000246
                                                         0.105231       0.001056
                                                         0.244984       0.070162
                                                         1.112852       0.000000
                                                         1.476279       0.000000
                          1      14    6gxy3             0.041275      -0.000051
                                                         0.065905       0.000191
                                                         0.105231       0.000818
                                                         0.244984       0.054347
                                                         1.112852       0.000000
                                                         1.476279       0.000000
                          1      14    6gxy2z            0.041275      -0.000113
                                                         0.065905       0.000427
                                                         0.105231       0.001829
                                                         0.244984       0.121524
                                                         1.112852       0.000000
                                                         1.476279       0.000000
                          1      14    6gxyz2            0.041275      -0.000113
                                                         0.065905       0.000427
                                                         0.105231       0.001829
                                                         0.244984       0.121524
                                                         1.112852       0.000000
                                                         1.476279       0.000000
                          1      14    6gxz3             0.041275      -0.000051
                                                         0.065905       0.000191
                                                         0.105231       0.000818
                                                         0.244984       0.054347
                                                         1.112852       0.000000
                                                         1.476279       0.000000
                          1      14    6gy4              0.041275      -0.000019
                                                         0.065905       0.000072
                                                         0.105231       0.000309
                                                         0.244984       0.020541
                                                         1.112852       0.000000
                                                         1.476279       0.000000
                          1      14    6gy3z             0.041275      -0.000051
                                                         0.065905       0.000191
                                                         0.105231       0.000818
                                                         0.244984       0.054347
                                                         1.112852       0.000000
                                                         1.476279       0.000000
                          1      14    6gy2z2            0.041275      -0.000065
                                                         0.065905       0.000246
                                                         0.105231       0.001056
                                                         0.244984       0.070162
                                                         1.112852       0.000000
                                                         1.476279       0.000000
                          1      14    6gyz3             0.041275      -0.000051
                                                         0.065905       0.000191
                                                         0.105231       0.000818
                                                         0.244984       0.054347
                                                         1.112852       0.000000
                                                         1.476279       0.000000
                          1      14    6gz4              0.041275      -0.000019
                                                         0.065905       0.000072
                                                         0.105231       0.000309
                                                         0.244984       0.020541
                                                         1.112852       0.000000
                                                         1.476279       0.000000

       Atomic covalent radius [Angstrom]:                                  1.460

       Atomic van der Waals radius [Angstrom]:                             2.070

     GTH Potential information for                                       GTH-PBE

       Description:                       Goedecker-Teter-Hutter pseudopotential
                                           Goedecker et al., PRB 54, 1703 (1996)
                                          Hartwigsen et al., PRB 58, 3641 (1998)
                                                      Krack, TCA 114, 145 (2005)

       Gaussian exponent of the core charge distribution:               1.366027
       Electronic configuration (s p d ...):                               2   3

       Parameters of the local part of the GTH pseudopotential:

                          rloc        C1          C2          C3          C4
                        0.605000    7.945757

       Parameters of the non-local part of the GTH (SOC) pseudopotential:

                   l      r(l)      h(i,j,l)
                                    k(i,j,l)
                   0    0.582232    0.643735    2.247616   -1.440601
                                    2.247616   -5.244797    3.719615
                                   -1.440601    3.719615   -2.952353
                   1    0.766394    0.212533    0.379834
                                    0.379834   -0.449426
                                    0.339106   -0.021086
                                   -0.021086    0.024949
                   2    0.965655    0.347298
                                    0.020357


 MOLECULE KIND INFORMATION


 All atoms are their own molecule, skipping detailed information


 TOTAL NUMBERS AND MAXIMUM NUMBERS

  Total number of            - Atomic kinds:                                   1
                             - Atoms:                                          6
                             - Shell sets:                                     6
                             - Shells:                                        84
                             - Primitive Cartesian functions:                 36
                             - Cartesian basis functions:                    414
                             - Spherical basis functions:                    324

  Maximum angular momentum of- Orbital basis functions:                        4
                             - Local part of the GTH pseudopotential:          0
                             - Non-local part of the GTH pseudopotential:      4


 MODULE QUICKSTEP: ATOMIC COORDINATES IN ANGSTROM

   Atom Kind Element         X             Y             Z       Z(eff)     Mass
      1    1 Bi   83      0.000000      0.000000      2.847474   5.0000 208.9804
      2    1 Bi   83      0.000000      0.000000      9.334756   5.0000 208.9804
      3    1 Bi   83      2.294353      1.324619      6.908177   5.0000 208.9804
      4    1 Bi   83      2.294353      1.324619      1.213228   5.0000 208.9804
      5    1 Bi   83     -0.000023      2.649277     10.969002   5.0000 208.9804
      6    1 Bi   83     -0.000023      2.649277      5.274053   5.0000 208.9804



 SCF PARAMETERS         Density guess:                                    ATOMIC
                        --------------------------------------------------------
                        max_scf:                                             500
                        max_scf_history:                                       0
                        max_diis:                                              4
                        --------------------------------------------------------
                        eps_scf:                                        1.00E-09
                        eps_scf_history:                                0.00E+00
                        eps_diis:                                       1.00E-01
                        eps_eigval:                                     1.00E-05
                        --------------------------------------------------------
                        level_shift [a.u.]:                             0.000000
                        added MOs                                       309    0
                        --------------------------------------------------------
                        Mixing method:                            BROYDEN_MIXING
                                                charge density mixing in g-space
                        --------------------------------------------------------
                        Smear method:                                FERMI_DIRAC
                        Electronic temperature [K]:                        300.0
                        Electronic temperature [a.u.]:                  9.50E-04
                        Accuracy threshold:                             1.00E-10
                        --------------------------------------------------------
                        No outer SCF

 PW_GRID| Information for grid number                                          1
 PW_GRID| Grid distributed over                                    16 processors
 PW_GRID| Real space group dimensions                                    16    1
 PW_GRID| the grid is blocked:                                                NO
 PW_GRID| Cutoff [a.u.]                                                    500.0
 PW_GRID| spherical cutoff:                                                   NO
 PW_GRID|   Bounds   1            -45      44                Points:          90
 PW_GRID|   Bounds   2            -45      44                Points:          90
 PW_GRID|   Bounds   3           -120     119                Points:         240
 PW_GRID| Volume element (a.u.^3)  0.7711E-03     Volume (a.u.^3)      1499.0834
 PW_GRID| Grid span                                                    FULLSPACE
 PW_GRID|   Distribution                         Average         Max         Min
 PW_GRID|   G-Vectors                           121500.0      121500      121500
 PW_GRID|   G-Rays                                1350.0        1350        1350
 PW_GRID|   Real Space Points                   121500.0      129600      108000

 PW_GRID| Information for grid number                                          2
 PW_GRID| Number of the reference grid                                         1
 PW_GRID| Grid distributed over                                    16 processors
 PW_GRID| Real space group dimensions                                    16    1
 PW_GRID| the grid is blocked:                                                NO
 PW_GRID| Cutoff [a.u.]                                                    166.7
 PW_GRID| spherical cutoff:                                                   NO
 PW_GRID|   Bounds   1            -27      26                Points:          54
 PW_GRID|   Bounds   2            -27      26                Points:          54
 PW_GRID|   Bounds   3            -67      67                Points:         135
 PW_GRID| Volume element (a.u.^3)  0.3808E-02     Volume (a.u.^3)      1499.0834
 PW_GRID| Grid span                                                    FULLSPACE
 PW_GRID|   Distribution                         Average         Max         Min
 PW_GRID|   G-Vectors                            24603.8       24732       24516
 PW_GRID|   G-Rays                                 455.6         458         454
 PW_GRID|   Real Space Points                    24603.8       29160       21870

 PW_GRID| Information for grid number                                          3
 PW_GRID| Number of the reference grid                                         1
 PW_GRID| Grid distributed over                                    16 processors
 PW_GRID| Real space group dimensions                                    16    1
 PW_GRID| the grid is blocked:                                                NO
 PW_GRID| Cutoff [a.u.]                                                     55.6
 PW_GRID| spherical cutoff:                                                   NO
 PW_GRID|   Bounds   1            -15      14                Points:          30
 PW_GRID|   Bounds   2            -15      14                Points:          30
 PW_GRID|   Bounds   3            -40      39                Points:          80
 PW_GRID| Volume element (a.u.^3)  0.2082E-01     Volume (a.u.^3)      1499.0834
 PW_GRID| Grid span                                                    FULLSPACE
[...]
 8     collocate general  CPU                                3487788      50.62%
 8     integrate general  CPU                                3402720      49.38%
 0     collocate general  CPU                                     12       0.00%
 0     integrate general  CPU                                      6       0.00%
 -------------------------------------------------------------------------------

 MEMORY| Estimated peak process memory [MiB]                                3017

 -------------------------------------------------------------------------------
 ----                             MULTIGRID INFO                            ----
 -------------------------------------------------------------------------------
 count for grid        1:              0          cutoff [a.u.]          500.00
 count for grid        2:         278025          cutoff [a.u.]          166.67
 count for grid        3:          13711          cutoff [a.u.]           55.56
 count for grid        4:         289535          cutoff [a.u.]           18.52
 total gridlevel count  :         581271

 -------------------------------------------------------------------------------
 -                                                                             -
 -                         MESSAGE PASSING PERFORMANCE                         -
 -                                                                             -
 -------------------------------------------------------------------------------

 ROUTINE             CALLS      AVE VOLUME [Bytes]
 MP_Group                5
 MP_Bcast           368862                   1568.
 MP_Allreduce       139517                    226.
 MP_Sync                 4
 MP_Alltoall           725                5548553.
 MP_SendRecv          2490                 338871.
 MP_ISendRecv         2415                 334748.
 MP_Wait            252015
 MP_comm_split           3
 MP_ISend           257280                  25065.
 MP_IRecv           430080                  11255.
 -------------------------------------------------------------------------------


 -------------------------------------------------------------------------------
 -                                                                             -
 -                           R E F E R E N C E S                               -
 -                                                                             -
 -------------------------------------------------------------------------------
 
 CP2K version 2025.1 (Development Version), the CP2K developers group (2025).
 CP2K is freely available from https://www.cp2k.org/ .
 
 T. D. Kuehne, M. Iannuzzi, M. Del Ben, V. V. Rybkin, P. Seewald, F. Stein, T. 
 Laino, R. Z. Khaliullin, O. Schuett, F. Schiffmann, D. Golze, J. Wilhelm, S. 
 Chulkov, M. H. Bani-Hashemian, V. Weber, U. Borstnik, M. Taillefumier, A. S. 
 Jakobovits, A. Lazzaro, H. Pabst, T. Mueller, R. Schade, M. Guidon, S. 
 Andermatt, N. Holmberg, G. K. Schenter, A. Hehn, A. Bussy, F. Belleflamme, G. 
 Tabacchi, A. Gloess, M. Lass, I. Bethune, C. J. Mundy, C. Plessl, M. Watkins, 
 J. VandeVondele, M. Krack, J. Hutter.
 J. Chem. Phys. 152, 194103 (2020).
 CP2K: An electronic structure and molecular dynamics software package - 
 Quickstep: Efficient and accurate electronic structure calculations.
 https://doi.org/10.1063/5.0007045

 O. Schuett, P. Messmer, J. Hutter, J. VandeVondele.
 Electronic Structure Calculations on Graphics Processing Units, 173-190 (2016).
 GPU-Accelerated Sparse Matrix-Matrix Multiplication for Linear Scaling Density 
 Functional Theory.
 https://doi.org/10.1002/9781118670712.ch8

 J. Hutter, M. Iannuzzi, F. Schiffmann, J. VandeVondele.
 WIREs Comput Mol Sci. 4, 15-25 (2014).
 CP2K: atomistic simulations of condensed matter systems.
 https://doi.org/10.1002/wcms.1159

 U. Borstnik, J. VandeVondele, V. Weber, J. Hutter.
 Parallel Comput. 40, 47-58 (2014).
 Sparse matrix multiplication: The distributed block-compressed sparse row 
 library.
 https://doi.org/10.1016/j.parco.2014.03.012

 J. VandeVondele, J. Hutter.
 J. Chem. Phys. 127, 114105 (2007).
 Gaussian basis sets for accurate calculations on molecular systems in gas and 
 condensed phases.
 https://doi.org/10.1063/1.2770708

 J. VandeVondele, M. Krack, F. Mohamed, M. Parrinello, T. Chassaing, J. Hutter.
 Comput. Phys. Commun. 167, 103-128 (2005).
 QUICKSTEP: Fast and accurate density functional calculations using a mixed 
 Gaussian and plane waves approach.
 https://doi.org/10.1016/j.cpc.2004.12.014

 M. Krack.
 Theor. Chem. Acc. 114, 145-152 (2005).
 Pseudopotentials for H to Kr optimized for gradient-corrected 
 exchange-correlation functionals.
 https://doi.org/10.1007/s00214-005-0655-y

 M. Frigo, S. G. Johnson.
 Proc. IEEE 93, 216-231 (2005).
 The design and implementation of FFTW3.
 https://doi.org/10.1109/JPROC.2004.840301

 C. Hartwigsen, S. Goedecker, J. Hutter.
 Phys. Rev. B 58, 3641-3662 (1998).
 Relativistic separable dual-space Gaussian pseudopotentials from H to Rn.
 https://doi.org/10.1103/PhysRevB.58.3641

 G. Lippert, J. Hutter, M. Parrinello.
 Mol. Phys. 92, 477-487 (1997).
 A hybrid Gaussian and plane wave density functional scheme.
 https://doi.org/10.1080/002689797170220

 S. Goedecker, M. Teter, J. Hutter.
 Phys. Rev. B 54, 1703-1710 (1996).
 Separable dual-space Gaussian pseudopotentials.
 https://doi.org/10.1103/PhysRevB.54.1703

 J. P. Perdew, K. Burke, M. Ernzerhof.
 Phys. Rev. Lett. 77, 3865-3868 (1996).
 Generalized gradient approximation made simple.
 https://doi.org/10.1103/PhysRevLett.77.3865


 -------------------------------------------------------------------------------
 -                                                                             -
 -                                T I M I N G                                  -
 -                                                                             -
 -------------------------------------------------------------------------------
 SUBROUTINE                       CALLS  ASD         SELF TIME        TOTAL TIME
                                MAXIMUM       AVERAGE  MAXIMUM  AVERAGE  MAXIMUM
 CP2K                                 1  1.0    0.014    0.018 1270.471 1270.471
 qs_energies                          1  2.0    0.004    0.004 1270.123 1270.139
 scf_env_do_scf                       1  3.0    0.000    0.000 1043.016 1043.016
 scf_env_do_scf_inner_loop           40  4.0    0.043    0.045 1043.015 1043.016
 qs_scf_new_mos_kp                   40  5.0    0.000    0.000  927.672  962.010
 do_general_diag_kp                  40  6.0    0.276    0.295  927.672  962.009
 mp_alltoall_i22                 167696  8.9  492.454  860.503  492.454  860.503
 dbcsr_desymmetrize_deep          97388  7.6    2.588    3.599  372.392  642.059
 rskp_transform                   23780  7.1  235.143  538.857  235.143  538.857
 kpoint_density_transform            40  7.0    0.124    0.133  270.072  273.783
 dbcsr_complete_redistribute      70308  8.4    4.924    6.977  165.948  265.300
 copy_fm_to_dbcsr                 20480  8.0    0.138    0.148  141.767  239.852
 transform_dmat                   10240  8.0   98.718  230.394   98.718  230.394
 qs_energies_properties               1  3.0    0.000    0.000  222.685  222.701
 post_scf_bandstructure               1  4.0    0.000    0.000  222.685  222.701
 cp_cfm_heevd                      3260  7.8    0.007    0.007  144.609  145.505
 cp_cfm_heevd_base                 3260  8.8  144.603  145.498  144.603  145.498
 cp_cfm_geeig_canon                1300  7.0    0.233    0.238  107.456  108.252
 qs_ks_update_qs_env                 40  5.0    0.000    0.000   40.108   85.749
 rsmat_to_kp                       3300  7.0    0.067    0.072   82.874   83.968
 rebuild_ks_matrix                   40  6.0    0.000    0.000   37.270   82.911
 qs_ks_build_kohn_sham_matrix        40  7.0    0.080    0.082   37.270   82.911
 create_and_init_bs_env               1  5.0    0.000    0.000   82.413   82.414
 compute_cfm_mo_coeff_kp_and_ei       1  6.0    0.066    0.248   82.410   82.410
 sum_up_and_integrate                40  8.0    0.001    0.001   35.697   81.281
 integrate_v_rspace                  40  9.0    0.204    0.444   35.695   81.279
 grid_integrate_task_list            40 10.0   34.522   79.924   34.522   79.924
 dos_pdos_ldos                        1  5.0    0.041    0.105   78.638   78.654
 SOC_ev                             660  6.0    0.079    0.118   73.702   73.768
 transfer_rs2pw                     166  8.0    0.003    0.003   39.537   69.092
 transfer_rs2pw_500                  43  8.9    0.324    0.340   39.296   68.847
 mp_sendrecv_dv                    2490 10.0   39.131   68.672   39.131   68.672
 qs_rho_update_rho_low               41  5.0    0.000    0.000   68.484   68.551
 calculate_rho_elec                  41  6.0    0.084    0.148   68.484   68.551
 density_rs2pw                       41  7.0    0.002    0.002   39.053   67.781
 grid_collocate_task_list            41  7.0   29.336   66.947   29.336   66.947
 soc                                  1  5.0    0.000    0.001   61.634   61.635
 H_KS_spinor_kp                       1  6.0    0.029    0.054   59.670   61.176
 cp_fm_start_copy_general         61440  7.3    4.068    7.874   47.443   50.613
 copy_dbcsr_to_fm                 49828  7.1    0.639    0.662   41.346   43.874
 mp_allgather_i                  122880  8.3   38.873   42.797   38.873   42.797
 cp_cfm_gemm                       7200  8.5   34.919   35.189   34.919   35.189
 parallel_gemm_cfm                 3300  7.0    0.005    0.006   19.844   20.002
 parallel_gemm_cfm_gemm            3300  8.0    0.005    0.006   19.838   19.997
 kpoint_density_matrices             40  7.0    0.092    0.099   14.576   18.456
 parallel_gemm_fm                  2560  8.0    0.004    0.004   14.342   18.220
 parallel_gemm_fm_gemm             2560  9.0    0.004    0.004   14.338   18.217
 cp_fm_gemm                        2560 10.0   14.335   18.213   14.335   18.213
 add_cfm_submat                    5280  7.0    0.055    0.060   11.271   13.330
 mp_alltoall_d11v                503088  9.5   11.768   12.648   11.768   12.648
 cp_fm_to_fm_submat               10560  8.0   10.322   12.386   10.322   12.386
 dbcsr_finalize                  218765  8.6    1.013    1.273    7.166    8.383
 hybrid_alltoall_any              97388  8.6    0.459    0.500    6.502    7.358
 kpoint_set_mo_occupation            40  7.0    5.063    5.103    6.198    6.875
 mp_alltoall_i11v                308312  9.1    5.405    6.493    5.405    6.493
 cp_fm_finish_copy_general        23040  7.9    4.054    6.097    4.111    6.163
 mp_cart_sub                      99658  9.1    5.713    5.754    5.713    5.754
 dbcsr_create_new                361486  8.1    4.016    5.244    4.376    5.616
 dbcsr_merge_all                  73707 10.3    2.134    3.197    4.072    5.148
 write_kpoints_restart               40  5.0    0.010    0.024    4.697    4.699
 mp_cart_create                   49834  9.1    3.725    4.010    3.725    4.010
 compute_proj_mo_on_kind            660  6.0    0.042    0.065    3.624    3.779
 add_to_DOS_PDOS                   1320  6.5    3.476    3.517    3.476    3.517
 mp_bcast_iv                     245787  8.3    3.152    3.402    3.152    3.402
 dbcsr_dot                        90641  8.0    1.028    1.892    2.963    3.122
 cp_dbcsr_alloc_block_from_nbl    22702  6.6    0.937    2.042    1.410    3.029
 cp_fm_write_unformatted           2266  6.0    0.975    2.384    1.387    3.028
 V_SOC_xyz_from_pseudopotential       1  6.0    0.035    0.036    1.964    2.941
 evaluate_core_matrix_traces         40  6.0    0.000    0.000    2.838    2.838
 calculate_ptrace_kp                 80  7.0    0.068    0.069    2.838    2.838
 self_consistency_check              40  5.0    0.066    0.069    2.432    2.819
 mp_sum_d                         91383  9.0    1.849    2.813    1.849    2.813
 alloc_cfm_double_array_1d            1  7.0    0.020    0.032    1.305    2.811
 create_cfm_double                  660  8.0    0.087    0.280    1.284    2.792
 mp_sum_iv                         1340  8.9    1.291    2.769    1.291    2.769
 cp_sm_mix                        45320  6.0    0.473    0.945    2.134    2.698
 copy_dbcsr_to_fm_bc              49828  8.1    1.043    2.039    1.707    2.667
 mp_max_d                         45322  7.0    1.555    2.489    1.555    2.489
 copy_fm_to_dbcsr_bc              20480  9.0    0.400    0.648    1.335    2.271
 init_scf_run                         1  3.0    0.000    0.000    1.913    2.067
 scf_env_initial_rho_setup            1  4.0    0.000    0.000    1.913    2.067
 mp_send_dv                        2266  7.0    0.382    2.066    0.382    2.066
 qs_energies_init_hamiltonians        1  3.0    0.000    0.000    2.016    2.017
 dbcsr_work_create               171095  8.9    1.089    1.186    1.838    1.986
 mp_waitall_1                    252015  8.4    0.521    1.949    0.521    1.949
 mp_sum_dm3                          40  8.0    1.135    1.819    1.135    1.819
 tree_to_linear_d                 70308 11.4    1.267    1.765    1.267    1.765
 build_core_hamiltonian_matrix        1  4.0    0.004    0.004    0.954    1.738
 qs_env_update_s_mstruct              1  4.0    0.000    0.000    0.925    1.670
 dbcsr_copy                      115652  6.9    0.678    0.840    1.266    1.668
 calculate_rho_core                   1  5.0    0.002    0.004    0.813    1.659
 dbcsr_iterator_start            592820  9.0    1.277    1.323    1.522    1.572
 dbcsr_data_new                 1842261  9.8    1.338    1.525    1.338    1.525
 fft_wrap_pw1pw2                    725 10.0    0.008    0.009    1.407    1.454
 dbcsr_set                       219999  7.7    0.227    0.238    0.787    1.439
 dbcsr_work_destroy_all          171095  9.9    0.818    0.846    1.362    1.436
 fft_wrap_pw1pw2_500                482 11.3    0.098    0.099    1.306    1.352
 build_core_ppnl                      2  6.0    1.042    1.336    1.042    1.336
 dbcsr_data_release             2629857 10.2    1.211    1.283    1.211    1.283
 cp_cfm_scale_and_add_fm          13120  7.8    0.973    1.246    0.973    1.246
 dbcsr_zero                      219999  8.7    0.560    1.206    0.560    1.206
 fft3d_ps                           725 12.0    0.487    0.529    1.136    1.187
 dbcsr_reserve_blocks             43182  9.2    0.651    1.120    0.695    1.182
 dbcsr_destroy                   267447  8.2    0.471    0.500    1.029    1.134
 dbcsr_data_copy_aa2              70308 11.3    0.366    1.130    0.366    1.130
 potential_pw2rs                     40 10.0    0.003    0.004    0.968    1.024
 qs_vxc_create                       40  8.0    0.001    0.001    0.924    0.931
 xc_vxc_pw_create                    40  9.0    0.038    0.041    0.923    0.930
 dbcsr_iterator_stop             592820  9.0    0.750    0.773    0.897    0.928
 gspace_mixing                       39  5.0    0.034    0.036    0.855    0.855
 transfer_pw2rs                     161 11.0    0.001    0.001    0.782    0.783
 broyden_mixing                      39  6.0    0.679    0.701    0.709    0.713
 mp_bcast_im                     122880  8.3    0.680    0.708    0.680    0.708
 mp_comm_free                    150181  9.1    0.600    0.695    0.600    0.695
 quick_finalize                   97388  9.6    0.335    0.349    0.639    0.674
 dbcsr_copy_into_existing         21613  9.8    0.302    0.536    0.430    0.665
 dbcsr_add_d                       3399  7.0    0.004    0.004    0.486    0.647
 dbcsr_add_anytype                 3399  8.0    0.035    0.063    0.482    0.643
 mp_alltoall_z22v                   725 14.0    0.552    0.640    0.552    0.640
 write_SOC_eigenvalues              148  6.0    0.039    0.629    0.039    0.629
 xc_pw_derive                       240 11.0    0.001    0.001    0.588    0.615
 mp_isend_dv                      61440  8.3    0.427    0.604    0.427    0.604
 transfer_pw2rs_500                  41 11.9    0.340    0.359    0.573    0.593
 build_core_ppl                       1  5.0    0.320    0.589    0.320    0.589
 xc_rho_set_and_dset_create          40 10.0    0.021    0.026    0.488    0.513
 mp_recv_dv                       11330  7.0    0.030    0.480    0.030    0.480
 dbcsr_reserve_all_blocks         20480 10.0    0.039    0.043    0.272    0.460
 cp_fm_create                     22591  7.9    0.274    0.451    0.274    0.451
 cp_cfm_to_fm                      6580  7.8    0.299    0.420    0.299    0.420
 xc_pw_divergence                    40 10.0    0.000    0.001    0.386    0.410
 yz_to_x                            325 12.8    0.031    0.036    0.324    0.395
 mixing_allocate                      1  3.0    0.007    0.007    0.178    0.366
 calculate_first_density_matrix       1  5.0    0.001    0.001    0.204    0.358
 calculate_atomic_block_dm            1  6.0    0.001    0.001    0.198    0.356
 x_to_yz                            400 13.2    0.058    0.063    0.317    0.338
 dbcsr_sort_indices              210878 10.8    0.289    0.330    0.289    0.330
 dbcsr_iterator_seek             592820 10.0    0.245    0.301    0.245    0.301
 build_overlap_matrix_low             1  5.0    0.059    0.117    0.140    0.288
 build_kinetic_matrix_low             1  5.0    0.056    0.107    0.135    0.275
 dbcsr_make_index_exist          361486  9.1    0.232    0.260    0.232    0.260
 cp_cfm_zscale                     5260  7.2    0.176    0.256    0.176    0.256
 calculate_ecore_overlap              1  4.0    0.000    0.000    0.129    0.230
 cp_fm_set_all                    10560  8.0    0.141    0.198    0.141    0.198
 transfer_rs2pw_170                  41  9.0    0.065    0.070    0.180    0.196
 merge_index                      73707 11.3    0.151    0.191    0.151    0.191
 mp_sum_dv                         1359  7.0    0.113    0.190    0.113    0.190
 mp_isendrecv_dv                   2415 13.0    0.072    0.189    0.072    0.189
 xc_functional_eval                  40 11.0    0.000    0.000    0.169    0.188
 pbe_lda_eval                        40 12.0    0.168    0.187    0.168    0.187
 qs_env_rebuild_rho                   1  5.0    0.000    0.000    0.087    0.181
 qs_rho_rebuild                       1  6.0    0.003    0.003    0.087    0.181
 transfer_pw2rs_170                  40 12.0    0.074    0.080    0.157    0.174
 qs_scf_ensure_work_matrices          1  3.0    0.000    0.000    0.094    0.171
 cp_fm_to_fm_matrix                1280  8.0    0.137    0.143    0.137    0.143
 cp_cfm_column_scale               1300  8.0    0.128    0.142    0.128    0.142
 dbcsr_scale_anytype               3400  9.0    0.028    0.045    0.126    0.141
 mp_irecv_iv                     245760  8.3    0.009    0.140    0.009    0.140
 dbcsr_switch_data_area           97388 10.6    0.096    0.099    0.133    0.139
 parser_read_line                  8869  4.0    0.003    0.003    0.136    0.138
 parser_read_line_low                26  6.1    0.010    0.075    0.133    0.135
 broadcast_input_information         26  7.1    0.028    0.033    0.123    0.130
 -------------------------------------------------------------------------------

 The number of warnings for this run is : 1
 
 -------------------------------------------------------------------------------
  **** **** ******  **  PROGRAM ENDED AT                 2025-08-07 22:18:58.018
 ***** ** ***  *** **   PROGRAM RAN ON                              i04r10c05s03
 **    ****   ******    PROGRAM RAN BY                                   di38fab
 ***** **    ** ** **   PROGRAM PROCESS ID                               1021132
  **** **  *******  **  PROGRAM STOPPED IN /hppfs/scratch/04/di38fab/09_GTH/Delt
                                           a_Set/Bi/aug-TZVP-MOLOPT-GTH-tier-2/8
                                           x8x8
