   3   3   0   0
  0.2028471E+02  0.7640040E-09  0.7640040E-09  0.7640040E-09  0.5000000E-15
  1.000000000000000E-004
  CAR 
 Li                                      
     47.31061852    -50.34294537  301      0.55360601      1.00000000
    -50.343  0.0000E+00  0.0000E+00
    -50.017  0.0000E+00  0.0000E+00
    -49.692  0.0000E+00  0.0000E+00
    -49.366  0.0000E+00  0.0000E+00
    -49.041  0.0000E+00  0.0000E+00
    -48.715  0.0000E+00  0.0000E+00
    -48.390  0.0000E+00  0.0000E+00
    -48.064  0.0000E+00  0.0000E+00
    -47.739  0.0000E+00  0.0000E+00
    -47.413  0.0000E+00  0.0000E+00
    -47.088  0.0000E+00  0.0000E+00
    -46.762  0.0000E+00  0.0000E+00
    -46.437  0.0000E+00  0.0000E+00
    -46.111  0.3241E-08  0.1055E-08
    -45.786  0.1839E+02  0.5985E+01
    -45.460  0.0000E+00  0.6000E+01
    -45.135  0.0000E+00  0.6000E+01
    -44.809  0.0000E+00  0.6000E+01
    -44.484  0.0000E+00  0.6000E+01
    -44.158  0.0000E+00  0.6000E+01
    -43.833  0.0000E+00  0.6000E+01
    -43.507  0.0000E+00  0.6000E+01
    -43.182  0.0000E+00  0.6000E+01
    -42.856  0.0000E+00  0.6000E+01
    -42.531  0.0000E+00  0.6000E+01
    -42.205  0.0000E+00  0.6000E+01
    -41.880  0.0000E+00  0.6000E+01
    -41.554  0.0000E+00  0.6000E+01
    -41.229  0.0000E+00  0.6000E+01
    -40.903  0.0000E+00  0.6000E+01
    -40.578  0.0000E+00  0.6000E+01
    -40.252  0.0000E+00  0.6000E+01
    -39.927  0.0000E+00  0.6000E+01
    -39.601  0.0000E+00  0.6000E+01
    -39.276  0.0000E+00  0.6000E+01
    -38.950  0.0000E+00  0.6000E+01
    -38.625  0.0000E+00  0.6000E+01
    -38.299  0.0000E+00  0.6000E+01
    -37.973  0.0000E+00  0.6000E+01
    -37.648  0.0000E+00  0.6000E+01
    -37.322  0.0000E+00  0.6000E+01
    -36.997  0.0000E+00  0.6000E+01
    -36.671  0.0000E+00  0.6000E+01
    -36.346  0.0000E+00  0.6000E+01
    -36.020  0.0000E+00  0.6000E+01
    -35.695  0.0000E+00  0.6000E+01
    -35.369  0.0000E+00  0.6000E+01
    -35.044  0.0000E+00  0.6000E+01
    -34.718  0.0000E+00  0.6000E+01
    -34.393  0.0000E+00  0.6000E+01
    -34.067  0.0000E+00  0.6000E+01
    -33.742  0.0000E+00  0.6000E+01
    -33.416  0.0000E+00  0.6000E+01
    -33.091  0.0000E+00  0.6000E+01
    -32.765  0.0000E+00  0.6000E+01
    -32.440  0.0000E+00  0.6000E+01
    -32.114  0.0000E+00  0.6000E+01
    -31.789  0.0000E+00  0.6000E+01
    -31.463  0.0000E+00  0.6000E+01
    -31.138  0.0000E+00  0.6000E+01
    -30.812  0.0000E+00  0.6000E+01
    -30.487  0.0000E+00  0.6000E+01
    -30.161  0.0000E+00  0.6000E+01
    -29.836  0.0000E+00  0.6000E+01
    -29.510  0.0000E+00  0.6000E+01
    -29.185  0.0000E+00  0.6000E+01
    -28.859  0.0000E+00  0.6000E+01
    -28.534  0.0000E+00  0.6000E+01
    -28.208  0.0000E+00  0.6000E+01
    -27.883  0.0000E+00  0.6000E+01
    -27.557  0.0000E+00  0.6000E+01
    -27.232  0.0000E+00  0.6000E+01
    -26.906  0.0000E+00  0.6000E+01
    -26.581  0.0000E+00  0.6000E+01
    -26.255  0.0000E+00  0.6000E+01
    -25.930  0.0000E+00  0.6000E+01
    -25.604  0.0000E+00  0.6000E+01
    -25.279  0.0000E+00  0.6000E+01
    -24.953  0.0000E+00  0.6000E+01
    -24.628  0.0000E+00  0.6000E+01
    -24.302  0.0000E+00  0.6000E+01
    -23.976  0.0000E+00  0.6000E+01
    -23.651  0.0000E+00  0.6000E+01
    -23.325  0.0000E+00  0.6000E+01
    -23.000  0.0000E+00  0.6000E+01
    -22.674  0.0000E+00  0.6000E+01
    -22.349  0.0000E+00  0.6000E+01
    -22.023  0.0000E+00  0.6000E+01
    -21.698  0.0000E+00  0.6000E+01
    -21.372  0.0000E+00  0.6000E+01
    -21.047  0.0000E+00  0.6000E+01
    -20.721  0.0000E+00  0.6000E+01
    -20.396  0.0000E+00  0.6000E+01
    -20.070  0.0000E+00  0.6000E+01
    -19.745  0.0000E+00  0.6000E+01
    -19.419  0.0000E+00  0.6000E+01
    -19.094  0.0000E+00  0.6000E+01
    -18.768  0.0000E+00  0.6000E+01
    -18.443  0.0000E+00  0.6000E+01
    -18.117  0.0000E+00  0.6000E+01
    -17.792  0.0000E+00  0.6000E+01
    -17.466  0.0000E+00  0.6000E+01
    -17.141  0.0000E+00  0.6000E+01
    -16.815  0.0000E+00  0.6000E+01
    -16.490  0.0000E+00  0.6000E+01
    -16.164  0.0000E+00  0.6000E+01
    -15.839  0.0000E+00  0.6000E+01
    -15.513  0.0000E+00  0.6000E+01
    -15.188  0.0000E+00  0.6000E+01
    -14.862  0.0000E+00  0.6000E+01
    -14.537  0.0000E+00  0.6000E+01
    -14.211  0.0000E+00  0.6000E+01
    -13.886  0.0000E+00  0.6000E+01
    -13.560  0.0000E+00  0.6000E+01
    -13.235  0.0000E+00  0.6000E+01
    -12.909  0.0000E+00  0.6000E+01
    -12.584  0.0000E+00  0.6000E+01
    -12.258  0.0000E+00  0.6000E+01
    -11.933  0.0000E+00  0.6000E+01
    -11.607  0.0000E+00  0.6000E+01
    -11.282  0.0000E+00  0.6000E+01
    -10.956  0.0000E+00  0.6000E+01
    -10.630  0.0000E+00  0.6000E+01
    -10.305  0.0000E+00  0.6000E+01
     -9.979  0.0000E+00  0.6000E+01
     -9.654  0.0000E+00  0.6000E+01
     -9.328  0.0000E+00  0.6000E+01
     -9.003  0.0000E+00  0.6000E+01
     -8.677  0.0000E+00  0.6000E+01
     -8.352  0.0000E+00  0.6000E+01
     -8.026  0.0000E+00  0.6000E+01
     -7.701  0.0000E+00  0.6000E+01
     -7.375  0.0000E+00  0.6000E+01
     -7.050  0.0000E+00  0.6000E+01
     -6.724  0.0000E+00  0.6000E+01
     -6.399  0.0000E+00  0.6000E+01
     -6.073  0.0000E+00  0.6000E+01
     -5.748  0.0000E+00  0.6000E+01
     -5.422  0.0000E+00  0.6000E+01
     -5.097  0.0000E+00  0.6000E+01
     -4.771  0.0000E+00  0.6000E+01
     -4.446  0.0000E+00  0.6000E+01
     -4.120  0.0000E+00  0.6000E+01
     -3.795  0.0000E+00  0.6000E+01
     -3.469  0.0000E+00  0.6000E+01
     -3.144  0.5540E-10  0.6000E+01
     -2.818  0.4673E-01  0.6015E+01
     -2.493  0.4015E+00  0.6146E+01
     -2.167  0.3800E+00  0.6270E+01
     -1.842  0.8038E+00  0.6531E+01
     -1.516  0.5851E+00  0.6722E+01
     -1.191  0.6916E+00  0.6947E+01
     -0.865  0.1126E+01  0.7314E+01
     -0.540  0.1075E+01  0.7664E+01
     -0.214  0.7891E+00  0.7921E+01
      0.111  0.9656E+00  0.8236E+01
      0.437  0.1744E+01  0.8804E+01
      0.762  0.1419E+01  0.9266E+01
      1.088  0.1358E+01  0.9709E+01
      1.413  0.1031E+01  0.1004E+02
      1.739  0.1733E+01  0.1061E+02
      2.064  0.1040E+01  0.1095E+02
      2.390  0.1237E+01  0.1135E+02
      2.715  0.1186E+01  0.1174E+02
      3.041  0.5239E+00  0.1191E+02
      3.367  0.6526E-01  0.1193E+02
      3.692  0.4047E+00  0.1206E+02
      4.018  0.1619E+01  0.1259E+02
      4.343  0.1751E+01  0.1316E+02
      4.669  0.2222E+01  0.1388E+02
      4.994  0.1338E+01  0.1432E+02
      5.320  0.1404E+01  0.1478E+02
      5.645  0.1131E+01  0.1514E+02
      5.971  0.1067E+01  0.1549E+02
      6.296  0.1002E+01  0.1582E+02
      6.622  0.1508E+01  0.1631E+02
      6.947  0.2229E+01  0.1703E+02
      7.273  0.1136E+01  0.1740E+02
      7.598  0.1304E+01  0.1783E+02
      7.924  0.1907E+01  0.1845E+02
      8.249  0.1772E+01  0.1903E+02
      8.575  0.1608E+01  0.1955E+02
      8.900  0.9381E+00  0.1986E+02
      9.226  0.1746E+01  0.2043E+02
      9.551  0.2842E+01  0.2135E+02
      9.877  0.2241E+01  0.2208E+02
     10.202  0.1664E+01  0.2262E+02
     10.528  0.2133E+01  0.2332E+02
     10.853  0.1906E+01  0.2394E+02
     11.179  0.1934E+01  0.2457E+02
     11.504  0.2085E+01  0.2525E+02
     11.830  0.2204E+01  0.2597E+02
     12.155  0.2576E+01  0.2681E+02
     12.481  0.2340E+01  0.2757E+02
     12.806  0.2497E+01  0.2838E+02
     13.132  0.1507E+01  0.2887E+02
     13.457  0.1729E+01  0.2944E+02
     13.783  0.1369E+01  0.2988E+02
     14.108  0.1380E+01  0.3033E+02
     14.434  0.1988E+01  0.3098E+02
     14.759  0.1499E+01  0.3147E+02
     15.085  0.1395E+01  0.3192E+02
     15.410  0.1770E+01  0.3250E+02
     15.736  0.1726E+01  0.3306E+02
     16.061  0.3671E+01  0.3426E+02
     16.387  0.2271E+01  0.3500E+02
     16.713  0.2473E+01  0.3580E+02
     17.038  0.8865E+00  0.3609E+02
     17.364  0.1549E+01  0.3660E+02
     17.689  0.1134E+01  0.3697E+02
     18.015  0.1202E+01  0.3736E+02
     18.340  0.2002E+01  0.3801E+02
     18.666  0.2839E+01  0.3893E+02
     18.991  0.1955E+01  0.3957E+02
     19.317  0.2906E+01  0.4052E+02
     19.642  0.1776E+01  0.4109E+02
     19.968  0.1675E+01  0.4164E+02
     20.293  0.1790E+01  0.4222E+02
     20.619  0.1966E+01  0.4286E+02
     20.944  0.1719E+01  0.4342E+02
     21.270  0.2055E+01  0.4409E+02
     21.595  0.2703E+01  0.4497E+02
     21.921  0.1939E+01  0.4560E+02
     22.246  0.2451E+01  0.4640E+02
     22.572  0.2761E+01  0.4730E+02
     22.897  0.1806E+01  0.4789E+02
     23.223  0.2899E+01  0.4883E+02
     23.548  0.1761E+01  0.4941E+02
     23.874  0.1867E+01  0.5002E+02
     24.199  0.3161E+01  0.5104E+02
     24.525  0.2062E+01  0.5172E+02
     24.850  0.2577E+01  0.5256E+02
     25.176  0.2061E+01  0.5323E+02
     25.501  0.1935E+01  0.5386E+02
     25.827  0.1861E+01  0.5446E+02
     26.152  0.2928E+01  0.5542E+02
     26.478  0.2162E+01  0.5612E+02
     26.803  0.3148E+01  0.5715E+02
     27.129  0.2202E+01  0.5787E+02
     27.454  0.2454E+01  0.5866E+02
     27.780  0.2912E+01  0.5961E+02
     28.105  0.2430E+01  0.6040E+02
     28.431  0.2727E+01  0.6129E+02
     28.756  0.2110E+01  0.6198E+02
     29.082  0.3108E+01  0.6299E+02
     29.407  0.2047E+01  0.6366E+02
     29.733  0.2428E+01  0.6445E+02
     30.058  0.2552E+01  0.6528E+02
     30.384  0.2768E+01  0.6618E+02
     30.710  0.3988E+01  0.6748E+02
     31.035  0.2634E+01  0.6834E+02
     31.361  0.1857E+01  0.6895E+02
     31.686  0.3327E+01  0.7003E+02
     32.012  0.3254E+01  0.7109E+02
     32.337  0.2798E+01  0.7200E+02
     32.663  0.2502E+01  0.7282E+02
     32.988  0.1980E+01  0.7346E+02
     33.314  0.2068E+01  0.7414E+02
     33.639  0.2176E+01  0.7484E+02
     33.965  0.2945E+01  0.7580E+02
     34.290  0.2627E+01  0.7666E+02
     34.616  0.2409E+01  0.7744E+02
     34.941  0.2088E+01  0.7812E+02
     35.267  0.3691E+01  0.7932E+02
     35.592  0.2812E+01  0.8024E+02
     35.918  0.2544E+01  0.8107E+02
     36.243  0.2730E+01  0.8196E+02
     36.569  0.1879E+01  0.8257E+02
     36.894  0.2390E+01  0.8335E+02
     37.220  0.2601E+01  0.8420E+02
     37.545  0.2567E+01  0.8503E+02
     37.871  0.2523E+01  0.8585E+02
     38.196  0.2991E+01  0.8683E+02
     38.522  0.2827E+01  0.8775E+02
     38.847  0.3143E+01  0.8877E+02
     39.173  0.3400E+01  0.8988E+02
     39.498  0.3682E+01  0.9108E+02
     39.824  0.3046E+01  0.9207E+02
     40.149  0.2915E+01  0.9302E+02
     40.475  0.2443E+01  0.9382E+02
     40.800  0.2362E+01  0.9459E+02
     41.126  0.8770E+00  0.9487E+02
     41.451  0.1113E+01  0.9524E+02
     41.777  0.1153E+01  0.9561E+02
     42.102  0.2888E+00  0.9571E+02
     42.428  0.3168E+00  0.9581E+02
     42.753  0.4334E+00  0.9595E+02
     43.079  0.1486E+00  0.9600E+02
     43.404  0.0000E+00  0.9600E+02
     43.730  0.0000E+00  0.9600E+02
     44.055  0.0000E+00  0.9600E+02
     44.381  0.0000E+00  0.9600E+02
     44.707  0.0000E+00  0.9600E+02
     45.032  0.0000E+00  0.9600E+02
     45.358  0.0000E+00  0.9600E+02
     45.683  0.0000E+00  0.9600E+02
     46.009  0.0000E+00  0.9600E+02
     46.334  0.0000E+00  0.9600E+02
     46.660  0.0000E+00  0.9600E+02
     46.985  0.0000E+00  0.9600E+02
     47.311  0.0000E+00  0.9600E+02
