 DBCSR| CPU Multiplication driver                                           BLAS (U)
 DBCSR| Multrec recursion limit                                              512 (U)
 DBCSR| Multiplication stack size                                           1000 (D)
 DBCSR| Maximum elements for images                                    UNLIMITED (U)
 DBCSR| Multiplicative factor virtual images                                   1 (U)
 DBCSR| Use multiplication densification                                       T (D)
 DBCSR| Multiplication size stacks                                             3 (U)
 DBCSR| Use memory pool for CPU allocation                                     F (U)
 DBCSR| Number of 3D layers                                               SINGLE (U)
 DBCSR| Use MPI memory allocation                                              F (U)
 DBCSR| Use RMA algorithm                                                      F (U)
 DBCSR| Use Communication thread                                               T (U)
 DBCSR| Communication thread load                                             45 (D)
 DBCSR| MPI: My process id                                                     0
 DBCSR| MPI: Number of processes                                              16
 DBCSR| OMP: Current number of threads                                        12
 DBCSR| OMP: Max number of threads                                            12
 DBCSR| Split modifier for TAS multiplication algorithm                  1.0E+00 (U)


  **** **** ******  **  PROGRAM STARTED AT               2025-08-05 20:41:37.089
 ***** ** ***  *** **   PROGRAM STARTED ON                          i01r07c04s08
 **    ****   ******    PROGRAM STARTED BY                               di38fab
 ***** **    ** ** **   PROGRAM PROCESS ID                               4123936
  **** **  *******  **  PROGRAM STARTED IN /hppfs/scratch/04/di38fab/09_GTH/Delt
                                           a_Set/Ar/aug-TZVP-MOLOPT-GTH-tier-2/8
                                           x8x8

 CP2K| version string:                 CP2K version 2025.1 (Development Version)
 CP2K| source code revision number:                                  git:3130539
 CP2K| cp2kflags: omp libint fftw3 libxc parallel scalapack max_contr=4         
 CP2K| is freely available from                            https://www.cp2k.org/
 CP2K| Program compiled at                         Tue Jun  3 16:14:32 CEST 2025
 CP2K| Program compiled on                                               login01
 CP2K| Program compiled for                                        Supermuc-foss
 CP2K| Data directory path                  /hppfs/work/pn36zo/di38fab/cp2k/data
 CP2K| Input file name                                                    GW.inp

 GLOBAL| Force Environment number                                              1
 GLOBAL| Basis set file name            /hppfs/scratch/04/di38fab/09_GTH/BASIS_A
 GLOBAL| Potential file name            /hppfs/work/pn36zo/di38fab/cp2k/data/GTH
 GLOBAL| MM Potential file name                                     MM_POTENTIAL
 GLOBAL| Coordinate file name                                             Ar.cif
 GLOBAL| Method name                                                        CP2K
 GLOBAL| Project name                                                       WSe2
 GLOBAL| Run type                                                         ENERGY
 GLOBAL| FFT library                                                       FFTW3
 GLOBAL| Diagonalization library                                       ScaLAPACK
 GLOBAL| Cholesky decomposition library                                ScaLAPACK
 GLOBAL| DGEMM library                                                      BLAS
 GLOBAL| Orthonormality check for eigenvectors                          DISABLED
 GLOBAL| Matrix multiplication library                                 ScaLAPACK
 GLOBAL| All-to-all communication in single precision                          F
 GLOBAL| FFTs using library dependent lengths                                  F
 GLOBAL| Grid backend                                                       AUTO
 GLOBAL| Global print level                                               MEDIUM
 GLOBAL| MPI I/O enabled                                                       T
 GLOBAL| Total number of message passing processes                            16
 GLOBAL| Number of threads for this process                                   12
 GLOBAL| This output is from process                                           0
 GLOBAL| OpenMP stack size per thread (OMP_STACKSIZE)                    default
 GLOBAL| CPU model name             Intel(R) Xeon(R) Platinum 8174 CPU @ 3.10GHz

 MEMORY| system memory details [Kb]
 MEMORY|                        rank 0           min           max       average
 MEMORY| MemTotal             98436660      98436660      98436692      98436669
 MEMORY| MemFree              84643336      84643336      85197548      84817423
 MEMORY| Buffers                     0             0             0             0
 MEMORY| Cached                2378956       2378956       2405740       2391679
 MEMORY| Slab                  1274516       1256024       1295684       1280028
 MEMORY| SReclaimable           279604        279604        286584        282577
 MEMORY| MemLikelyFree        87301896      87301896      87863796      87491679


 *** Fundamental physical constants (SI units) ***

 *** Literature: B. J. Mohr and B. N. Taylor,
 ***             CODATA recommended values of the fundamental physical
 ***             constants: 2006, Web Version 5.1
 ***             http://physics.nist.gov/constants

 Speed of light in vacuum [m/s]                             2.99792458000000E+08
 Magnetic constant or permeability of vacuum [N/A**2]       1.25663706143592E-06
 Electric constant or permittivity of vacuum [F/m]          8.85418781762039E-12
 Planck constant (h) [J*s]                                  6.62606896000000E-34
 Planck constant (h-bar) [J*s]                              1.05457162825177E-34
 Elementary charge [C]                                      1.60217648700000E-19
 Electron mass [kg]                                         9.10938215000000E-31
 Electron g factor [ ]                                     -2.00231930436220E+00
 Proton mass [kg]                                           1.67262163700000E-27
 Fine-structure constant                                    7.29735253760000E-03
 Rydberg constant [1/m]                                     1.09737315685270E+07
 Avogadro constant [1/mol]                                  6.02214179000000E+23
 Boltzmann constant [J/K]                                   1.38065040000000E-23
 Atomic mass unit [kg]                                      1.66053878200000E-27
 Bohr radius [m]                                            5.29177208590000E-11

 *** Conversion factors ***

 [u] -> [a.u.]                                              1.82288848426455E+03
 [Angstrom] -> [Bohr] = [a.u.]                              1.88972613288564E+00
 [a.u.] = [Bohr] -> [Angstrom]                              5.29177208590000E-01
 [a.u.] -> [s]                                              2.41888432650478E-17
 [a.u.] -> [fs]                                             2.41888432650478E-02
 [a.u.] -> [J]                                              4.35974393937059E-18
 [a.u.] -> [N]                                              8.23872205491840E-08
 [a.u.] -> [K]                                              3.15774647902944E+05
 [a.u.] -> [kJ/mol]                                         2.62549961709828E+03
 [a.u.] -> [kcal/mol]                                       6.27509468713739E+02
 [a.u.] -> [Pa]                                             2.94210107994716E+13
 [a.u.] -> [bar]                                            2.94210107994716E+08
 [a.u.] -> [atm]                                            2.90362800883016E+08
 [a.u.] -> [eV]                                             2.72113838565563E+01
 [a.u.] -> [Hz]                                             6.57968392072181E+15
 [a.u.] -> [1/cm] (wave numbers)                            2.19474631370540E+05
 [a.u./Bohr**2] -> [1/cm]                                   5.14048714338585E+03
 

 CELL_TOP| Volume [angstrom^3]:                                       210.707544
 CELL_TOP| Vector a [angstrom     5.951     0.000     0.000   |a| =     5.950590
 CELL_TOP| Vector b [angstrom     0.000     5.951     0.000   |b| =     5.950590
 CELL_TOP| Vector c [angstrom     0.000     0.000     5.951   |c| =     5.950590
 CELL_TOP| Angle (b,c), alpha [degree]:                                90.000000
 CELL_TOP| Angle (a,c), beta  [degree]:                                90.000000
 CELL_TOP| Angle (a,b), gamma [degree]:                                90.000000
 CELL_TOP| Numerically orthorhombic:                                         YES
 CELL_TOP| Periodicity                                                       XYZ

 CELL_CIF| Volume [angstrom^3]:                                       210.707544
 CELL_CIF| Vector a [angstrom     5.951     0.000     0.000   |a| =     5.950590
 CELL_CIF| Vector b [angstrom     0.000     5.951     0.000   |b| =     5.950590
 CELL_CIF| Vector c [angstrom     0.000     0.000     5.951   |c| =     5.950590
 CELL_CIF| Angle (b,c), alpha [degree]:                                90.000000
 CELL_CIF| Angle (a,c), beta  [degree]:                                90.000000
 CELL_CIF| Angle (a,b), gamma [degree]:                                90.000000
 CELL_CIF| Numerically orthorhombic:                                         YES
 CELL_CIF| Periodicity                                                       XYZ

 GENERATE|  Preliminary Number of Bonds generated:                             0
 GENERATE|  Achieved consistency in connectivity generation.

 CELL| Volume [angstrom^3]:                                           210.707544
 CELL| Vector a [angstrom]:       5.951     0.000     0.000   |a| =     5.950590
 CELL| Vector b [angstrom]:       0.000     5.951     0.000   |b| =     5.950590
 CELL| Vector c [angstrom]:       0.000     0.000     5.951   |c| =     5.950590
 CELL| Angle (b,c), alpha [degree]:                                    90.000000
 CELL| Angle (a,c), beta  [degree]:                                    90.000000
 CELL| Angle (a,b), gamma [degree]:                                    90.000000
 CELL| Numerically orthorhombic:                                             YES
 CELL| Periodicity                                                           XYZ

 CELL_REF| Volume [angstrom^3]:                                       210.707544
 CELL_REF| Vector a [angstrom     5.951     0.000     0.000   |a| =     5.950590
 CELL_REF| Vector b [angstrom     0.000     5.951     0.000   |b| =     5.950590
 CELL_REF| Vector c [angstrom     0.000     0.000     5.951   |c| =     5.950590
 CELL_REF| Angle (b,c), alpha [degree]:                                90.000000
 CELL_REF| Angle (a,c), beta  [degree]:                                90.000000
 CELL_REF| Angle (a,b), gamma [degree]:                                90.000000
 CELL_REF| Numerically orthorhombic:                                         YES
 CELL_REF| Periodicity                                                       XYZ

 *** WARNING in cryssym.F:180 :: Symmetry library SPGLIB not available ***


 *******************************************************************************
                                    Kpoints
 *******************************************************************************
 BRILLOUIN| K-point scheme                                        Monkhorst-Pack
 BRILLOUIN| K-Point grid                                             8    8    8
 BRILLOUIN| Accuracy in Symmetry determination                      0.100000E-05
 BRILLOUIN| K-Point point group symmetrization                               OFF
 BRILLOUIN| Wavefunction type                                            COMPLEX
 BRILLOUIN| List of Kpoints [2 Pi/Bohr]                                      256
 BRILLOUIN| Number           Weight            X              Y              Z
 BRILLOUIN|     1           0.00391       -0.43750       -0.43750       -0.43750
 BRILLOUIN|     2           0.00391       -0.43750       -0.43750       -0.31250
 BRILLOUIN|     3           0.00391       -0.43750       -0.43750       -0.18750
 BRILLOUIN|     4           0.00391       -0.43750       -0.43750       -0.06250
 BRILLOUIN|     5           0.00391       -0.43750       -0.43750        0.06250
 BRILLOUIN|     6           0.00391       -0.43750       -0.43750        0.18750
 BRILLOUIN|     7           0.00391       -0.43750       -0.43750        0.31250
 BRILLOUIN|     8           0.00391       -0.43750       -0.43750        0.43750
 BRILLOUIN|     9           0.00391       -0.43750       -0.31250       -0.43750
 BRILLOUIN|    10           0.00391       -0.43750       -0.31250       -0.31250
 BRILLOUIN|    11           0.00391       -0.43750       -0.31250       -0.18750
 BRILLOUIN|    12           0.00391       -0.43750       -0.31250       -0.06250
 BRILLOUIN|    13           0.00391       -0.43750       -0.31250        0.06250
 BRILLOUIN|    14           0.00391       -0.43750       -0.31250        0.18750
 BRILLOUIN|    15           0.00391       -0.43750       -0.31250        0.31250
 BRILLOUIN|    16           0.00391       -0.43750       -0.31250        0.43750
 BRILLOUIN|    17           0.00391       -0.43750       -0.18750       -0.43750
 BRILLOUIN|    18           0.00391       -0.43750       -0.18750       -0.31250
 BRILLOUIN|    19           0.00391       -0.43750       -0.18750       -0.18750
 BRILLOUIN|    20           0.00391       -0.43750       -0.18750       -0.06250
 BRILLOUIN|    21           0.00391       -0.43750       -0.18750        0.06250
 BRILLOUIN|    22           0.00391       -0.43750       -0.18750        0.18750
 BRILLOUIN|    23           0.00391       -0.43750       -0.18750        0.31250
 BRILLOUIN|    24           0.00391       -0.43750       -0.18750        0.43750
 BRILLOUIN|    25           0.00391       -0.43750       -0.06250       -0.43750
 BRILLOUIN|    26           0.00391       -0.43750       -0.06250       -0.31250
 BRILLOUIN|    27           0.00391       -0.43750       -0.06250       -0.18750
 BRILLOUIN|    28           0.00391       -0.43750       -0.06250       -0.06250
 BRILLOUIN|    29           0.00391       -0.43750       -0.06250        0.06250
 BRILLOUIN|    30           0.00391       -0.43750       -0.06250        0.18750
 BRILLOUIN|    31           0.00391       -0.43750       -0.06250        0.31250
 BRILLOUIN|    32           0.00391       -0.43750       -0.06250        0.43750
 BRILLOUIN|    33           0.00391       -0.43750        0.06250       -0.43750
 BRILLOUIN|    34           0.00391       -0.43750        0.06250       -0.31250
 BRILLOUIN|    35           0.00391       -0.43750        0.06250       -0.18750
 BRILLOUIN|    36           0.00391       -0.43750        0.06250       -0.06250
 BRILLOUIN|    37           0.00391       -0.43750        0.06250        0.06250
 BRILLOUIN|    38           0.00391       -0.43750        0.06250        0.18750
 BRILLOUIN|    39           0.00391       -0.43750        0.06250        0.31250
 BRILLOUIN|    40           0.00391       -0.43750        0.06250        0.43750
 BRILLOUIN|    41           0.00391       -0.43750        0.18750       -0.43750
 BRILLOUIN|    42           0.00391       -0.43750        0.18750       -0.31250
 BRILLOUIN|    43           0.00391       -0.43750        0.18750       -0.18750
 BRILLOUIN|    44           0.00391       -0.43750        0.18750       -0.06250
 BRILLOUIN|    45           0.00391       -0.43750        0.18750        0.06250
 BRILLOUIN|    46           0.00391       -0.43750        0.18750        0.18750
 BRILLOUIN|    47           0.00391       -0.43750        0.18750        0.31250
 BRILLOUIN|    48           0.00391       -0.43750        0.18750        0.43750
 BRILLOUIN|    49           0.00391       -0.43750        0.31250       -0.43750
 BRILLOUIN|    50           0.00391       -0.43750        0.31250       -0.31250
 BRILLOUIN|    51           0.00391       -0.43750        0.31250       -0.18750
 BRILLOUIN|    52           0.00391       -0.43750        0.31250       -0.06250
 BRILLOUIN|    53           0.00391       -0.43750        0.31250        0.06250
 BRILLOUIN|    54           0.00391       -0.43750        0.31250        0.18750
 BRILLOUIN|    55           0.00391       -0.43750        0.31250        0.31250
 BRILLOUIN|    56           0.00391       -0.43750        0.31250        0.43750
 BRILLOUIN|    57           0.00391       -0.43750        0.43750       -0.43750
 BRILLOUIN|    58           0.00391       -0.43750        0.43750       -0.31250
 BRILLOUIN|    59           0.00391       -0.43750        0.43750       -0.18750
 BRILLOUIN|    60           0.00391       -0.43750        0.43750       -0.06250
 BRILLOUIN|    61           0.00391       -0.43750        0.43750        0.06250
 BRILLOUIN|    62           0.00391       -0.43750        0.43750        0.18750
 BRILLOUIN|    63           0.00391       -0.43750        0.43750        0.31250
 BRILLOUIN|    64           0.00391       -0.43750        0.43750        0.43750
 BRILLOUIN|    65           0.00391       -0.31250       -0.43750       -0.43750
 BRILLOUIN|    66           0.00391       -0.31250       -0.43750       -0.31250
 BRILLOUIN|    67           0.00391       -0.31250       -0.43750       -0.18750
 BRILLOUIN|    68           0.00391       -0.31250       -0.43750       -0.06250
 BRILLOUIN|    69           0.00391       -0.31250       -0.43750        0.06250
 BRILLOUIN|    70           0.00391       -0.31250       -0.43750        0.18750
 BRILLOUIN|    71           0.00391       -0.31250       -0.43750        0.31250
 BRILLOUIN|    72           0.00391       -0.31250       -0.43750        0.43750
 BRILLOUIN|    73           0.00391       -0.31250       -0.31250       -0.43750
 BRILLOUIN|    74           0.00391       -0.31250       -0.31250       -0.31250
 BRILLOUIN|    75           0.00391       -0.31250       -0.31250       -0.18750
 BRILLOUIN|    76           0.00391       -0.31250       -0.31250       -0.06250
 BRILLOUIN|    77           0.00391       -0.31250       -0.31250        0.06250
 BRILLOUIN|    78           0.00391       -0.31250       -0.31250        0.18750
 BRILLOUIN|    79           0.00391       -0.31250       -0.31250        0.31250
 BRILLOUIN|    80           0.00391       -0.31250       -0.31250        0.43750
 BRILLOUIN|    81           0.00391       -0.31250       -0.18750       -0.43750
 BRILLOUIN|    82           0.00391       -0.31250       -0.18750       -0.31250
 BRILLOUIN|    83           0.00391       -0.31250       -0.18750       -0.18750
 BRILLOUIN|    84           0.00391       -0.31250       -0.18750       -0.06250
 BRILLOUIN|    85           0.00391       -0.31250       -0.18750        0.06250
 BRILLOUIN|    86           0.00391       -0.31250       -0.18750        0.18750
 BRILLOUIN|    87           0.00391       -0.31250       -0.18750        0.31250
 BRILLOUIN|    88           0.00391       -0.31250       -0.18750        0.43750
 BRILLOUIN|    89           0.00391       -0.31250       -0.06250       -0.43750
 BRILLOUIN|    90           0.00391       -0.31250       -0.06250       -0.31250
 BRILLOUIN|    91           0.00391       -0.31250       -0.06250       -0.18750
 BRILLOUIN|    92           0.00391       -0.31250       -0.06250       -0.06250
 BRILLOUIN|    93           0.00391       -0.31250       -0.06250        0.06250
 BRILLOUIN|    94           0.00391       -0.31250       -0.06250        0.18750
 BRILLOUIN|    95           0.00391       -0.31250       -0.06250        0.31250
 BRILLOUIN|    96           0.00391       -0.31250       -0.06250        0.43750
 BRILLOUIN|    97           0.00391       -0.31250        0.06250       -0.43750
 BRILLOUIN|    98           0.00391       -0.31250        0.06250       -0.31250
 BRILLOUIN|    99           0.00391       -0.31250        0.06250       -0.18750
 BRILLOUIN|   100           0.00391       -0.31250        0.06250       -0.06250
 BRILLOUIN|   101           0.00391       -0.31250        0.06250        0.06250
 BRILLOUIN|   102           0.00391       -0.31250        0.06250        0.18750
 BRILLOUIN|   103           0.00391       -0.31250        0.06250        0.31250
 BRILLOUIN|   104           0.00391       -0.31250        0.06250        0.43750
 BRILLOUIN|   105           0.00391       -0.31250        0.18750       -0.43750
 BRILLOUIN|   106           0.00391       -0.31250        0.18750       -0.31250
 BRILLOUIN|   107           0.00391       -0.31250        0.18750       -0.18750
 BRILLOUIN|   108           0.00391       -0.31250        0.18750       -0.06250
 BRILLOUIN|   109           0.00391       -0.31250        0.18750        0.06250
 BRILLOUIN|   110           0.00391       -0.31250        0.18750        0.18750
 BRILLOUIN|   111           0.00391       -0.31250        0.18750        0.31250
 BRILLOUIN|   112           0.00391       -0.31250        0.18750        0.43750
 BRILLOUIN|   113           0.00391       -0.31250        0.31250       -0.43750
 BRILLOUIN|   114           0.00391       -0.31250        0.31250       -0.31250
 BRILLOUIN|   115           0.00391       -0.31250        0.31250       -0.18750
 BRILLOUIN|   116           0.00391       -0.31250        0.31250       -0.06250
 BRILLOUIN|   117           0.00391       -0.31250        0.31250        0.06250
 BRILLOUIN|   118           0.00391       -0.31250        0.31250        0.18750
 BRILLOUIN|   119           0.00391       -0.31250        0.31250        0.31250
 BRILLOUIN|   120           0.00391       -0.31250        0.31250        0.43750
 BRILLOUIN|   121           0.00391       -0.31250        0.43750       -0.43750
 BRILLOUIN|   122           0.00391       -0.31250        0.43750       -0.31250
 BRILLOUIN|   123           0.00391       -0.31250        0.43750       -0.18750
 BRILLOUIN|   124           0.00391       -0.31250        0.43750       -0.06250
 BRILLOUIN|   125           0.00391       -0.31250        0.43750        0.06250
 BRILLOUIN|   126           0.00391       -0.31250        0.43750        0.18750
 BRILLOUIN|   127           0.00391       -0.31250        0.43750        0.31250
 BRILLOUIN|   128           0.00391       -0.31250        0.43750        0.43750
 BRILLOUIN|   129           0.00391       -0.18750       -0.43750       -0.43750
 BRILLOUIN|   130           0.00391       -0.18750       -0.43750       -0.31250
 BRILLOUIN|   131           0.00391       -0.18750       -0.43750       -0.18750
 BRILLOUIN|   132           0.00391       -0.18750       -0.43750       -0.06250
 BRILLOUIN|   133           0.00391       -0.18750       -0.43750        0.06250
 BRILLOUIN|   134           0.00391       -0.18750       -0.43750        0.18750
 BRILLOUIN|   135           0.00391       -0.18750       -0.43750        0.31250
 BRILLOUIN|   136           0.00391       -0.18750       -0.43750        0.43750
 BRILLOUIN|   137           0.00391       -0.18750       -0.31250       -0.43750
 BRILLOUIN|   138           0.00391       -0.18750       -0.31250       -0.31250
 BRILLOUIN|   139           0.00391       -0.18750       -0.31250       -0.18750
 BRILLOUIN|   140           0.00391       -0.18750       -0.31250       -0.06250
 BRILLOUIN|   141           0.00391       -0.18750       -0.31250        0.06250
 BRILLOUIN|   142           0.00391       -0.18750       -0.31250        0.18750
 BRILLOUIN|   143           0.00391       -0.18750       -0.31250        0.31250
 BRILLOUIN|   144           0.00391       -0.18750       -0.31250        0.43750
 BRILLOUIN|   145           0.00391       -0.18750       -0.18750       -0.43750
 BRILLOUIN|   146           0.00391       -0.18750       -0.18750       -0.31250
 BRILLOUIN|   147           0.00391       -0.18750       -0.18750       -0.18750
 BRILLOUIN|   148           0.00391       -0.18750       -0.18750       -0.06250
 BRILLOUIN|   149           0.00391       -0.18750       -0.18750        0.06250
 BRILLOUIN|   150           0.00391       -0.18750       -0.18750        0.18750
 BRILLOUIN|   151           0.00391       -0.18750       -0.18750        0.31250
 BRILLOUIN|   152           0.00391       -0.18750       -0.18750        0.43750
 BRILLOUIN|   153           0.00391       -0.18750       -0.06250       -0.43750
 BRILLOUIN|   154           0.00391       -0.18750       -0.06250       -0.31250
 BRILLOUIN|   155           0.00391       -0.18750       -0.06250       -0.18750
 BRILLOUIN|   156           0.00391       -0.18750       -0.06250       -0.06250
 BRILLOUIN|   157           0.00391       -0.18750       -0.06250        0.06250
 BRILLOUIN|   158           0.00391       -0.18750       -0.06250        0.18750
 BRILLOUIN|   159           0.00391       -0.18750       -0.06250        0.31250
 BRILLOUIN|   160           0.00391       -0.18750       -0.06250        0.43750
 BRILLOUIN|   161           0.00391       -0.18750        0.06250       -0.43750
 BRILLOUIN|   162           0.00391       -0.18750        0.06250       -0.31250
 BRILLOUIN|   163           0.00391       -0.18750        0.06250       -0.18750
 BRILLOUIN|   164           0.00391       -0.18750        0.06250       -0.06250
 BRILLOUIN|   165           0.00391       -0.18750        0.06250        0.06250
 BRILLOUIN|   166           0.00391       -0.18750        0.06250        0.18750
 BRILLOUIN|   167           0.00391       -0.18750        0.06250        0.31250
 BRILLOUIN|   168           0.00391       -0.18750        0.06250        0.43750
 BRILLOUIN|   169           0.00391       -0.18750        0.18750       -0.43750
 BRILLOUIN|   170           0.00391       -0.18750        0.18750       -0.31250
 BRILLOUIN|   171           0.00391       -0.18750        0.18750       -0.18750
 BRILLOUIN|   172           0.00391       -0.18750        0.18750       -0.06250
 BRILLOUIN|   173           0.00391       -0.18750        0.18750        0.06250
 BRILLOUIN|   174           0.00391       -0.18750        0.18750        0.18750
 BRILLOUIN|   175           0.00391       -0.18750        0.18750        0.31250
 BRILLOUIN|   176           0.00391       -0.18750        0.18750        0.43750
 BRILLOUIN|   177           0.00391       -0.18750        0.31250       -0.43750
 BRILLOUIN|   178           0.00391       -0.18750        0.31250       -0.31250
 BRILLOUIN|   179           0.00391       -0.18750        0.31250       -0.18750
 BRILLOUIN|   180           0.00391       -0.18750        0.31250       -0.06250
 BRILLOUIN|   181           0.00391       -0.18750        0.31250        0.06250
 BRILLOUIN|   182           0.00391       -0.18750        0.31250        0.18750
 BRILLOUIN|   183           0.00391       -0.18750        0.31250        0.31250
 BRILLOUIN|   184           0.00391       -0.18750        0.31250        0.43750
 BRILLOUIN|   185           0.00391       -0.18750        0.43750       -0.43750
 BRILLOUIN|   186           0.00391       -0.18750        0.43750       -0.31250
 BRILLOUIN|   187           0.00391       -0.18750        0.43750       -0.18750
 BRILLOUIN|   188           0.00391       -0.18750        0.43750       -0.06250
 BRILLOUIN|   189           0.00391       -0.18750        0.43750        0.06250
 BRILLOUIN|   190           0.00391       -0.18750        0.43750        0.18750
 BRILLOUIN|   191           0.00391       -0.18750        0.43750        0.31250
 BRILLOUIN|   192           0.00391       -0.18750        0.43750        0.43750
 BRILLOUIN|   193           0.00391       -0.06250       -0.43750       -0.43750
 BRILLOUIN|   194           0.00391       -0.06250       -0.43750       -0.31250
 BRILLOUIN|   195           0.00391       -0.06250       -0.43750       -0.18750
 BRILLOUIN|   196           0.00391       -0.06250       -0.43750       -0.06250
 BRILLOUIN|   197           0.00391       -0.06250       -0.43750        0.06250
 BRILLOUIN|   198           0.00391       -0.06250       -0.43750        0.18750
 BRILLOUIN|   199           0.00391       -0.06250       -0.43750        0.31250
 BRILLOUIN|   200           0.00391       -0.06250       -0.43750        0.43750
 BRILLOUIN|   201           0.00391       -0.06250       -0.31250       -0.43750
 BRILLOUIN|   202           0.00391       -0.06250       -0.31250       -0.31250
 BRILLOUIN|   203           0.00391       -0.06250       -0.31250       -0.18750
 BRILLOUIN|   204           0.00391       -0.06250       -0.31250       -0.06250
 BRILLOUIN|   205           0.00391       -0.06250       -0.31250        0.06250
 BRILLOUIN|   206           0.00391       -0.06250       -0.31250        0.18750
 BRILLOUIN|   207           0.00391       -0.06250       -0.31250        0.31250
 BRILLOUIN|   208           0.00391       -0.06250       -0.31250        0.43750
 BRILLOUIN|   209           0.00391       -0.06250       -0.18750       -0.43750
 BRILLOUIN|   210           0.00391       -0.06250       -0.18750       -0.31250
 BRILLOUIN|   211           0.00391       -0.06250       -0.18750       -0.18750
 BRILLOUIN|   212           0.00391       -0.06250       -0.18750       -0.06250
 BRILLOUIN|   213           0.00391       -0.06250       -0.18750        0.06250
 BRILLOUIN|   214           0.00391       -0.06250       -0.18750        0.18750
 BRILLOUIN|   215           0.00391       -0.06250       -0.18750        0.31250
 BRILLOUIN|   216           0.00391       -0.06250       -0.18750        0.43750
 BRILLOUIN|   217           0.00391       -0.06250       -0.06250       -0.43750
 BRILLOUIN|   218           0.00391       -0.06250       -0.06250       -0.31250
 BRILLOUIN|   219           0.00391       -0.06250       -0.06250       -0.18750
 BRILLOUIN|   220           0.00391       -0.06250       -0.06250       -0.06250
 BRILLOUIN|   221           0.00391       -0.06250       -0.06250        0.06250
 BRILLOUIN|   222           0.00391       -0.06250       -0.06250        0.18750
 BRILLOUIN|   223           0.00391       -0.06250       -0.06250        0.31250
 BRILLOUIN|   224           0.00391       -0.06250       -0.06250        0.43750
 BRILLOUIN|   225           0.00391       -0.06250        0.06250       -0.43750
 BRILLOUIN|   226           0.00391       -0.06250        0.06250       -0.31250
 BRILLOUIN|   227           0.00391       -0.06250        0.06250       -0.18750
 BRILLOUIN|   228           0.00391       -0.06250        0.06250       -0.06250
 BRILLOUIN|   229           0.00391       -0.06250        0.06250        0.06250
 BRILLOUIN|   230           0.00391       -0.06250        0.06250        0.18750
 BRILLOUIN|   231           0.00391       -0.06250        0.06250        0.31250
 BRILLOUIN|   232           0.00391       -0.06250        0.06250        0.43750
 BRILLOUIN|   233           0.00391       -0.06250        0.18750       -0.43750
 BRILLOUIN|   234           0.00391       -0.06250        0.18750       -0.31250
 BRILLOUIN|   235           0.00391       -0.06250        0.18750       -0.18750
 BRILLOUIN|   236           0.00391       -0.06250        0.18750       -0.06250
 BRILLOUIN|   237           0.00391       -0.06250        0.18750        0.06250
 BRILLOUIN|   238           0.00391       -0.06250        0.18750        0.18750
 BRILLOUIN|   239           0.00391       -0.06250        0.18750        0.31250
 BRILLOUIN|   240           0.00391       -0.06250        0.18750        0.43750
 BRILLOUIN|   241           0.00391       -0.06250        0.31250       -0.43750
 BRILLOUIN|   242           0.00391       -0.06250        0.31250       -0.31250
 BRILLOUIN|   243           0.00391       -0.06250        0.31250       -0.18750
 BRILLOUIN|   244           0.00391       -0.06250        0.31250       -0.06250
 BRILLOUIN|   245           0.00391       -0.06250        0.31250        0.06250
 BRILLOUIN|   246           0.00391       -0.06250        0.31250        0.18750
 BRILLOUIN|   247           0.00391       -0.06250        0.31250        0.31250
 BRILLOUIN|   248           0.00391       -0.06250        0.31250        0.43750
 BRILLOUIN|   249           0.00391       -0.06250        0.43750       -0.43750
 BRILLOUIN|   250           0.00391       -0.06250        0.43750       -0.31250
 BRILLOUIN|   251           0.00391       -0.06250        0.43750       -0.18750
 BRILLOUIN|   252           0.00391       -0.06250        0.43750       -0.06250
 BRILLOUIN|   253           0.00391       -0.06250        0.43750        0.06250
 BRILLOUIN|   254           0.00391       -0.06250        0.43750        0.18750
 BRILLOUIN|   255           0.00391       -0.06250        0.43750        0.31250
 BRILLOUIN|   256           0.00391       -0.06250        0.43750        0.43750
 *******************************************************************************

 *******************************************************************************
 *******************************************************************************
 **                                                                           **
 **     #####                         ##              ##                      **
 **    ##   ##            ##          ##              ##                      **
 **   ##     ##                       ##            ######                    **
 **   ##     ##  ##   ##  ##   #####  ##  ##   ####   ##    #####    #####    **
 **   ##     ##  ##   ##  ##  ##      ## ##   ##      ##   ##   ##  ##   ##   **
 **   ##  ## ##  ##   ##  ##  ##      ####     ###    ##   ######   ######    **
 **    ##  ###   ##   ##  ##  ##      ## ##      ##   ##   ##       ##        **
 **     #######   #####   ##   #####  ##  ##  ####    ##    #####   ##        **
 **           ##                                                    ##        **
 **                                                                           **
 **                                                ... make the atoms dance   **
 **                                                                           **
 **            Copyright (C) by CP2K developers group (2000-2025)             **
 **                      J. Chem. Phys. 152, 194103 (2020)                    **
 **                                                                           **
 *******************************************************************************

 DFT| Spin restricted Kohn-Sham (RKS) calculation                            RKS
 DFT| Multiplicity                                                             1
 DFT| Number of spin states                                                    1
 DFT| Charge                                                                   0
 DFT| Self-interaction correction (SIC)                                       NO
 DFT| Cutoffs: density                                              1.000000E-10
 DFT|          gradient                                             1.000000E-10
 DFT|          tau                                                  1.000000E-10
 DFT|          cutoff_smoothing_range                               0.000000E+00
 DFT| XC density smoothing                                                  NONE
 DFT| XC derivatives                                                          PW

 FUNCTIONAL| PBE:
 FUNCTIONAL| J.P.Perdew, K.Burke, M.Ernzerhof, Phys. Rev. Letter, vol. 77, n 18,
 FUNCTIONAL|  pp. 3865-3868, (1996) {spin unpolarized}                          


 QS| Method:                                                                 GPW
 QS| Density plane wave grid type                        NON-SPHERICAL FULLSPACE
 QS| Number of grid levels:                                                    4
 QS| Density cutoff [a.u.]:                                                500.0
 QS| Multi grid cutoff [a.u.]: 1) grid level                               500.0
 QS|                           2) grid level                               166.7
 QS|                           3) grid level                                55.6
 QS|                           4) grid level                                18.5
 QS| Grid level progression factor:                                          3.0
 QS| Relative density cutoff [a.u.]:                                        50.0
 QS| Interaction thresholds: eps_pgf_orb:                                1.0E-16
 QS|                         eps_filter_matrix:                          0.0E+00
 QS|                         eps_core_charge:                            1.0E-18
 QS|                         eps_rho_gspace:                             1.0E-16
 QS|                         eps_rho_rspace:                             1.0E-16
 QS|                         eps_gvg_rspace:                             1.0E-08
 QS|                         eps_ppl:                                    1.0E-02
 QS|                         eps_ppnl:                                   1.0E-10


 ATOMIC KIND INFORMATION

  1. Atomic kind: Ar                                    Number of atoms:       4

     Orbital Basis Set                                aug-TZVP-MOLOPT-GTH-tier-2

       Number of orbital shell sets:                                           1
       Number of orbital shells:                                              14
       Number of primitive Cartesian functions:                                6
       Number of Cartesian basis functions:                                   69
       Number of spherical basis functions:                                   54
       Norm type:                                                              2

       Normalised Cartesian orbitals:

                        Set   Shell   Orbital            Exponent    Coefficient

                          1       1    2s                0.126465       0.070468
                                                         0.200000       0.000000
                                                         0.383242       0.206602
                                                         1.018307       0.110761
                                                         2.818191      -0.660865
                                                         4.716627       0.374061

                          1       2    3s                0.126465       0.204252
                                                         0.200000       0.000000
                                                         0.383242      -0.332085
                                                         1.018307      -0.517565
                                                         2.818191       0.088103
                                                         4.716627       1.019787

                          1       3    4s                0.126465       0.013743
                                                         0.200000       0.000000
                                                         0.383242       0.059431
                                                         1.018307       0.103028
                                                         2.818191       0.757891
                                                         4.716627       0.588113

                          1       4    5s                0.126465       0.534803
                                                         0.200000      -0.722686
                                                         0.383242       0.249357
                                                         1.018307      -0.205496
                                                         2.818191       0.000000
                                                         4.716627       0.000000

                          1       5    3px               0.126465      -0.011020
                                                         0.200000       0.000000
                                                         0.383242      -0.233904
                                                         1.018307      -0.547535
                                                         2.818191      -0.723338
                                                         4.716627       0.066992
                          1       5    3py               0.126465      -0.011020
                                                         0.200000       0.000000
                                                         0.383242      -0.233904
                                                         1.018307      -0.547535
                                                         2.818191      -0.723338
                                                         4.716627       0.066992
                          1       5    3pz               0.126465      -0.011020
                                                         0.200000       0.000000
                                                         0.383242      -0.233904
                                                         1.018307      -0.547535
                                                         2.818191      -0.723338
                                                         4.716627       0.066992

                          1       6    4px               0.126465      -0.073124
                                                         0.200000       0.000000
                                                         0.383242      -0.028086
                                                         1.018307       0.068308
                                                         2.818191       3.317578
                                                         4.716627       1.290914
                          1       6    4py               0.126465      -0.073124
                                                         0.200000       0.000000
                                                         0.383242      -0.028086
                                                         1.018307       0.068308
                                                         2.818191       3.317578
                                                         4.716627       1.290914
                          1       6    4pz               0.126465      -0.073124
                                                         0.200000       0.000000
                                                         0.383242      -0.028086
                                                         1.018307       0.068308
                                                         2.818191       3.317578
                                                         4.716627       1.290914

                          1       7    5px               0.126465       0.067058
                                                         0.200000       0.000000
                                                         0.383242       0.035868
                                                         1.018307      -0.750555
                                                         2.818191       3.251514
                                                         4.716627       4.235687
                          1       7    5py               0.126465       0.067058
                                                         0.200000       0.000000
                                                         0.383242       0.035868
                                                         1.018307      -0.750555
                                                         2.818191       3.251514
                                                         4.716627       4.235687
                          1       7    5pz               0.126465       0.067058
                                                         0.200000       0.000000
                                                         0.383242       0.035868
                                                         1.018307      -0.750555
                                                         2.818191       3.251514
                                                         4.716627       4.235687

                          1       8    6px               0.126465       0.301543
                                                         0.200000      -0.478976
                                                         0.383242       0.182453
                                                         1.018307      -0.385526
                                                         2.818191       0.000000
                                                         4.716627       0.000000
                          1       8    6py               0.126465       0.301543
                                                         0.200000      -0.478976
                                                         0.383242       0.182453
                                                         1.018307      -0.385526
                                                         2.818191       0.000000
                                                         4.716627       0.000000
                          1       8    6pz               0.126465       0.301543
                                                         0.200000      -0.478976
                                                         0.383242       0.182453
                                                         1.018307      -0.385526
                                                         2.818191       0.000000
                                                         4.716627       0.000000

                          1       9    4dx2              0.126465      -0.002432
                                                         0.200000       0.000000
                                                         0.383242       0.247981
                                                         1.018307       0.380702
                                                         2.818191       1.766845
                                                         4.716627      -1.292915
                          1       9    4dxy              0.126465      -0.004212
                                                         0.200000       0.000000
                                                         0.383242       0.429516
                                                         1.018307       0.659396
                                                         2.818191       3.060265
                                                         4.716627      -2.239395
                          1       9    4dxz              0.126465      -0.004212
                                                         0.200000       0.000000
                                                         0.383242       0.429516
                                                         1.018307       0.659396
                                                         2.818191       3.060265
                                                         4.716627      -2.239395
                          1       9    4dy2              0.126465      -0.002432
                                                         0.200000       0.000000
                                                         0.383242       0.247981
                                                         1.018307       0.380702
                                                         2.818191       1.766845
                                                         4.716627      -1.292915
                          1       9    4dyz              0.126465      -0.004212
                                                         0.200000       0.000000
                                                         0.383242       0.429516
                                                         1.018307       0.659396
                                                         2.818191       3.060265
                                                         4.716627      -2.239395
                          1       9    4dz2              0.126465      -0.002432
                                                         0.200000       0.000000
                                                         0.383242       0.247981
                                                         1.018307       0.380702
                                                         2.818191       1.766845
                                                         4.716627      -1.292915

                          1      10    5dx2              0.126465       0.016935
                                                         0.200000       0.000000
                                                         0.383242       0.076897
                                                         1.018307      -0.668309
                                                         2.818191      -5.732456
                                                         4.716627      -3.235069
                          1      10    5dxy              0.126465       0.029333
                                                         0.200000       0.000000
                                                         0.383242       0.133189
                                                         1.018307      -1.157544
                                                         2.818191      -9.928905
                                                         4.716627      -5.603303
                          1      10    5dxz              0.126465       0.029333
                                                         0.200000       0.000000
                                                         0.383242       0.133189
                                                         1.018307      -1.157544
                                                         2.818191      -9.928905
                                                         4.716627      -5.603303
                          1      10    5dy2              0.126465       0.016935
                                                         0.200000       0.000000
                                                         0.383242       0.076897
                                                         1.018307      -0.668309
                                                         2.818191      -5.732456
                                                         4.716627      -3.235069
                          1      10    5dyz              0.126465       0.029333
                                                         0.200000       0.000000
                                                         0.383242       0.133189
                                                         1.018307      -1.157544
                                                         2.818191      -9.928905
                                                         4.716627      -5.603303
                          1      10    5dz2              0.126465       0.016935
                                                         0.200000       0.000000
                                                         0.383242       0.076897
                                                         1.018307      -0.668309
                                                         2.818191      -5.732456
                                                         4.716627      -3.235069

                          1      11    6dx2              0.126465       0.054199
                                                         0.200000      -0.023339
                                                         0.383242      -0.011614
                                                         1.018307       0.041199
                                                         2.818191       0.000000
                                                         4.716627       0.000000
                          1      11    6dxy              0.126465       0.093876
                                                         0.200000      -0.040425
                                                         0.383242      -0.020116
                                                         1.018307       0.071359
                                                         2.818191       0.000000
                                                         4.716627       0.000000
                          1      11    6dxz              0.126465       0.093876
                                                         0.200000      -0.040425
                                                         0.383242      -0.020116
                                                         1.018307       0.071359
                                                         2.818191       0.000000
                                                         4.716627       0.000000
                          1      11    6dy2              0.126465       0.054199
                                                         0.200000      -0.023339
                                                         0.383242      -0.011614
                                                         1.018307       0.041199
                                                         2.818191       0.000000
                                                         4.716627       0.000000
                          1      11    6dyz              0.126465       0.093876
                                                         0.200000      -0.040425
                                                         0.383242      -0.020116
                                                         1.018307       0.071359
                                                         2.818191       0.000000
                                                         4.716627       0.000000
                          1      11    6dz2              0.126465       0.054199
                                                         0.200000      -0.023339
                                                         0.383242      -0.011614
                                                         1.018307       0.041199
                                                         2.818191       0.000000
                                                         4.716627       0.000000

                          1      12    5fx3              0.126465       0.000748
                                                         0.200000       0.000000
                                                         0.383242       0.155070
                                                         1.018307       0.207296
                                                         2.818191      -4.351577
                                                         4.716627       2.509514
                          1      12    5fx2y             0.126465       0.001672
                                                         0.200000       0.000000
                                                         0.383242       0.346748
                                                         1.018307       0.463528
                                                         2.818191      -9.730422
                                                         4.716627       5.611443
                          1      12    5fx2z             0.126465       0.001672
                                                         0.200000       0.000000
                                                         0.383242       0.346748
                                                         1.018307       0.463528
                                                         2.818191      -9.730422
                                                         4.716627       5.611443
                          1      12    5fxy2             0.126465       0.001672
                                                         0.200000       0.000000
                                                         0.383242       0.346748
                                                         1.018307       0.463528
                                                         2.818191      -9.730422
                                                         4.716627       5.611443
                          1      12    5fxyz             0.126465       0.002896
                                                         0.200000       0.000000
                                                         0.383242       0.600585
                                                         1.018307       0.802854
                                                         2.818191     -16.853586
                                                         4.716627       9.719305
                          1      12    5fxz2             0.126465       0.001672
                                                         0.200000       0.000000
                                                         0.383242       0.346748
                                                         1.018307       0.463528
                                                         2.818191      -9.730422
                                                         4.716627       5.611443
                          1      12    5fy3              0.126465       0.000748
                                                         0.200000       0.000000
                                                         0.383242       0.155070
                                                         1.018307       0.207296
                                                         2.818191      -4.351577
                                                         4.716627       2.509514
                          1      12    5fy2z             0.126465       0.001672
                                                         0.200000       0.000000
                                                         0.383242       0.346748
                                                         1.018307       0.463528
                                                         2.818191      -9.730422
                                                         4.716627       5.611443
                          1      12    5fyz2             0.126465       0.001672
                                                         0.200000       0.000000
                                                         0.383242       0.346748
                                                         1.018307       0.463528
                                                         2.818191      -9.730422
                                                         4.716627       5.611443
                          1      12    5fz3              0.126465       0.000748
                                                         0.200000       0.000000
                                                         0.383242       0.155070
                                                         1.018307       0.207296
                                                         2.818191      -4.351577
                                                         4.716627       2.509514

                          1      13    6fx3              0.126465       0.000477
                                                         0.200000       0.034764
                                                         0.383242       0.014628
                                                         1.018307       0.087097
                                                         2.818191       0.000000
                                                         4.716627       0.000000
                          1      13    6fx2y             0.126465       0.001068
                                                         0.200000       0.077736
                                                         0.383242       0.032708
                                                         1.018307       0.194756
                                                         2.818191       0.000000
                                                         4.716627       0.000000
                          1      13    6fx2z             0.126465       0.001068
                                                         0.200000       0.077736
                                                         0.383242       0.032708
                                                         1.018307       0.194756
                                                         2.818191       0.000000
                                                         4.716627       0.000000
                          1      13    6fxy2             0.126465       0.001068
                                                         0.200000       0.077736
                                                         0.383242       0.032708
                                                         1.018307       0.194756
                                                         2.818191       0.000000
                                                         4.716627       0.000000
                          1      13    6fxyz             0.126465       0.001849
                                                         0.200000       0.134642
                                                         0.383242       0.056653
                                                         1.018307       0.337327
                                                         2.818191       0.000000
                                                         4.716627       0.000000
                          1      13    6fxz2             0.126465       0.001068
                                                         0.200000       0.077736
                                                         0.383242       0.032708
                                                         1.018307       0.194756
                                                         2.818191       0.000000
                                                         4.716627       0.000000
                          1      13    6fy3              0.126465       0.000477
                                                         0.200000       0.034764
                                                         0.383242       0.014628
                                                         1.018307       0.087097
                                                         2.818191       0.000000
                                                         4.716627       0.000000
                          1      13    6fy2z             0.126465       0.001068
                                                         0.200000       0.077736
                                                         0.383242       0.032708
                                                         1.018307       0.194756
                                                         2.818191       0.000000
                                                         4.716627       0.000000
                          1      13    6fyz2             0.126465       0.001068
                                                         0.200000       0.077736
                                                         0.383242       0.032708
                                                         1.018307       0.194756
                                                         2.818191       0.000000
                                                         4.716627       0.000000
                          1      13    6fz3              0.126465       0.000477
                                                         0.200000       0.034764
                                                         0.383242       0.014628
                                                         1.018307       0.087097
                                                         2.818191       0.000000
                                                         4.716627       0.000000

                          1      14    6gx4              0.126465       0.006409
                                                         0.200000      -0.012934
                                                         0.383242       0.012198
                                                         1.018307      -0.001475
                                                         2.818191       0.000000
                                                         4.716627       0.000000
                          1      14    6gx3y             0.126465       0.016956
                                                         0.200000      -0.034221
                                                         0.383242       0.032272
                                                         1.018307      -0.003904
                                                         2.818191       0.000000
                                                         4.716627       0.000000
                          1      14    6gx3z             0.126465       0.016956
                                                         0.200000      -0.034221
                                                         0.383242       0.032272
                                                         1.018307      -0.003904
                                                         2.818191       0.000000
                                                         4.716627       0.000000
                          1      14    6gx2y2            0.126465       0.021890
                                                         0.200000      -0.044179
                                                         0.383242       0.041663
                                                         1.018307      -0.005039
                                                         2.818191       0.000000
                                                         4.716627       0.000000
                          1      14    6gx2yz            0.126465       0.037914
                                                         0.200000      -0.076521
                                                         0.383242       0.072162
                                                         1.018307      -0.008729
                                                         2.818191       0.000000
                                                         4.716627       0.000000
                          1      14    6gx2z2            0.126465       0.021890
                                                         0.200000      -0.044179
                                                         0.383242       0.041663
                                                         1.018307      -0.005039
                                                         2.818191       0.000000
                                                         4.716627       0.000000
                          1      14    6gxy3             0.126465       0.016956
                                                         0.200000      -0.034221
                                                         0.383242       0.032272
                                                         1.018307      -0.003904
                                                         2.818191       0.000000
                                                         4.716627       0.000000
                          1      14    6gxy2z            0.126465       0.037914
                                                         0.200000      -0.076521
                                                         0.383242       0.072162
                                                         1.018307      -0.008729
                                                         2.818191       0.000000
                                                         4.716627       0.000000
                          1      14    6gxyz2            0.126465       0.037914
                                                         0.200000      -0.076521
                                                         0.383242       0.072162
                                                         1.018307      -0.008729
                                                         2.818191       0.000000
                                                         4.716627       0.000000
                          1      14    6gxz3             0.126465       0.016956
                                                         0.200000      -0.034221
                                                         0.383242       0.032272
                                                         1.018307      -0.003904
                                                         2.818191       0.000000
                                                         4.716627       0.000000
                          1      14    6gy4              0.126465       0.006409
                                                         0.200000      -0.012934
                                                         0.383242       0.012198
                                                         1.018307      -0.001475
                                                         2.818191       0.000000
                                                         4.716627       0.000000
                          1      14    6gy3z             0.126465       0.016956
                                                         0.200000      -0.034221
                                                         0.383242       0.032272
                                                         1.018307      -0.003904
                                                         2.818191       0.000000
                                                         4.716627       0.000000
                          1      14    6gy2z2            0.126465       0.021890
                                                         0.200000      -0.044179
                                                         0.383242       0.041663
                                                         1.018307      -0.005039
                                                         2.818191       0.000000
                                                         4.716627       0.000000
                          1      14    6gyz3             0.126465       0.016956
                                                         0.200000      -0.034221
                                                         0.383242       0.032272
                                                         1.018307      -0.003904
                                                         2.818191       0.000000
                                                         4.716627       0.000000
                          1      14    6gz4              0.126465       0.006409
                                                         0.200000      -0.012934
                                                         0.383242       0.012198
                                                         1.018307      -0.001475
                                                         2.818191       0.000000
                                                         4.716627       0.000000

       Atomic covalent radius [Angstrom]:                                  0.980

       Atomic van der Waals radius [Angstrom]:                             1.880

     GTH Potential information for                                       GTH-PBE

       Description:                       Goedecker-Teter-Hutter pseudopotential
                                           Goedecker et al., PRB 54, 1703 (1996)
                                          Hartwigsen et al., PRB 58, 3641 (1998)
                                                      Krack, TCA 114, 145 (2005)

       Gaussian exponent of the core charge distribution:               3.125000
       Electronic configuration (s p d ...):                               2   6

       Parameters of the local part of the GTH pseudopotential:

                          rloc        C1          C2          C3          C4
                        0.400000   -7.100000

       Parameters of the non-local part of the GTH (SOC) pseudopotential:

                   l      r(l)      h(i,j,l)
                                    k(i,j,l)
                   0    0.318815   17.252038   -5.585488
                                   -5.585488    7.210834
                   1    0.353370    4.974216    0.000000
                                    0.000000    0.000000
                                    0.057096   -0.039278
                                   -0.039278    0.046474


 MOLECULE KIND INFORMATION


 All atoms are their own molecule, skipping detailed information


 TOTAL NUMBERS AND MAXIMUM NUMBERS

  Total number of            - Atomic kinds:                                   1
                             - Atoms:                                          4
                             - Shell sets:                                     4
                             - Shells:                                        56
                             - Primitive Cartesian functions:                 24
                             - Cartesian basis functions:                    276
                             - Spherical basis functions:                    216

  Maximum angular momentum of- Orbital basis functions:                        4
                             - Local part of the GTH pseudopotential:          0
                             - Non-local part of the GTH pseudopotential:      3


 MODULE QUICKSTEP: ATOMIC COORDINATES IN ANGSTROM

   Atom Kind Element         X             Y             Z       Z(eff)     Mass
      1    1 Ar   18      0.000000      0.000000      0.000000   8.0000  39.9480
      2    1 Ar   18      0.000000      2.975295      2.975295   8.0000  39.9480
      3    1 Ar   18      2.975295      0.000000      2.975295   8.0000  39.9480
      4    1 Ar   18      2.975295      2.975295      0.000000   8.0000  39.9480



 SCF PARAMETERS         Density guess:                                    ATOMIC
                        --------------------------------------------------------
                        max_scf:                                             500
                        max_scf_history:                                       0
                        max_diis:                                              4
                        --------------------------------------------------------
                        eps_scf:                                        1.00E-09
                        eps_scf_history:                                0.00E+00
                        eps_diis:                                       1.00E-01
                        eps_eigval:                                     1.00E-05
                        --------------------------------------------------------
                        level_shift [a.u.]:                             0.000000
                        added MOs                                       200    0
                        --------------------------------------------------------
                        Mixing method:                            BROYDEN_MIXING
                                                charge density mixing in g-space
                        --------------------------------------------------------
                        No outer SCF

 PW_GRID| Information for grid number                                          1
 PW_GRID| Grid distributed over                                    16 processors
 PW_GRID| Real space group dimensions                                    16    1
 PW_GRID| the grid is blocked:                                                NO
 PW_GRID| Cutoff [a.u.]                                                    500.0
 PW_GRID| spherical cutoff:                                                   NO
 PW_GRID|   Bounds   1            -60      59                Points:         120
 PW_GRID|   Bounds   2            -60      59                Points:         120
 PW_GRID|   Bounds   3            -60      59                Points:         120
 PW_GRID| Volume element (a.u.^3)  0.8229E-03     Volume (a.u.^3)      1421.9250
 PW_GRID| Grid span                                                    FULLSPACE
 PW_GRID|   Distribution                         Average         Max         Min
 PW_GRID|   G-Vectors                           108000.0      108000      108000
 PW_GRID|   G-Rays                                 900.0         900         900
 PW_GRID|   Real Space Points                   108000.0      115200      100800

 PW_GRID| Information for grid number                                          2
 PW_GRID| Number of the reference grid                                         1
 PW_GRID| Grid distributed over                                    16 processors
 PW_GRID| Real space group dimensions                                    16    1
 PW_GRID| the grid is blocked:                                                NO
 PW_GRID| Cutoff [a.u.]                                                    166.7
 PW_GRID| spherical cutoff:                                                   NO
 PW_GRID|   Bounds   1            -36      35                Points:          72
 PW_GRID|   Bounds   2            -36      35                Points:          72
 PW_GRID|   Bounds   3            -36      35                Points:          72
 PW_GRID| Volume element (a.u.^3)  0.3810E-02     Volume (a.u.^3)      1421.9250
 PW_GRID| Grid span                                                    FULLSPACE
 PW_GRID|   Distribution                         Average         Max         Min
 PW_GRID|   G-Vectors                            23328.0       23472       23256
 PW_GRID|   G-Rays                                 324.0         326         323
 PW_GRID|   Real Space Points                    23328.0       25920       20736

 PW_GRID| Information for grid number                                          3
 PW_GRID| Number of the reference grid                                         1
 PW_GRID| Grid distributed over                                    16 processors
 PW_GRID| Real space group dimensions                                    16    1
 PW_GRID| the grid is blocked:                                                NO
 PW_GRID| Cutoff [a.u.]                                                     55.6
 PW_GRID| spherical cutoff:                                                   NO
 PW_GRID|   Bounds   1            -20      19                Points:          40
 PW_GRID|   Bounds   2            -20      19                Points:          40
 PW_GRID|   Bounds   3            -20      19                Points:          40
 PW_GRID| Volume element (a.u.^3)  0.2222E-01     Volume (a.u.^3)      1421.9250
 PW_GRID| Grid span                                                    FULLSPACE
 PW_GRID|   Distribution                         Average         Max         Min
 PW_GRID|   G-Vectors                             4000.0        4080        3960
 PW_GRID|   G-Rays                                 100.0         102          99
 PW_GRID|   Real Space Points                     4000.0        4800        3200

 PW_GRID| Information for grid number                                          4
 PW_GRID| Number of the reference grid                                         1
 PW_GRID| Grid distributed over                                    16 processors
 PW_GRID| Real space group dimensions                                    16    1
 PW_GRID| the grid is blocked:                                                NO
[...]


 -------------------------------------------------------------------------------
 -                                                                             -
 -                           R E F E R E N C E S                               -
 -                                                                             -
 -------------------------------------------------------------------------------
 
 CP2K version 2025.1 (Development Version), the CP2K developers group (2025).
 CP2K is freely available from https://www.cp2k.org/ .
 
 T. D. Kuehne, M. Iannuzzi, M. Del Ben, V. V. Rybkin, P. Seewald, F. Stein, T. 
 Laino, R. Z. Khaliullin, O. Schuett, F. Schiffmann, D. Golze, J. Wilhelm, S. 
 Chulkov, M. H. Bani-Hashemian, V. Weber, U. Borstnik, M. Taillefumier, A. S. 
 Jakobovits, A. Lazzaro, H. Pabst, T. Mueller, R. Schade, M. Guidon, S. 
 Andermatt, N. Holmberg, G. K. Schenter, A. Hehn, A. Bussy, F. Belleflamme, G. 
 Tabacchi, A. Gloess, M. Lass, I. Bethune, C. J. Mundy, C. Plessl, M. Watkins, 
 J. VandeVondele, M. Krack, J. Hutter.
 J. Chem. Phys. 152, 194103 (2020).
 CP2K: An electronic structure and molecular dynamics software package - 
 Quickstep: Efficient and accurate electronic structure calculations.
 https://doi.org/10.1063/5.0007045

 O. Schuett, P. Messmer, J. Hutter, J. VandeVondele.
 Electronic Structure Calculations on Graphics Processing Units, 173-190 (2016).
 GPU-Accelerated Sparse Matrix-Matrix Multiplication for Linear Scaling Density 
 Functional Theory.
 https://doi.org/10.1002/9781118670712.ch8

 J. Hutter, M. Iannuzzi, F. Schiffmann, J. VandeVondele.
 WIREs Comput Mol Sci. 4, 15-25 (2014).
 CP2K: atomistic simulations of condensed matter systems.
 https://doi.org/10.1002/wcms.1159

 U. Borstnik, J. VandeVondele, V. Weber, J. Hutter.
 Parallel Comput. 40, 47-58 (2014).
 Sparse matrix multiplication: The distributed block-compressed sparse row 
 library.
 https://doi.org/10.1016/j.parco.2014.03.012

 J. VandeVondele, J. Hutter.
 J. Chem. Phys. 127, 114105 (2007).
 Gaussian basis sets for accurate calculations on molecular systems in gas and 
 condensed phases.
 https://doi.org/10.1063/1.2770708

 J. VandeVondele, M. Krack, F. Mohamed, M. Parrinello, T. Chassaing, J. Hutter.
 Comput. Phys. Commun. 167, 103-128 (2005).
 QUICKSTEP: Fast and accurate density functional calculations using a mixed 
 Gaussian and plane waves approach.
 https://doi.org/10.1016/j.cpc.2004.12.014

 M. Krack.
 Theor. Chem. Acc. 114, 145-152 (2005).
 Pseudopotentials for H to Kr optimized for gradient-corrected 
 exchange-correlation functionals.
 https://doi.org/10.1007/s00214-005-0655-y

 M. Frigo, S. G. Johnson.
 Proc. IEEE 93, 216-231 (2005).
 The design and implementation of FFTW3.
 https://doi.org/10.1109/JPROC.2004.840301

 C. Hartwigsen, S. Goedecker, J. Hutter.
 Phys. Rev. B 58, 3641-3662 (1998).
 Relativistic separable dual-space Gaussian pseudopotentials from H to Rn.
 https://doi.org/10.1103/PhysRevB.58.3641

 G. Lippert, J. Hutter, M. Parrinello.
 Mol. Phys. 92, 477-487 (1997).
 A hybrid Gaussian and plane wave density functional scheme.
 https://doi.org/10.1080/002689797170220

 S. Goedecker, M. Teter, J. Hutter.
 Phys. Rev. B 54, 1703-1710 (1996).
 Separable dual-space Gaussian pseudopotentials.
 https://doi.org/10.1103/PhysRevB.54.1703

 J. P. Perdew, K. Burke, M. Ernzerhof.
 Phys. Rev. Lett. 77, 3865-3868 (1996).
 Generalized gradient approximation made simple.
 https://doi.org/10.1103/PhysRevLett.77.3865


 -------------------------------------------------------------------------------
 -                                                                             -
 -                                T I M I N G                                  -
 -                                                                             -
 -------------------------------------------------------------------------------
 SUBROUTINE                       CALLS  ASD         SELF TIME        TOTAL TIME
                                MAXIMUM       AVERAGE  MAXIMUM  AVERAGE  MAXIMUM
 CP2K                                 1  1.0    0.009    0.013   75.877   75.877
 qs_energies                          1  2.0    0.007    0.077   75.598   75.654
 scf_env_do_scf                       1  3.0    0.000    0.000   73.219   73.219
 scf_env_do_scf_inner_loop           21  4.0    0.005    0.007   73.218   73.219
 do_general_diag_kp                  22  5.9    0.134    0.150   70.122   71.038
 qs_scf_new_mos_kp                   21  5.0    0.000    0.000   68.160   69.044
 mp_alltoall_i22                  78008  8.8   15.176   32.548   15.176   32.548
 dbcsr_desymmetrize_deep          44676  7.4    0.829    0.980   15.412   27.300
 dbcsr_complete_redistribute      33332  8.3    1.601    1.759   16.566   21.932
 kpoint_density_transform            21  7.0    0.044    0.049   18.931   18.956
 rskp_transform                   11048  6.9   10.736   18.492   10.736   18.492
 copy_dbcsr_to_fm                 22580  6.9    0.263    0.281   14.373   14.554
 copy_fm_to_dbcsr                 10752  8.0    0.067    0.074    7.430   12.576
 cp_fm_start_copy_general         32848  7.3    1.160    1.391   10.712   10.770
 transform_dmat                    5376  8.0    5.145    8.843    5.145    8.843
 mp_allgather_i                   65696  8.3    8.031    8.106    8.031    8.106
 cp_cfm_geeig                       373  6.7    0.005    0.006    7.275    7.377
 cp_cfm_heevd                       373  7.7    0.001    0.001    5.216    5.312
 cp_cfm_heevd_base                  373  8.7    5.215    5.312    5.215    5.312
 mp_alltoall_d11v                234024  9.3    3.429    3.657    3.429    3.657
 dbcsr_finalize                   82136  8.6    0.403    0.441    2.881    3.177
 qs_ks_update_qs_env                 21  5.0    0.000    0.000    2.084    2.828
 mp_cart_sub                      45162  8.9    2.640    2.662    2.640    2.662
 rebuild_ks_matrix                   21  6.0    0.000    0.000    1.861    2.606
 qs_ks_build_kohn_sham_matrix        21  7.0    0.010    0.011    1.861    2.606
 hybrid_alltoall_any              44676  8.4    0.193    0.205    2.044    2.256
 sum_up_and_integrate                21  8.0    0.000    0.000    1.320    2.062
 integrate_v_rspace                  21  9.0    0.015    0.025    1.319    2.061
 mp_alltoall_i11v                144672  9.0    1.807    1.901    1.807    1.901
 qs_rho_update_rho_low               22  5.0    0.000    0.000    1.816    1.822
 calculate_rho_elec                  22  6.0    0.021    0.026    1.816    1.822
 dbcsr_merge_all                  33332 10.3    0.819    0.994    1.567    1.789
 grid_integrate_task_list            21 10.0    0.890    1.625    0.890    1.625
 mp_cart_create                   22587  8.9    1.510    1.575    1.510    1.575
 density_rs2pw                       22  7.0    0.001    0.001    0.933    1.532
 transfer_rs2pw                      90  8.0    0.001    0.001    0.883    1.524
 transfer_rs2pw_500                  24  8.9    0.117    0.122    0.781    1.425
 cp_cfm_triangular_multiply        1119  7.7    1.353    1.376    1.353    1.376
 mp_sendrecv_dv                    1350 10.0    0.737    1.374    0.737    1.374
 grid_collocate_task_list            22  7.0    0.858    1.299    0.858    1.299
 mp_bcast_iv                     131416  8.3    0.990    1.073    0.990    1.073
 cp_fm_finish_copy_general        12244  7.8    0.979    0.990    1.002    1.017
 kpoint_density_matrices             21  7.0    0.018    0.019    0.857    0.871
 dbcsr_work_create                78008  8.8    0.480    0.500    0.794    0.840
 parallel_gemm_fm                  1344  8.0    0.002    0.002    0.812    0.825
 parallel_gemm_fm_gemm             1344  9.0    0.002    0.002    0.810    0.823
 cp_fm_gemm                        1344 10.0    0.808    0.821    0.808    0.821
 dbcsr_create_new                123349  8.3    0.575    0.629    0.708    0.777
 write_kpoints_restart               21  5.0    0.002    0.005    0.724    0.724
 dbcsr_work_destroy_all           78008  9.8    0.373    0.383    0.606    0.633
 dbcsr_data_new                  835846  9.7    0.564    0.616    0.564    0.616
 tree_to_linear_d                 33332 11.3    0.579    0.610    0.579    0.610
 dbcsr_iterator_start            226827  9.0    0.468    0.482    0.562    0.585
 copy_fm_to_dbcsr_bc              10752  9.0    0.159    0.174    0.524    0.562
 copy_dbcsr_to_fm_bc              22580  7.9    0.274    0.287    0.546    0.559
 fft_wrap_pw1pw2                    383 10.0    0.003    0.004    0.552    0.558
 dbcsr_data_release             1152025 10.2    0.508    0.546    0.508    0.546
 fft_wrap_pw1pw2_500                254 11.3    0.044    0.046    0.507    0.513
 fft3d_ps                           383 12.0    0.205    0.221    0.432    0.442
 dbcsr_destroy                   113185  8.2    0.197    0.210    0.410    0.437
 potential_pw2rs                     21 10.0    0.002    0.002    0.413    0.418
 cp_fm_write_unformatted            484  6.0    0.154    0.371    0.172    0.416
 qs_vxc_create                       21  8.0    0.000    0.000    0.407    0.409
 xc_vxc_pw_create                    21  9.0    0.018    0.019    0.407    0.409
 mp_waitall_1                    134831  8.3    0.224    0.364    0.224    0.364
 transfer_pw2rs                      85 11.0    0.001    0.001    0.361    0.362
 dbcsr_iterator_stop             226827  9.0    0.284    0.292    0.343    0.354
 cp_cfm_cholesky_decompose          373  7.7    0.336    0.350    0.336    0.350
 gspace_mixing                       20  5.0    0.015    0.017    0.341    0.341
 cp_cfm_triangular_invert           373  7.7    0.327    0.333    0.327    0.333
 dbcsr_copy                       21158  7.8    0.073    0.080    0.262    0.302
 mp_bcast_im                      65696  8.3    0.288    0.298    0.288    0.298
 quick_finalize                   44676  9.4    0.147    0.154    0.274    0.286
 kpoint_set_mo_occupation            21  7.0    0.044    0.045    0.198    0.280
 broyden_mixing                      20  6.0    0.268    0.274    0.277    0.278
 transfer_pw2rs_500                  22 11.8    0.141    0.145    0.264    0.273
 mp_comm_free                     67783  8.9    0.243    0.272    0.243    0.272
 xc_pw_derive                       126 11.0    0.000    0.000    0.251    0.258
 mp_sum_dm3                          21  8.0    0.154    0.236    0.154    0.236
 dbcsr_dot                        10165  8.0    0.075    0.099    0.220    0.230
 xc_rho_set_and_dset_create          21 10.0    0.010    0.012    0.221    0.228
 evaluate_core_matrix_traces         21  6.0    0.000    0.000    0.222    0.222
 calculate_ptrace_kp                 42  7.0    0.008    0.008    0.222    0.222
 mp_alltoall_z22v                   383 14.0    0.183    0.210    0.183    0.210
 mp_isend_dv                      34624  8.2    0.176    0.208    0.176    0.208
 dbcsr_copy_into_existing         10994  9.9    0.108    0.140    0.172    0.206
 mp_sum_d                         10755  8.7    0.145    0.204    0.145    0.204
 self_consistency_check              21  5.0    0.007    0.008    0.149    0.169
 dbcsr_set                        67129  8.0    0.069    0.075    0.131    0.169
 xc_pw_divergence                    21 10.0    0.000    0.000    0.163    0.169
 cp_sm_mix                         5082  6.0    0.031    0.045    0.126    0.156
 mp_sum_dv                          316  3.3    0.056    0.148    0.056    0.148
 init_scf_run                         1  3.0    0.000    0.000    0.136    0.145
 scf_env_initial_rho_setup            1  4.0    0.000    0.000    0.136    0.145
 qs_energies_init_hamiltonians        1  3.0    0.000    0.000    0.137    0.137
 x_to_yz                            210 13.2    0.026    0.028    0.126    0.134
 mp_max_d                          5084  7.0    0.083    0.132    0.083    0.132
 dbcsr_reserve_blocks             12574 10.3    0.092    0.106    0.103    0.118
 mp_send_dv                         484  7.0    0.015    0.115    0.015    0.115
 yz_to_x                            173 12.8    0.014    0.017    0.097    0.114
 dbcsr_reserve_all_blocks         10752 10.0    0.018    0.020    0.098    0.110
 dbcsr_sort_indices               90582 10.8    0.094    0.106    0.094    0.106
 qs_env_update_s_mstruct              1  4.0    0.000    0.000    0.067    0.105
 cp_cfm_scale_and_add_fm           1492  6.7    0.100    0.104    0.100    0.104
 dbcsr_iterator_seek             226827 10.0    0.094    0.103    0.094    0.103
 calculate_rho_core                   1  5.0    0.001    0.002    0.059    0.103
 parser_read_line                  5073  4.1    0.002    0.002    0.094    0.095
 build_core_hamiltonian_matrix        1  4.0    0.001    0.001    0.062    0.095
 parser_read_line_low                23  6.2    0.007    0.035    0.092    0.094
 dbcsr_zero                       67129  9.0    0.062    0.094    0.062    0.094
 dbcsr_make_index_exist          123349  9.3    0.081    0.091    0.081    0.091
 broadcast_input_information         23  7.2    0.027    0.035    0.086    0.089
 xc_functional_eval                  21 11.0    0.000    0.000    0.080    0.085
 pbe_lda_eval                        21 12.0    0.079    0.085    0.079    0.085
 transfer_rs2pw_170                  22  9.0    0.022    0.024    0.078    0.084
 transfer_pw2rs_170                  21 12.0    0.032    0.035    0.073    0.080
 mp_isendrecv_dv                   1275 13.0    0.033    0.079    0.033    0.079
 merge_index                      33332 11.3    0.065    0.079    0.065    0.079
 restraint_control                    1  2.0    0.000    0.000    0.056    0.075
 mp_sum_i                             4  2.8    0.056    0.075    0.056    0.075
 topology_control                     1  2.0    0.000    0.000    0.071    0.071
 mp_irecv_iv                     131392  8.3    0.004    0.070    0.004    0.070
 dbcsr_switch_data_area           44676 10.4    0.045    0.046    0.063    0.064
 dbcsr_data_copy_aa2              33332 11.2    0.053    0.064    0.053    0.064
 cp_dbcsr_alloc_block_from_nbl     1822  5.2    0.012    0.019    0.035    0.057
 create_qs_kind_set                   1  2.0    0.000    0.000    0.055    0.055
 read_qs_kind                         1  3.0    0.026    0.029    0.055    0.055
 cp_fm_cleanup_copy_general       22768  7.0    0.036    0.037    0.052    0.053
 qs_init_subsys                       1  2.0    0.002    0.002    0.052    0.052
 cp_cfm_to_fm                       373  6.7    0.050    0.051    0.050    0.051
 read_cell_cif                        2  4.5    0.002    0.005    0.049    0.050
 qs_env_setup                         1  3.0    0.000    0.000    0.048    0.049
 scf_post_calculation_gpw             1  3.0    0.000    0.000    0.048    0.049
 write_available_results              1  4.0    0.000    0.000    0.048    0.048
 write_mo_free_results                1  5.0    0.001    0.001    0.048    0.048
 qs_env_rebuild_pw_env                2  3.5    0.000    0.000    0.048    0.048
 pw_env_rebuild                       1  5.0    0.000    0.000    0.048    0.048
 mp_isend_iv                      70024  8.3    0.007    0.046    0.007    0.046
 mp_recv_dv                        1452  7.0    0.003    0.044    0.003    0.044
 coordinate_control                   1  3.0    0.001    0.002    0.043    0.043
 coordinate_control_READ_COORDI       1  4.0    0.000    0.000    0.042    0.043
 read_coordinate_cif                  1  5.0    0.002    0.002    0.042    0.043
 pw_scatter_p                       210 12.2    0.039    0.041    0.039    0.041
 cp_cfm_to_cfm_columns              373  7.7    0.038    0.040    0.038    0.040
 pw_grid_setup                        4  6.0    0.000    0.000    0.038    0.039
 pw_grid_setup_internal               4  7.0    0.001    0.001    0.038    0.039
 mp_bcast_i_src                      92  8.2    0.035    0.038    0.035    0.038
 dbcsr_distribution_new           33334  8.6    0.030    0.037    0.030    0.037
 pw_poisson_solve                    21  8.0    0.000    0.000    0.036    0.036
 dbcsr_make_dbcsr_index           90582 10.9    0.032    0.035    0.032    0.035
 dbcsr_get_data_size_used         78008  9.8    0.031    0.035    0.031    0.035
 mp_irecv_im2                     65696  8.3    0.002    0.034    0.002    0.034
 cp_fm_create                       348  4.1    0.030    0.032    0.030    0.032
 fft_wrap_pw1pw2_170                 43 10.5    0.002    0.002    0.026    0.029
 build_core_ppl                       1  5.0    0.016    0.028    0.016    0.028
 cp_fm_to_fm_matrix                 672  8.0    0.026    0.028    0.026    0.028
 mp_bcast_am_src                     23  8.2    0.013    0.014    0.023    0.026
 pw_integral_ab_c1d_c1d_gs           21  9.0    0.023    0.023    0.024    0.024
 build_overlap_matrix_low             1  5.0    0.009    0.015    0.016    0.024
 pw_grid_sort                         4  8.0    0.016    0.016    0.023    0.023
 calculate_hirshfeld_normalizat       1  6.0    0.002    0.007    0.021    0.023
 mixing_init                          1  5.0    0.020    0.022    0.022    0.022
 mp_isend_im2                     35012  8.3    0.003    0.021    0.003    0.021
 kpoint_initialize_mos                2  2.5    0.000    0.001    0.020    0.021
 mp_irecv_dv                      34624  8.2    0.020    0.021    0.020    0.021
 mixing_allocate                      1  3.0    0.001    0.002    0.014    0.021
 hirshfeld_integration                1  6.0    0.002    0.008    0.020    0.020
 pw_gather_p                        173 11.8    0.019    0.020    0.019    0.020
 calculate_first_density_matrix       1  5.0    0.000    0.000    0.011    0.020
 calculate_atomic_block_dm            1  6.0    0.001    0.001    0.010    0.019
 build_kinetic_matrix_low             1  5.0    0.007    0.011    0.012    0.019
 transfer_rs2pw_60                   22  9.0    0.004    0.004    0.018    0.019
 transfer_pw2rs_60                   21 12.0    0.006    0.006    0.016    0.018
 mp_sum_l                           429  2.1    0.012    0.015    0.012    0.015
 calculate_ecore_overlap              1  4.0    0.000    0.000    0.006    0.012
 mp_sum_dm                           20  7.0    0.006    0.012    0.006    0.012
 pw_copy                            315 10.5    0.011    0.011    0.011    0.011
 pw_derive                          189 11.3    0.010    0.010    0.010    0.010
 fft_wrap_pw1pw2_60                  43 10.5    0.001    0.001    0.009    0.010
 mp_maxloc_dv                       881  1.0    0.009    0.010    0.009    0.010
 mp_sum_iv                           24  5.3    0.005    0.010    0.005    0.010
 qs_scf_ensure_work_matrices          1  3.0    0.000    0.000    0.005    0.010
 qs_env_rebuild_rho                   1  5.0    0.000    0.000    0.006    0.010
 qs_rho_rebuild                       1  6.0    0.001    0.001    0.006    0.010
 pw_copy_from_array                 210 12.2    0.007    0.010    0.007    0.010
 qs_scf_ensure_mos                    1  3.0    0.000    0.000    0.008    0.009
 build_core_ppnl                      1  5.0    0.007    0.008    0.007    0.008
 -------------------------------------------------------------------------------

 The number of warnings for this run is : 1
 
 -------------------------------------------------------------------------------
  **** **** ******  **  PROGRAM ENDED AT                 2025-08-05 20:42:53.408
 ***** ** ***  *** **   PROGRAM RAN ON                              i01r07c04s08
 **    ****   ******    PROGRAM RAN BY                                   di38fab
 ***** **    ** ** **   PROGRAM PROCESS ID                               4123936
  **** **  *******  **  PROGRAM STOPPED IN /hppfs/scratch/04/di38fab/09_GTH/Delt
                                           a_Set/Ar/aug-TZVP-MOLOPT-GTH-tier-2/8
                                           x8x8
