   6   6   0   0
  0.3702354E+02  0.4588660E-09  0.4588660E-09  0.1218223E-08  0.5000000E-15
  1.000000000000000E-004
  CAR 
 Bi                                      
     17.59901325    -20.20344675  301      5.79559596      1.00000000
    -20.203  0.0000E+00  0.0000E+00
    -20.077  0.0000E+00  0.0000E+00
    -19.951  0.0000E+00  0.0000E+00
    -19.825  0.0000E+00  0.0000E+00
    -19.699  0.0000E+00  0.0000E+00
    -19.573  0.0000E+00  0.0000E+00
    -19.447  0.0000E+00  0.0000E+00
    -19.321  0.0000E+00  0.0000E+00
    -19.195  0.0000E+00  0.0000E+00
    -19.069  0.0000E+00  0.0000E+00
    -18.943  0.0000E+00  0.0000E+00
    -18.817  0.0000E+00  0.0000E+00
    -18.691  0.4548E-07  0.5731E-08
    -18.565  0.4029E+00  0.5076E-01
    -18.439  0.1052E+03  0.1331E+02
    -18.313  0.8472E+02  0.2398E+02
    -18.187  0.1228E+00  0.2400E+02
    -18.061  0.3411E-08  0.2400E+02
    -17.935  0.0000E+00  0.2400E+02
    -17.809  0.0000E+00  0.2400E+02
    -17.683  0.0000E+00  0.2400E+02
    -17.557  0.0000E+00  0.2400E+02
    -17.431  0.0000E+00  0.2400E+02
    -17.305  0.0000E+00  0.2400E+02
    -17.179  0.0000E+00  0.2400E+02
    -17.053  0.0000E+00  0.2400E+02
    -16.927  0.0000E+00  0.2400E+02
    -16.801  0.0000E+00  0.2400E+02
    -16.675  0.0000E+00  0.2400E+02
    -16.549  0.0000E+00  0.2400E+02
    -16.423  0.0000E+00  0.2400E+02
    -16.297  0.0000E+00  0.2400E+02
    -16.171  0.0000E+00  0.2400E+02
    -16.045  0.0000E+00  0.2400E+02
    -15.919  0.0000E+00  0.2400E+02
    -15.793  0.1001E-07  0.2400E+02
    -15.667  0.1514E+00  0.2402E+02
    -15.541  0.6409E+02  0.3209E+02
    -15.415  0.1461E+03  0.5050E+02
    -15.289  0.7500E+02  0.5995E+02
    -15.163  0.3916E+00  0.6000E+02
    -15.037  0.1047E-06  0.6000E+02
    -14.911  0.0000E+00  0.6000E+02
    -14.785  0.0000E+00  0.6000E+02
    -14.659  0.0000E+00  0.6000E+02
    -14.533  0.0000E+00  0.6000E+02
    -14.407  0.0000E+00  0.6000E+02
    -14.281  0.0000E+00  0.6000E+02
    -14.155  0.0000E+00  0.6000E+02
    -14.029  0.0000E+00  0.6000E+02
    -13.903  0.0000E+00  0.6000E+02
    -13.777  0.0000E+00  0.6000E+02
    -13.651  0.0000E+00  0.6000E+02
    -13.525  0.0000E+00  0.6000E+02
    -13.399  0.0000E+00  0.6000E+02
    -13.273  0.0000E+00  0.6000E+02
    -13.147  0.0000E+00  0.6000E+02
    -13.021  0.0000E+00  0.6000E+02
    -12.895  0.0000E+00  0.6000E+02
    -12.769  0.0000E+00  0.6000E+02
    -12.643  0.0000E+00  0.6000E+02
    -12.517  0.0000E+00  0.6000E+02
    -12.391  0.0000E+00  0.6000E+02
    -12.265  0.0000E+00  0.6000E+02
    -12.139  0.0000E+00  0.6000E+02
    -12.013  0.0000E+00  0.6000E+02
    -11.887  0.0000E+00  0.6000E+02
    -11.761  0.0000E+00  0.6000E+02
    -11.635  0.0000E+00  0.6000E+02
    -11.509  0.0000E+00  0.6000E+02
    -11.383  0.0000E+00  0.6000E+02
    -11.257  0.0000E+00  0.6000E+02
    -11.131  0.0000E+00  0.6000E+02
    -11.005  0.0000E+00  0.6000E+02
    -10.879  0.0000E+00  0.6000E+02
    -10.753  0.0000E+00  0.6000E+02
    -10.627  0.0000E+00  0.6000E+02
    -10.501  0.0000E+00  0.6000E+02
    -10.375  0.0000E+00  0.6000E+02
    -10.249  0.0000E+00  0.6000E+02
    -10.123  0.0000E+00  0.6000E+02
     -9.997  0.0000E+00  0.6000E+02
     -9.871  0.0000E+00  0.6000E+02
     -9.745  0.0000E+00  0.6000E+02
     -9.619  0.0000E+00  0.6000E+02
     -9.493  0.0000E+00  0.6000E+02
     -9.367  0.0000E+00  0.6000E+02
     -9.241  0.0000E+00  0.6000E+02
     -9.115  0.0000E+00  0.6000E+02
     -8.989  0.0000E+00  0.6000E+02
     -8.863  0.0000E+00  0.6000E+02
     -8.737  0.0000E+00  0.6000E+02
     -8.611  0.0000E+00  0.6000E+02
     -8.485  0.0000E+00  0.6000E+02
     -8.359  0.0000E+00  0.6000E+02
     -8.233  0.0000E+00  0.6000E+02
     -8.107  0.0000E+00  0.6000E+02
     -7.981  0.0000E+00  0.6000E+02
     -7.855  0.0000E+00  0.6000E+02
     -7.729  0.0000E+00  0.6000E+02
     -7.603  0.0000E+00  0.6000E+02
     -7.477  0.0000E+00  0.6000E+02
     -7.351  0.0000E+00  0.6000E+02
     -7.225  0.5099E-18  0.6000E+02
     -7.099  0.2509E-07  0.6000E+02
     -6.973  0.4379E-02  0.6000E+02
     -6.847  0.3042E+00  0.6004E+02
     -6.721  0.7863E+00  0.6014E+02
     -6.595  0.1048E+01  0.6027E+02
     -6.469  0.1504E+01  0.6046E+02
     -6.343  0.1567E+01  0.6066E+02
     -6.217  0.1860E+01  0.6089E+02
     -6.091  0.2280E+01  0.6118E+02
     -5.965  0.2202E+01  0.6146E+02
     -5.839  0.2977E+01  0.6183E+02
     -5.713  0.3525E+01  0.6228E+02
     -5.586  0.3102E+01  0.6267E+02
     -5.460  0.3782E+01  0.6314E+02
     -5.334  0.4620E+01  0.6373E+02
     -5.208  0.4513E+01  0.6429E+02
     -5.082  0.5527E+01  0.6499E+02
     -4.956  0.4627E+01  0.6557E+02
     -4.830  0.1815E+01  0.6580E+02
     -4.704  0.9406E+00  0.6592E+02
     -4.578  0.1062E+01  0.6605E+02
     -4.452  0.1275E+01  0.6621E+02
     -4.326  0.2629E+01  0.6655E+02
     -4.200  0.3762E+01  0.6702E+02
     -4.074  0.3824E+01  0.6750E+02
     -3.948  0.4280E+01  0.6804E+02
     -3.822  0.5979E+01  0.6879E+02
     -3.696  0.4587E+01  0.6937E+02
     -3.570  0.3584E+01  0.6982E+02
     -3.444  0.3152E+01  0.7022E+02
     -3.318  0.3043E+01  0.7061E+02
     -3.192  0.1500E+01  0.7079E+02
     -3.066  0.1761E+01  0.7102E+02
     -2.940  0.1942E+01  0.7126E+02
     -2.814  0.1022E+01  0.7139E+02
     -2.688  0.9586E+00  0.7151E+02
     -2.562  0.1024E+01  0.7164E+02
     -2.436  0.9039E+00  0.7175E+02
     -2.310  0.4552E+00  0.7181E+02
     -2.184  0.6294E+00  0.7189E+02
     -2.058  0.4140E+00  0.7194E+02
     -1.932  0.2512E+00  0.7197E+02
     -1.806  0.1873E+00  0.7200E+02
     -1.680  0.2047E-01  0.7200E+02
     -1.554  0.2404E-04  0.7200E+02
     -1.428  0.4794E-12  0.7200E+02
     -1.302  0.0000E+00  0.7200E+02
     -1.176  0.0000E+00  0.7200E+02
     -1.050  0.0000E+00  0.7200E+02
     -0.924  0.0000E+00  0.7200E+02
     -0.798  0.0000E+00  0.7200E+02
     -0.672  0.0000E+00  0.7200E+02
     -0.546  0.0000E+00  0.7200E+02
     -0.420  0.0000E+00  0.7200E+02
     -0.294  0.0000E+00  0.7200E+02
     -0.168  0.0000E+00  0.7200E+02
     -0.042  0.0000E+00  0.7200E+02
      0.084  0.0000E+00  0.7200E+02
      0.210  0.0000E+00  0.7200E+02
      0.336  0.0000E+00  0.7200E+02
      0.462  0.0000E+00  0.7200E+02
      0.588  0.0000E+00  0.7200E+02
      0.714  0.0000E+00  0.7200E+02
      0.840  0.0000E+00  0.7200E+02
      0.966  0.7648E-18  0.7200E+02
      1.092  0.2664E-07  0.7200E+02
      1.218  0.7769E-02  0.7200E+02
      1.344  0.6607E+00  0.7208E+02
      1.470  0.1486E+01  0.7227E+02
      1.596  0.2314E+01  0.7256E+02
      1.722  0.2311E+01  0.7285E+02
      1.848  0.3422E+01  0.7329E+02
      1.974  0.2857E+01  0.7365E+02
      2.100  0.3220E+01  0.7405E+02
      2.226  0.3547E+01  0.7450E+02
      2.352  0.4651E+01  0.7508E+02
      2.478  0.6590E+01  0.7591E+02
      2.604  0.5257E+01  0.7658E+02
      2.730  0.6032E+01  0.7734E+02
      2.856  0.5749E+01  0.7806E+02
      2.982  0.5540E+01  0.7876E+02
      3.108  0.5460E+01  0.7945E+02
      3.234  0.5634E+01  0.8016E+02
      3.360  0.4609E+01  0.8074E+02
      3.486  0.3225E+01  0.8114E+02
      3.612  0.3196E+01  0.8155E+02
      3.738  0.3371E+01  0.8197E+02
      3.864  0.3891E+01  0.8246E+02
      3.990  0.4004E+01  0.8297E+02
      4.116  0.3978E+01  0.8347E+02
      4.242  0.4246E+01  0.8400E+02
      4.368  0.4012E+01  0.8451E+02
      4.494  0.3998E+01  0.8501E+02
      4.620  0.4907E+01  0.8563E+02
      4.746  0.5356E+01  0.8631E+02
      4.872  0.5244E+01  0.8697E+02
      4.998  0.4795E+01  0.8757E+02
      5.124  0.4807E+01  0.8818E+02
      5.250  0.4257E+01  0.8871E+02
      5.376  0.3612E+01  0.8917E+02
      5.502  0.3196E+01  0.8957E+02
      5.628  0.2711E+01  0.8991E+02
      5.754  0.6423E+00  0.8999E+02
      5.880  0.2015E+00  0.9002E+02
      6.006  0.3244E+00  0.9006E+02
      6.132  0.3592E+00  0.9011E+02
      6.258  0.1731E+01  0.9032E+02
      6.384  0.5239E+01  0.9098E+02
      6.510  0.6988E+01  0.9186E+02
      6.636  0.5435E+01  0.9255E+02
      6.762  0.4168E+01  0.9307E+02
      6.888  0.3678E+01  0.9354E+02
      7.014  0.2763E+01  0.9389E+02
      7.140  0.4112E+01  0.9440E+02
      7.266  0.3470E+01  0.9484E+02
      7.392  0.3620E+01  0.9530E+02
      7.518  0.3235E+01  0.9570E+02
      7.644  0.4509E+01  0.9627E+02
      7.770  0.4140E+01  0.9679E+02
      7.896  0.3725E+01  0.9726E+02
      8.022  0.3782E+01  0.9774E+02
      8.148  0.5028E+01  0.9837E+02
      8.274  0.6255E+01  0.9916E+02
      8.400  0.2889E+01  0.9953E+02
      8.526  0.2540E+01  0.9985E+02
      8.652  0.2320E+01  0.1001E+03
      8.778  0.3237E+01  0.1005E+03
      8.904  0.3088E+01  0.1009E+03
      9.030  0.3352E+01  0.1014E+03
      9.156  0.4228E+01  0.1019E+03
      9.282  0.4410E+01  0.1024E+03
      9.408  0.6925E+01  0.1033E+03
      9.534  0.7615E+01  0.1043E+03
      9.660  0.4519E+01  0.1048E+03
      9.787  0.3495E+01  0.1053E+03
      9.913  0.2732E+01  0.1056E+03
     10.039  0.2194E+01  0.1059E+03
     10.165  0.2129E+01  0.1062E+03
     10.291  0.2410E+01  0.1065E+03
     10.417  0.3876E+01  0.1070E+03
     10.543  0.4676E+01  0.1076E+03
     10.669  0.5094E+01  0.1082E+03
     10.795  0.6509E+01  0.1090E+03
     10.921  0.5514E+01  0.1097E+03
     11.047  0.5066E+01  0.1104E+03
     11.173  0.4860E+01  0.1110E+03
     11.299  0.4585E+01  0.1115E+03
     11.425  0.4186E+01  0.1121E+03
     11.551  0.3510E+01  0.1125E+03
     11.677  0.3565E+01  0.1130E+03
     11.803  0.3848E+01  0.1134E+03
     11.929  0.3045E+01  0.1138E+03
     12.055  0.3614E+01  0.1143E+03
     12.181  0.3408E+01  0.1147E+03
     12.307  0.3083E+01  0.1151E+03
     12.433  0.2504E+01  0.1154E+03
     12.559  0.3034E+01  0.1158E+03
     12.685  0.3363E+01  0.1162E+03
     12.811  0.3558E+01  0.1167E+03
     12.937  0.4159E+01  0.1172E+03
     13.063  0.4180E+01  0.1177E+03
     13.189  0.4484E+01  0.1183E+03
     13.315  0.4826E+01  0.1189E+03
     13.441  0.4083E+01  0.1194E+03
     13.567  0.4625E+01  0.1200E+03
     13.693  0.4363E+01  0.1205E+03
     13.819  0.4832E+01  0.1212E+03
     13.945  0.4292E+01  0.1217E+03
     14.071  0.3918E+01  0.1222E+03
     14.197  0.3693E+01  0.1227E+03
     14.323  0.5145E+01  0.1233E+03
     14.449  0.5349E+01  0.1240E+03
     14.575  0.4148E+01  0.1245E+03
     14.701  0.3105E+01  0.1249E+03
     14.827  0.3550E+01  0.1253E+03
     14.953  0.4219E+01  0.1259E+03
     15.079  0.4619E+01  0.1265E+03
     15.205  0.4131E+01  0.1270E+03
     15.331  0.3723E+01  0.1274E+03
     15.457  0.2217E+01  0.1277E+03
     15.583  0.1315E+01  0.1279E+03
     15.709  0.5906E+00  0.1280E+03
     15.835  0.2405E+00  0.1280E+03
     15.961  0.6863E-01  0.1280E+03
     16.087  0.5508E-03  0.1280E+03
     16.213  0.1092E-09  0.1280E+03
     16.339  0.0000E+00  0.1280E+03
     16.465  0.0000E+00  0.1280E+03
     16.591  0.0000E+00  0.1280E+03
     16.717  0.0000E+00  0.1280E+03
     16.843  0.0000E+00  0.1280E+03
     16.969  0.0000E+00  0.1280E+03
     17.095  0.0000E+00  0.1280E+03
     17.221  0.0000E+00  0.1280E+03
     17.347  0.0000E+00  0.1280E+03
     17.473  0.0000E+00  0.1280E+03
     17.599  0.0000E+00  0.1280E+03
