    6    6    1    1
  0.3702354E+02  0.4588660E-09  0.4588660E-09  0.1218223E-08  0.5000000E-15
  1.000000000000000E-004
  CAR 
 Bi                                      
     90    868    128
 
  0.0000000E+00  0.0000000E+00  0.0000000E+00  0.5787037E-03
      1        -18.483614   1.000000
      2        -18.483541   1.000000
      3        -18.475204   1.000000
      4        -18.475132   1.000000
      5        -18.474685   1.000000
      6        -18.474617   1.000000
      7        -18.474609   1.000000
      8        -18.474543   1.000000
      9        -18.461254   1.000000
     10        -18.461229   1.000000
     11        -18.461180   1.000000
     12        -18.461158   1.000000
     13        -18.425840   1.000000
     14        -18.425781   1.000000
     15        -18.425761   1.000000
     16        -18.425704   1.000000
     17        -18.425180   1.000000
     18        -18.425160   1.000000
     19        -18.425099   1.000000
     20        -18.425082   1.000000
     21        -18.421043   1.000000
     22        -18.420962   1.000000
     23        -18.417606   1.000000
     24        -18.417526   1.000000
     25        -15.582994   1.000000
     26        -15.582929   1.000000
     27        -15.565912   1.000000
     28        -15.565836   1.000000
     29        -15.563232   1.000000
     30        -15.563161   1.000000
     31        -15.563156   1.000000
     32        -15.563095   1.000000
     33        -15.562998   1.000000
     34        -15.562915   1.000000
     35        -15.538556   1.000000
     36        -15.538497   1.000000
     37        -15.538469   1.000000
     38        -15.538422   1.000000
     39        -15.535717   1.000000
     40        -15.535685   1.000000
     41        -15.535640   1.000000
     42        -15.535609   1.000000
     43        -15.407488   1.000000
     44        -15.407472   1.000000
     45        -15.407410   1.000000
     46        -15.407395   1.000000
     47        -15.400272   1.000000
     48        -15.400253   1.000000
     49        -15.400202   1.000000
     50        -15.400182   1.000000
     51        -15.394523   1.000000
     52        -15.394510   1.000000
     53        -15.394452   1.000000
     54        -15.394443   1.000000
     55        -15.376880   1.000000
     56        -15.376803   1.000000
     57        -15.372122   1.000000
     58        -15.372044   1.000000
     59        -15.366338   1.000000
     60        -15.366275   1.000000
     61         -6.933036   1.000000
     62         -6.932202   1.000000
     63         -6.243261   1.000000
     64         -6.243042   1.000000
     65         -6.242447   1.000000
     66         -6.242250   1.000000
     67         -3.316183   1.000000
     68         -3.315977   1.000000
     69         -3.315785   1.000000
     70         -3.315575   1.000000
     71         -1.783327   1.000000
     72         -1.782989   1.000000
     73          3.136834   1.000000
     74          3.137011   1.000000
     75          3.765305   1.000000
     76          3.765378   1.000000
     77          3.765616   1.000000
     78          3.765670   1.000000
     79          4.917124   1.000000
     80          4.917191   1.000000
     81          4.918626   1.000000
     82          4.918701   1.000000
     83          5.074854   1.000000
     84          5.075064   1.000000
     85          5.371027   1.000000
     86          5.371455   1.000000
     87          5.676736   0.999613
     88          5.676910   0.999606
     89          5.677359   0.999587
     90          5.677490   0.999582
     91          6.181810   0.000000
     92          6.181826   0.000000
     93          6.181914   0.000000
     94          6.181941   0.000000
     95          6.848187   0.000000
     96          6.848685   0.000000
     97          7.338575   0.000000
     98          7.338669   0.000000
     99          7.339649   0.000000
    100          7.339658   0.000000
    101          7.657375   0.000000
    102          7.657503   0.000000
    103          7.657801   0.000000
    104          7.657928   0.000000
    105          8.984595   0.000000
    106          8.986227   0.000000
    107          9.333555   0.000000
    108          9.334052   0.000000
    109         11.394064   0.000000
    110         11.394398   0.000000
    111         11.502740   0.000000
    112         11.502827   0.000000
    113         11.504584   0.000000
    114         11.505004   0.000000
    115         11.639107   0.000000
    116         11.640714   0.000000
    117         11.667385   0.000000
    118         11.671872   0.000000
    119         11.752724   0.000000
    120         11.754060   0.000000
    121         12.307322   0.000000
    122         12.314302   0.000000
    123         13.125840   0.000000
    124         13.126679   0.000000
    125         13.128874   0.000000
    126         13.130606   0.000000
    127         13.133868   0.000000
    128         13.139600   0.000000
 
  0.8333333E-01 -0.7853951E-17  0.0000000E+00  0.1157407E-02
      1        -18.482624   1.000000
      2        -18.482559   1.000000
      3        -18.475509   1.000000
      4        -18.475462   1.000000
      5        -18.475027   1.000000
      6        -18.474942   1.000000
      7        -18.474289   1.000000
      8        -18.474219   1.000000
      9        -18.461100   1.000000
     10        -18.461034   1.000000
     11        -18.460732   1.000000
     12        -18.460665   1.000000
     13        -18.428185   1.000000
     14        -18.428115   1.000000
     15        -18.427365   1.000000
     16        -18.427333   1.000000
     17        -18.422995   1.000000
     18        -18.422925   1.000000
     19        -18.422204   1.000000
     20        -18.422167   1.000000
     21        -18.421422   1.000000
     22        -18.421338   1.000000
     23        -18.417887   1.000000
     24        -18.417812   1.000000
     25        -15.580772   1.000000
     26        -15.580710   1.000000
     27        -15.569694   1.000000
     28        -15.569653   1.000000
     29        -15.565021   1.000000
     30        -15.564961   1.000000
     31        -15.563370   1.000000
     32        -15.563308   1.000000
     33        -15.553953   1.000000
     34        -15.553910   1.000000
     35        -15.543593   1.000000
     36        -15.543561   1.000000
     37        -15.540689   1.000000
     38        -15.540658   1.000000
     39        -15.529202   1.000000
     40        -15.529161   1.000000
     41        -15.527343   1.000000
     42        -15.527295   1.000000
     43        -15.415880   1.000000
     44        -15.415859   1.000000
     45        -15.415833   1.000000
     46        -15.415755   1.000000
     47        -15.401503   1.000000
     48        -15.401483   1.000000
     49        -15.396632   1.000000
     50        -15.396601   1.000000
     51        -15.393485   1.000000
     52        -15.393409   1.000000
     53        -15.388424   1.000000
     54        -15.388395   1.000000
     55        -15.385462   1.000000
     56        -15.385425   1.000000
     57        -15.370877   1.000000
     58        -15.370834   1.000000
     59        -15.367482   1.000000
     60        -15.367455   1.000000
     61         -6.876873   1.000000
     62         -6.876044   1.000000
     63         -6.193271   1.000000
     64         -6.192471   1.000000
     65         -6.192007   1.000000
     66         -6.191211   1.000000
     67         -3.334455   1.000000
     68         -3.334060   1.000000
     69         -3.325174   1.000000
     70         -3.324780   1.000000
     71         -1.900672   1.000000
     72         -1.900326   1.000000
     73          3.160079   1.000000
     74          3.160247   1.000000
     75          3.395316   1.000000
     76          3.396318   1.000000
     77          3.479806   1.000000
     78          3.480225   1.000000
     79          4.575721   1.000000
     80          4.576442   1.000000
     81          4.839578   1.000000
     82          4.840804   1.000000
     83          5.072938   1.000000
     84          5.073233   1.000000
     85          5.307319   1.000000
     86          5.307910   1.000000
     87          5.430854   1.000000
     88          5.431383   1.000000
     89          5.598106   1.000000
     90          5.598912   1.000000
     91          6.419147   0.000000
     92          6.419418   0.000000
     93          6.561397   0.000000
     94          6.562413   0.000000
     95          6.781239   0.000000
     96          6.781524   0.000000
     97          6.915043   0.000000
     98          6.915367   0.000000
     99          7.378106   0.000000
    100          7.378495   0.000000
    101          8.294770   0.000000
    102          8.295075   0.000000
    103          8.516902   0.000000
    104          8.517813   0.000000
    105          8.784232   0.000000
    106          8.784890   0.000000
    107          9.134552   0.000000
    108          9.135041   0.000000
    109         11.132538   0.000000
    110         11.137455   0.000000
    111         11.207603   0.000000
    112         11.209947   0.000000
    113         11.343972   0.000000
    114         11.344094   0.000000
    115         11.425259   0.000000
    116         11.427464   0.000000
    117         11.784866   0.000000
    118         11.787699   0.000000
    119         12.184410   0.000000
    120         12.187265   0.000000
    121         12.724669   0.000000
    122         12.727344   0.000000
    123         13.027472   0.000000
    124         13.033264   0.000000
    125         13.056179   0.000000
    126         13.058417   0.000000
    127         13.741457   0.000000
    128         13.795701   0.000000
 
  0.0000000E+00  0.8333333E-01  0.0000000E+00  0.1157407E-02
      1        -18.482632   1.000000
      2        -18.482554   1.000000
      3        -18.475532   1.000000
      4        -18.475444   1.000000
      5        -18.475014   1.000000
      6        -18.474950   1.000000
      7        -18.474287   1.000000
      8        -18.474217   1.000000
      9        -18.461108   1.000000
     10        -18.461029   1.000000
     11        -18.460729   1.000000
     12        -18.460663   1.000000
     13        -18.428178   1.000000
     14        -18.428106   1.000000
     15        -18.427405   1.000000
     16        -18.427307   1.000000
     17        -18.422989   1.000000
     18        -18.422917   1.000000
     19        -18.422243   1.000000
     20        -18.422144   1.000000
     21        -18.421416   1.000000
     22        -18.421341   1.000000
     23        -18.417893   1.000000
     24        -18.417810   1.000000
     25        -15.580776   1.000000
     26        -15.580709   1.000000
     27        -15.569686   1.000000
     28        -15.569655   1.000000
     29        -15.565028   1.000000
     30        -15.564961   1.000000
     31        -15.563367   1.000000
     32        -15.563306   1.000000
     33        -15.553951   1.000000
     34        -15.553915   1.000000
     35        -15.543590   1.000000
     36        -15.543561   1.000000
     37        -15.540691   1.000000
     38        -15.540648   1.000000
     39        -15.529202   1.000000
     40        -15.529163   1.000000
     41        -15.527339   1.000000
     42        -15.527305   1.000000
     43        -15.415912   1.000000
     44        -15.415839   1.000000
     45        -15.415813   1.000000
     46        -15.415763   1.000000
     47        -15.401516   1.000000
     48        -15.401466   1.000000
     49        -15.396642   1.000000
     50        -15.396595   1.000000
     51        -15.393465   1.000000
     52        -15.393412   1.000000
     53        -15.388441   1.000000
     54        -15.388392   1.000000
     55        -15.385462   1.000000
     56        -15.385425   1.000000
     57        -15.370877   1.000000
     58        -15.370821   1.000000
     59        -15.367508   1.000000
     60        -15.367442   1.000000
     61         -6.876873   1.000000
     62         -6.876044   1.000000
     63         -6.193270   1.000000
     64         -6.192471   1.000000
     65         -6.192007   1.000000
     66         -6.191210   1.000000
     67         -3.334455   1.000000
     68         -3.334063   1.000000
     69         -3.325176   1.000000
     70         -3.324778   1.000000
     71         -1.900673   1.000000
     72         -1.900326   1.000000
     73          3.160061   1.000000
     74          3.160263   1.000000
     75          3.395349   1.000000
     76          3.396299   1.000000
     77          3.479584   1.000000
     78          3.480435   1.000000
     79          4.575508   1.000000
     80          4.576661   1.000000
     81          4.839991   1.000000
     82          4.840384   1.000000
     83          5.072990   1.000000
     84          5.073176   1.000000
     85          5.307415   1.000000
     86          5.307824   1.000000
     87          5.430973   1.000000
     88          5.431276   1.000000
     89          5.598314   1.000000
     90          5.598734   1.000000
     91          6.418980   0.000000
     92          6.419550   0.000000
     93          6.561392   0.000000
     94          6.562423   0.000000
     95          6.781191   0.000000
     96          6.781573   0.000000
     97          6.914812   0.000000
     98          6.915566   0.000000
     99          7.378138   0.000000
    100          7.378465   0.000000
    101          8.294508   0.000000
    102          8.295332   0.000000
    103          8.516924   0.000000
    104          8.517817   0.000000
    105          8.783967   0.000000
    106          8.785170   0.000000
    107          9.134394   0.000000
    108          9.135180   0.000000
    109         11.132480   0.000000
    110         11.137478   0.000000
    111         11.207565   0.000000
    112         11.209963   0.000000
    113         11.343889   0.000000
    114         11.344179   0.000000
    115         11.425281   0.000000
    116         11.427442   0.000000
    117         11.784918   0.000000
    118         11.787699   0.000000
    119         12.184403   0.000000
    120         12.187269   0.000000
    121         12.724726   0.000000
    122         12.727317   0.000000
    123         13.027452   0.000000
    124         13.033267   0.000000
    125         13.056189   0.000000
    126         13.058396   0.000000
    127         13.741514   0.000000
    128         13.795374   0.000000
 
 -0.8333333E-01  0.8333333E-01  0.0000000E+00  0.1157407E-02
      1        -18.482628   1.000000
      2        -18.482553   1.000000
      3        -18.475521   1.000000
      4        -18.475445   1.000000
      5        -18.475021   1.000000
      6        -18.474952   1.000000
      7        -18.474292   1.000000
      8        -18.474216   1.000000
      9        -18.461097   1.000000
     10        -18.461033   1.000000
     11        -18.460739   1.000000
     12        -18.460663   1.000000
     13        -18.428187   1.000000
     14        -18.428123   1.000000
     15        -18.427374   1.000000
     16        -18.427313   1.000000
     17        -18.422999   1.000000
     18        -18.422933   1.000000
     19        -18.422210   1.000000
     20        -18.422150   1.000000
     21        -18.421421   1.000000
     22        -18.421344   1.000000
     23        -18.417886   1.000000
     24        -18.417810   1.000000
     25        -15.580770   1.000000
     26        -15.580710   1.000000
     27        -15.569691   1.000000
     28        -15.569658   1.000000
     29        -15.565019   1.000000
     30        -15.564964   1.000000
     31        -15.563374   1.000000
     32        -15.563305   1.000000
     33        -15.553948   1.000000
     34        -15.553914   1.000000
     35        -15.543591   1.000000
     36        -15.543563   1.000000
     37        -15.540697   1.000000
     38        -15.540655   1.000000
     39        -15.529200   1.000000
     40        -15.529158   1.000000
     41        -15.527330   1.000000
     42        -15.527306   1.000000
     43        -15.415897   1.000000
     44        -15.415845   1.000000
     45        -15.415825   1.000000
     46        -15.415758   1.000000
     47        -15.401520   1.000000
     48        -15.401465   1.000000
     49        -15.396642   1.000000
     50        -15.396587   1.000000
     51        -15.393483   1.000000
     52        -15.393413   1.000000
     53        -15.388429   1.000000
     54        -15.388397   1.000000
     55        -15.385461   1.000000
     56        -15.385425   1.000000
     57        -15.370890   1.000000
     58        -15.370816   1.000000
     59        -15.367494   1.000000
     60        -15.367449   1.000000
     61         -6.876873   1.000000
     62         -6.876044   1.000000
     63         -6.193271   1.000000
     64         -6.192471   1.000000
     65         -6.192006   1.000000
     66         -6.191210   1.000000
     67         -3.334457   1.000000
     68         -3.334060   1.000000
     69         -3.325174   1.000000
     70         -3.324781   1.000000
     71         -1.900672   1.000000
     72         -1.900326   1.000000
     73          3.160065   1.000000
     74          3.160260   1.000000
     75          3.395363   1.000000
     76          3.396284   1.000000
     77          3.479657   1.000000
     78          3.480371   1.000000
     79          4.575582   1.000000
     80          4.576584   1.000000
     81          4.840012   1.000000
     82          4.840359   1.000000
     83          5.072998   1.000000
     84          5.073170   1.000000
     85          5.307400   1.000000
     86          5.307836   1.000000
     87          5.431046   1.000000
     88          5.431202   1.000000
     89          5.598279   1.000000
     90          5.598755   1.000000
     91          6.419046   0.000000
     92          6.419498   0.000000
     93          6.561386   0.000000
     94          6.562435   0.000000
     95          6.781159   0.000000
     96          6.781607   0.000000
     97          6.914929   0.000000
     98          6.915458   0.000000
     99          7.378130   0.000000
    100          7.378466   0.000000
    101          8.294611   0.000000
    102          8.295222   0.000000
    103          8.516893   0.000000
    104          8.517847   0.000000
    105          8.783816   0.000000
    106          8.785323   0.000000
    107          9.134530   0.000000
    108          9.135040   0.000000
    109         11.132502   0.000000
    110         11.137431   0.000000
    111         11.207585   0.000000
    112         11.209923   0.000000
    113         11.343899   0.000000
    114         11.344170   0.000000
    115         11.425271   0.000000
    116         11.427458   0.000000
    117         11.784900   0.000000
    118         11.787743   0.000000
    119         12.184410   0.000000
    120         12.187257   0.000000
    121         12.724713   0.000000
    122         12.727371   0.000000
    123         13.027455   0.000000
    124         13.033255   0.000000
    125         13.056180   0.000000
    126         13.058401   0.000000
    127         13.741504   0.000000
    128         13.795693   0.000000
 
  0.1666667E+00 -0.1823650E-16  0.0000000E+00  0.1157407E-02
      1        -18.480551   1.000000
      2        -18.480513   1.000000
      3        -18.477768   1.000000
      4        -18.477750   1.000000
      5        -18.474924   1.000000
      6        -18.474839   1.000000
      7        -18.471274   1.000000
      8        -18.471212   1.000000
      9        -18.461617   1.000000
     10        -18.461566   1.000000
     11        -18.459624   1.000000
     12        -18.459559   1.000000
     13        -18.429674   1.000000
     14        -18.429604   1.000000
     15        -18.427147   1.000000
     16        -18.427110   1.000000
     17        -18.423028   1.000000
     18        -18.422947   1.000000
     19        -18.421405   1.000000
     20        -18.421335   1.000000
     21        -18.418327   1.000000
     22        -18.418290   1.000000
     23        -18.418022   1.000000
     24        -18.417966   1.000000
     25        -15.577308   1.000000
     26        -15.577268   1.000000
     27        -15.570086   1.000000
     28        -15.570040   1.000000
     29        -15.566272   1.000000
     30        -15.566228   1.000000
     31        -15.561690   1.000000
     32        -15.561634   1.000000
     33        -15.547084   1.000000
     34        -15.547053   1.000000
     35        -15.539878   1.000000
     36        -15.539831   1.000000
     37        -15.536680   1.000000
     38        -15.536647   1.000000
     39        -15.520869   1.000000
     40        -15.520822   1.000000
     41        -15.515257   1.000000
     42        -15.515194   1.000000
     43        -15.427439   1.000000
     44        -15.427359   1.000000
     45        -15.427267   1.000000
     46        -15.427231   1.000000
     47        -15.406565   1.000000
     48        -15.406519   1.000000
     49        -15.401133   1.000000
     50        -15.401090   1.000000
     51        -15.397282   1.000000
     52        -15.397253   1.000000
     53        -15.392703   1.000000
     54        -15.392656   1.000000
     55        -15.380049   1.000000
     56        -15.380008   1.000000
     57        -15.377823   1.000000
     58        -15.377788   1.000000
     59        -15.366609   1.000000
     60        -15.366599   1.000000
     61         -6.710011   1.000000
     62         -6.709196   1.000000
     63         -6.049965   1.000000
     64         -6.049185   1.000000
     65         -6.039226   1.000000
     66         -6.038442   1.000000
     67         -3.419853   1.000000
     68         -3.419468   1.000000
     69         -3.346554   1.000000
     70         -3.346171   1.000000
     71         -2.225101   1.000000
     72         -2.224731   1.000000
     73          2.762240   1.000000
     74          2.763571   1.000000
     75          2.944868   1.000000
     76          2.945849   1.000000
     77          3.203974   1.000000
     78          3.204117   1.000000
     79          3.856254   1.000000
     80          3.856613   1.000000
     81          4.547726   1.000000
     82          4.548558   1.000000
     83          4.769776   1.000000
     84          4.770197   1.000000
     85          4.989524   1.000000
     86          4.989876   1.000000
     87          5.215531   1.000000
     88          5.216328   1.000000
     89          5.533538   1.000000
     90          5.534435   1.000000
     91          6.404047   0.000000
     92          6.404441   0.000000
     93          6.562408   0.000000
     94          6.562890   0.000000
     95          7.140721   0.000000
     96          7.140963   0.000000
     97          7.432151   0.000000
     98          7.433382   0.000000
     99          8.135982   0.000000
    100          8.136109   0.000000
    101          8.191905   0.000000
    102          8.192276   0.000000
    103          8.954363   0.000000
    104          8.955125   0.000000
    105          9.074411   0.000000
    106          9.074991   0.000000
    107          9.530318   0.000000
    108          9.531386   0.000000
    109         10.634550   0.000000
    110         10.637005   0.000000
    111         10.715157   0.000000
    112         10.720231   0.000000
    113         11.448537   0.000000
    114         11.449495   0.000000
    115         11.527009   0.000000
    116         11.529524   0.000000
    117         12.140135   0.000000
    118         12.142829   0.000000
    119         12.595296   0.000000
    120         12.598014   0.000000
    121         13.107046   0.000000
    122         13.109860   0.000000
    123         13.645685   0.000000
    124         13.647590   0.000000
    125         13.796361   0.000000
    126         13.800670   0.000000
    127         14.167936   0.000000
    128         14.206367   0.000000
 
  0.0000000E+00  0.1666667E+00  0.0000000E+00  0.1157407E-02
      1        -18.480582   1.000000
      2        -18.480492   1.000000
      3        -18.477812   1.000000
      4        -18.477717   1.000000
      5        -18.474909   1.000000
      6        -18.474850   1.000000
      7        -18.471270   1.000000
      8        -18.471205   1.000000
      9        -18.461634   1.000000
     10        -18.461552   1.000000
     11        -18.459618   1.000000
     12        -18.459555   1.000000
     13        -18.429666   1.000000
     14        -18.429596   1.000000
     15        -18.427184   1.000000
     16        -18.427086   1.000000
     17        -18.423017   1.000000
     18        -18.422947   1.000000
     19        -18.421398   1.000000
     20        -18.421328   1.000000
     21        -18.418367   1.000000
     22        -18.418266   1.000000
     23        -18.418046   1.000000
     24        -18.417953   1.000000
     25        -15.577328   1.000000
     26        -15.577260   1.000000
     27        -15.570098   1.000000
     28        -15.570038   1.000000
     29        -15.566265   1.000000
     30        -15.566222   1.000000
     31        -15.561689   1.000000
     32        -15.561632   1.000000
     33        -15.547076   1.000000
     34        -15.547054   1.000000
     35        -15.539874   1.000000
     36        -15.539838   1.000000
     37        -15.536680   1.000000
     38        -15.536633   1.000000
     39        -15.520869   1.000000
     40        -15.520826   1.000000
     41        -15.515249   1.000000
     42        -15.515213   1.000000
     43        -15.427419   1.000000
     44        -15.427369   1.000000
     45        -15.427287   1.000000
     46        -15.427225   1.000000
     47        -15.406567   1.000000
     48        -15.406512   1.000000
     49        -15.401129   1.000000
     50        -15.401092   1.000000
     51        -15.397288   1.000000
     52        -15.397249   1.000000
     53        -15.392693   1.000000
     54        -15.392652   1.000000
     55        -15.380053   1.000000
     56        -15.379997   1.000000
     57        -15.377838   1.000000
     58        -15.377787   1.000000
     59        -15.366633   1.000000
     60        -15.366584   1.000000
     61         -6.710010   1.000000
     62         -6.709196   1.000000
     63         -6.049963   1.000000
     64         -6.049185   1.000000
     65         -6.039225   1.000000
     66         -6.038441   1.000000
     67         -3.419856   1.000000
     68         -3.419474   1.000000
     69         -3.346561   1.000000
     70         -3.346169   1.000000
     71         -2.225106   1.000000
     72         -2.224730   1.000000
     73          2.762236   1.000000
     74          2.763595   1.000000
     75          2.944728   1.000000
     76          2.945981   1.000000
     77          3.203902   1.000000
     78          3.204184   1.000000
     79          3.856003   1.000000
     80          3.856881   1.000000
     81          4.547832   1.000000
     82          4.548452   1.000000
     83          4.769702   1.000000
     84          4.770274   1.000000
     85          4.989433   1.000000
     86          4.989957   1.000000
     87          5.215635   1.000000
     88          5.216252   1.000000
     89          5.533498   1.000000
     90          5.534509   1.000000
     91          6.403917   0.000000
     92          6.404530   0.000000
     93          6.562398   0.000000
     94          6.562901   0.000000
     95          7.140539   0.000000
     96          7.141108   0.000000
     97          7.432102   0.000000
     98          7.433428   0.000000
     99          8.135866   0.000000
    100          8.136233   0.000000
    101          8.191663   0.000000
    102          8.192528   0.000000
    103          8.954264   0.000000
    104          8.955214   0.000000
    105          9.074191   0.000000
    106          9.075216   0.000000
    107          9.530308   0.000000
    108          9.531422   0.000000
    109         10.634472   0.000000
    110         10.637040   0.000000
    111         10.715090   0.000000
    112         10.720259   0.000000
    113         11.448510   0.000000
    114         11.449522   0.000000
    115         11.527056   0.000000
    116         11.529460   0.000000
    117         12.140176   0.000000
    118         12.142827   0.000000
    119         12.595352   0.000000
    120         12.597988   0.000000
    121         13.107006   0.000000
    122         13.109904   0.000000
    123         13.645693   0.000000
    124         13.647568   0.000000
    125         13.796357   0.000000
    126         13.800441   0.000000
    127         14.167923   0.000000
    128         14.187614   0.000000
 
 -0.1666667E+00  0.1666667E+00  0.0000000E+00  0.1157407E-02
      1        -18.480567   1.000000
      2        -18.480492   1.000000
      3        -18.477791   1.000000
      4        -18.477720   1.000000
      5        -18.474916   1.000000
      6        -18.474851   1.000000
      7        -18.471285   1.000000
      8        -18.471205   1.000000
      9        -18.461618   1.000000
     10        -18.461558   1.000000
     11        -18.459631   1.000000
     12        -18.459559   1.000000
     13        -18.429677   1.000000
     14        -18.429611   1.000000
     15        -18.427152   1.000000
     16        -18.427093   1.000000
     17        -18.423025   1.000000
     18        -18.422960   1.000000
     19        -18.421407   1.000000
     20        -18.421343   1.000000
     21        -18.418333   1.000000
     22        -18.418272   1.000000
     23        -18.418021   1.000000
     24        -18.417957   1.000000
     25        -15.577311   1.000000