       N       E                     dE             d eps       ncg     rms          rms(c)
DAV:   1     0.890101338558E+03    0.89010E+03   -0.36635E+04222208   0.123E+03
DAV:   2     0.598009492481E+02   -0.83030E+03   -0.81170E+03226880   0.396E+02
DAV:   3    -0.231761647199E+02   -0.82977E+02   -0.82275E+02277216   0.151E+02
DAV:   4    -0.261701732594E+02   -0.29940E+01   -0.29930E+01304800   0.321E+01
DAV:   5    -0.262307491226E+02   -0.60576E-01   -0.60575E-01305824   0.385E+00    0.185E+01
DAV:   6    -0.252459779791E+02    0.98477E+00   -0.34094E+00259872   0.206E+01    0.750E+00
DAV:   7    -0.265238699007E+02   -0.12779E+01   -0.77535E-01257472   0.503E+00    0.344E+00
DAV:   8    -0.280454275301E+02   -0.15216E+01   -0.11344E+00268608   0.282E+00    0.150E+00
DAV:   9    -0.282419130436E+02   -0.19649E+00   -0.23746E-01300672   0.337E+00    0.383E-01
DAV:  10    -0.282388090085E+02    0.31040E-02   -0.21699E-02258176   0.137E+00    0.134E-01
DAV:  11    -0.282385961430E+02    0.21287E-03   -0.24667E-03321344   0.361E-01    0.660E-02
DAV:  12    -0.282385783854E+02    0.17758E-04   -0.41027E-04233376   0.960E-02
   1 F= -.28238578E+02 E0= -.28238453E+02  d E =-.250099E-03  mag=     0.0011     0.0010     0.0006
       N       E                     dE             ncg
DAV:   1     0.276124492825E+05   -0.19159E+06    37632
DAV:   2    -0.943823246350E+05   -0.12199E+06    38784
DAV:   3    -0.106521697581E+06   -0.12139E+05    46336
DAV:   4    -0.106958300999E+06   -0.43660E+03    50240
DAV:   5    -0.106970254299E+06   -0.11953E+02    54720
DAV:   6    -0.106970569798E+06   -0.31550E+00    53248
DAV:   7    -0.106970577928E+06   -0.81308E-02    52128
DAV:   8    -0.106970578096E+06   -0.16721E-03    29888
DAV:   9    -0.106970578145E+06   -0.49353E-04    32160
