 DBCSR| CPU Multiplication driver                                           BLAS (U)
 DBCSR| Multrec recursion limit                                              512 (U)
 DBCSR| Multiplication stack size                                           1000 (D)
 DBCSR| Maximum elements for images                                    UNLIMITED (U)
 DBCSR| Multiplicative factor virtual images                                   1 (U)
 DBCSR| Use multiplication densification                                       T (D)
 DBCSR| Multiplication size stacks                                             3 (U)
 DBCSR| Use memory pool for CPU allocation                                     F (U)
 DBCSR| Number of 3D layers                                               SINGLE (U)
 DBCSR| Use MPI memory allocation                                              F (U)
 DBCSR| Use RMA algorithm                                                      F (U)
 DBCSR| Use Communication thread                                               T (U)
 DBCSR| Communication thread load                                             45 (D)
 DBCSR| MPI: My process id                                                     0
 DBCSR| MPI: Number of processes                                               8
 DBCSR| OMP: Current number of threads                                        12
 DBCSR| OMP: Max number of threads                                            12
 DBCSR| Split modifier for TAS multiplication algorithm                  1.0E+00 (U)


  **** **** ******  **  PROGRAM STARTED AT               2025-08-04 14:54:48.320
 ***** ** ***  *** **   PROGRAM STARTED ON                          i04r09c05s12
 **    ****   ******    PROGRAM STARTED BY                               di38fab
 ***** **    ** ** **   PROGRAM PROCESS ID                               2518013
  **** **  *******  **  PROGRAM STARTED IN /hppfs/scratch/04/di38fab/09_GTH/Delt
                                           a_Set/Cl/aug-SZV-MOLOPT-GTH-tier-1/8x
                                           8x8

 CP2K| version string:                 CP2K version 2025.1 (Development Version)
 CP2K| source code revision number:                                  git:3130539
 CP2K| cp2kflags: omp libint fftw3 libxc parallel scalapack max_contr=4         
 CP2K| is freely available from                            https://www.cp2k.org/
 CP2K| Program compiled at                         Tue Jun  3 16:14:32 CEST 2025
 CP2K| Program compiled on                                               login01
 CP2K| Program compiled for                                        Supermuc-foss
 CP2K| Data directory path                  /hppfs/work/pn36zo/di38fab/cp2k/data
 CP2K| Input file name                                                    GW.inp

 GLOBAL| Force Environment number                                              1
 GLOBAL| Basis set file name            /hppfs/scratch/04/di38fab/09_GTH/BASIS_A
 GLOBAL| Potential file name            /hppfs/work/pn36zo/di38fab/cp2k/data/GTH
 GLOBAL| MM Potential file name                                     MM_POTENTIAL
 GLOBAL| Coordinate file name                                             Cl.cif
 GLOBAL| Method name                                                        CP2K
 GLOBAL| Project name                                                       WSe2
 GLOBAL| Run type                                                         ENERGY
 GLOBAL| FFT library                                                       FFTW3
 GLOBAL| Diagonalization library                                       ScaLAPACK
 GLOBAL| Cholesky decomposition library                                ScaLAPACK
 GLOBAL| DGEMM library                                                      BLAS
 GLOBAL| Orthonormality check for eigenvectors                          DISABLED
 GLOBAL| Matrix multiplication library                                 ScaLAPACK
 GLOBAL| All-to-all communication in single precision                          F
 GLOBAL| FFTs using library dependent lengths                                  F
 GLOBAL| Grid backend                                                       AUTO
 GLOBAL| Global print level                                               MEDIUM
 GLOBAL| MPI I/O enabled                                                       T
 GLOBAL| Total number of message passing processes                             8
 GLOBAL| Number of threads for this process                                   12
 GLOBAL| This output is from process                                           0
 GLOBAL| OpenMP stack size per thread (OMP_STACKSIZE)                    default
 GLOBAL| CPU model name             Intel(R) Xeon(R) Platinum 8174 CPU @ 3.10GHz

 MEMORY| system memory details [Kb]
 MEMORY|                        rank 0           min           max       average
 MEMORY| MemTotal             98436708      98436664      98436708      98436686
 MEMORY| MemFree              84770100      84441360      84770100      84605730
 MEMORY| Buffers                     0             0             0             0
 MEMORY| Cached                2369080       2369080       2383352       2376216
 MEMORY| Slab                  1234736       1234736       1290188       1262462
 MEMORY| SReclaimable           276560        274476        276560        275518
 MEMORY| MemLikelyFree        87415740      87099188      87415740      87257464


 *** Fundamental physical constants (SI units) ***

 *** Literature: B. J. Mohr and B. N. Taylor,
 ***             CODATA recommended values of the fundamental physical
 ***             constants: 2006, Web Version 5.1
 ***             http://physics.nist.gov/constants

 Speed of light in vacuum [m/s]                             2.99792458000000E+08
 Magnetic constant or permeability of vacuum [N/A**2]       1.25663706143592E-06
 Electric constant or permittivity of vacuum [F/m]          8.85418781762039E-12
 Planck constant (h) [J*s]                                  6.62606896000000E-34
 Planck constant (h-bar) [J*s]                              1.05457162825177E-34
 Elementary charge [C]                                      1.60217648700000E-19
 Electron mass [kg]                                         9.10938215000000E-31
 Electron g factor [ ]                                     -2.00231930436220E+00
 Proton mass [kg]                                           1.67262163700000E-27
 Fine-structure constant                                    7.29735253760000E-03
 Rydberg constant [1/m]                                     1.09737315685270E+07
 Avogadro constant [1/mol]                                  6.02214179000000E+23
 Boltzmann constant [J/K]                                   1.38065040000000E-23
 Atomic mass unit [kg]                                      1.66053878200000E-27
 Bohr radius [m]                                            5.29177208590000E-11

 *** Conversion factors ***

 [u] -> [a.u.]                                              1.82288848426455E+03
 [Angstrom] -> [Bohr] = [a.u.]                              1.88972613288564E+00
 [a.u.] = [Bohr] -> [Angstrom]                              5.29177208590000E-01
 [a.u.] -> [s]                                              2.41888432650478E-17
 [a.u.] -> [fs]                                             2.41888432650478E-02
 [a.u.] -> [J]                                              4.35974393937059E-18
 [a.u.] -> [N]                                              8.23872205491840E-08
 [a.u.] -> [K]                                              3.15774647902944E+05
 [a.u.] -> [kJ/mol]                                         2.62549961709828E+03
 [a.u.] -> [kcal/mol]                                       6.27509468713739E+02
 [a.u.] -> [Pa]                                             2.94210107994716E+13
 [a.u.] -> [bar]                                            2.94210107994716E+08
 [a.u.] -> [atm]                                            2.90362800883016E+08
 [a.u.] -> [eV]                                             2.72113838565563E+01
 [a.u.] -> [Hz]                                             6.57968392072181E+15
 [a.u.] -> [1/cm] (wave numbers)                            2.19474631370540E+05
 [a.u./Bohr**2] -> [1/cm]                                   5.14048714338585E+03
 

 CELL_TOP| Volume [angstrom^3]:                                       305.428517
 CELL_TOP| Vector a [angstrom     7.779     0.000     0.000   |a| =     7.778750
 CELL_TOP| Vector b [angstrom     0.000     4.349     0.000   |b| =     4.349410
 CELL_TOP| Vector c [angstrom     0.000     0.000     9.028   |c| =     9.027540
 CELL_TOP| Angle (b,c), alpha [degree]:                                90.000000
 CELL_TOP| Angle (a,c), beta  [degree]:                                90.000000
 CELL_TOP| Angle (a,b), gamma [degree]:                                90.000000
 CELL_TOP| Numerically orthorhombic:                                         YES
 CELL_TOP| Periodicity                                                       XYZ

 CELL_CIF| Volume [angstrom^3]:                                       305.428517
 CELL_CIF| Vector a [angstrom     7.779     0.000     0.000   |a| =     7.778750
 CELL_CIF| Vector b [angstrom     0.000     4.349     0.000   |b| =     4.349410
 CELL_CIF| Vector c [angstrom     0.000     0.000     9.028   |c| =     9.027540
 CELL_CIF| Angle (b,c), alpha [degree]:                                90.000000
 CELL_CIF| Angle (a,c), beta  [degree]:                                90.000000
 CELL_CIF| Angle (a,b), gamma [degree]:                                90.000000
 CELL_CIF| Numerically orthorhombic:                                         YES
 CELL_CIF| Periodicity                                                       XYZ

 GENERATE|  Preliminary Number of Bonds generated:                             0
 GENERATE|  Achieved consistency in connectivity generation.

 CELL| Volume [angstrom^3]:                                           305.428517
 CELL| Vector a [angstrom]:       7.779     0.000     0.000   |a| =     7.778750
 CELL| Vector b [angstrom]:       0.000     4.349     0.000   |b| =     4.349410
 CELL| Vector c [angstrom]:       0.000     0.000     9.028   |c| =     9.027540
 CELL| Angle (b,c), alpha [degree]:                                    90.000000
 CELL| Angle (a,c), beta  [degree]:                                    90.000000
 CELL| Angle (a,b), gamma [degree]:                                    90.000000
 CELL| Numerically orthorhombic:                                             YES
 CELL| Periodicity                                                           XYZ

 CELL_REF| Volume [angstrom^3]:                                       305.428517
 CELL_REF| Vector a [angstrom     7.779     0.000     0.000   |a| =     7.778750
 CELL_REF| Vector b [angstrom     0.000     4.349     0.000   |b| =     4.349410
 CELL_REF| Vector c [angstrom     0.000     0.000     9.028   |c| =     9.027540
 CELL_REF| Angle (b,c), alpha [degree]:                                90.000000
 CELL_REF| Angle (a,c), beta  [degree]:                                90.000000
 CELL_REF| Angle (a,b), gamma [degree]:                                90.000000
 CELL_REF| Numerically orthorhombic:                                         YES
 CELL_REF| Periodicity                                                       XYZ

 *** WARNING in cryssym.F:180 :: Symmetry library SPGLIB not available ***


 *******************************************************************************
                                    Kpoints
 *******************************************************************************
 BRILLOUIN| K-point scheme                                        Monkhorst-Pack
 BRILLOUIN| K-Point grid                                             8    8    8
 BRILLOUIN| Accuracy in Symmetry determination                      0.100000E-05
 BRILLOUIN| K-Point point group symmetrization                               OFF
 BRILLOUIN| Wavefunction type                                            COMPLEX
 BRILLOUIN| List of Kpoints [2 Pi/Bohr]                                      256
 BRILLOUIN| Number           Weight            X              Y              Z
 BRILLOUIN|     1           0.00391       -0.43750       -0.43750       -0.43750
 BRILLOUIN|     2           0.00391       -0.43750       -0.43750       -0.31250
 BRILLOUIN|     3           0.00391       -0.43750       -0.43750       -0.18750
 BRILLOUIN|     4           0.00391       -0.43750       -0.43750       -0.06250
 BRILLOUIN|     5           0.00391       -0.43750       -0.43750        0.06250
 BRILLOUIN|     6           0.00391       -0.43750       -0.43750        0.18750
 BRILLOUIN|     7           0.00391       -0.43750       -0.43750        0.31250
 BRILLOUIN|     8           0.00391       -0.43750       -0.43750        0.43750
 BRILLOUIN|     9           0.00391       -0.43750       -0.31250       -0.43750
 BRILLOUIN|    10           0.00391       -0.43750       -0.31250       -0.31250
 BRILLOUIN|    11           0.00391       -0.43750       -0.31250       -0.18750
 BRILLOUIN|    12           0.00391       -0.43750       -0.31250       -0.06250
 BRILLOUIN|    13           0.00391       -0.43750       -0.31250        0.06250
 BRILLOUIN|    14           0.00391       -0.43750       -0.31250        0.18750
 BRILLOUIN|    15           0.00391       -0.43750       -0.31250        0.31250
 BRILLOUIN|    16           0.00391       -0.43750       -0.31250        0.43750
 BRILLOUIN|    17           0.00391       -0.43750       -0.18750       -0.43750
 BRILLOUIN|    18           0.00391       -0.43750       -0.18750       -0.31250
 BRILLOUIN|    19           0.00391       -0.43750       -0.18750       -0.18750
 BRILLOUIN|    20           0.00391       -0.43750       -0.18750       -0.06250
 BRILLOUIN|    21           0.00391       -0.43750       -0.18750        0.06250
 BRILLOUIN|    22           0.00391       -0.43750       -0.18750        0.18750
 BRILLOUIN|    23           0.00391       -0.43750       -0.18750        0.31250
 BRILLOUIN|    24           0.00391       -0.43750       -0.18750        0.43750
 BRILLOUIN|    25           0.00391       -0.43750       -0.06250       -0.43750
 BRILLOUIN|    26           0.00391       -0.43750       -0.06250       -0.31250
 BRILLOUIN|    27           0.00391       -0.43750       -0.06250       -0.18750
 BRILLOUIN|    28           0.00391       -0.43750       -0.06250       -0.06250
 BRILLOUIN|    29           0.00391       -0.43750       -0.06250        0.06250
 BRILLOUIN|    30           0.00391       -0.43750       -0.06250        0.18750
 BRILLOUIN|    31           0.00391       -0.43750       -0.06250        0.31250
 BRILLOUIN|    32           0.00391       -0.43750       -0.06250        0.43750
 BRILLOUIN|    33           0.00391       -0.43750        0.06250       -0.43750
 BRILLOUIN|    34           0.00391       -0.43750        0.06250       -0.31250
 BRILLOUIN|    35           0.00391       -0.43750        0.06250       -0.18750
 BRILLOUIN|    36           0.00391       -0.43750        0.06250       -0.06250
 BRILLOUIN|    37           0.00391       -0.43750        0.06250        0.06250
 BRILLOUIN|    38           0.00391       -0.43750        0.06250        0.18750
 BRILLOUIN|    39           0.00391       -0.43750        0.06250        0.31250
 BRILLOUIN|    40           0.00391       -0.43750        0.06250        0.43750
 BRILLOUIN|    41           0.00391       -0.43750        0.18750       -0.43750
 BRILLOUIN|    42           0.00391       -0.43750        0.18750       -0.31250
 BRILLOUIN|    43           0.00391       -0.43750        0.18750       -0.18750
 BRILLOUIN|    44           0.00391       -0.43750        0.18750       -0.06250
 BRILLOUIN|    45           0.00391       -0.43750        0.18750        0.06250
 BRILLOUIN|    46           0.00391       -0.43750        0.18750        0.18750
 BRILLOUIN|    47           0.00391       -0.43750        0.18750        0.31250
 BRILLOUIN|    48           0.00391       -0.43750        0.18750        0.43750
 BRILLOUIN|    49           0.00391       -0.43750        0.31250       -0.43750
 BRILLOUIN|    50           0.00391       -0.43750        0.31250       -0.31250
 BRILLOUIN|    51           0.00391       -0.43750        0.31250       -0.18750
 BRILLOUIN|    52           0.00391       -0.43750        0.31250       -0.06250
 BRILLOUIN|    53           0.00391       -0.43750        0.31250        0.06250
 BRILLOUIN|    54           0.00391       -0.43750        0.31250        0.18750
 BRILLOUIN|    55           0.00391       -0.43750        0.31250        0.31250
 BRILLOUIN|    56           0.00391       -0.43750        0.31250        0.43750
 BRILLOUIN|    57           0.00391       -0.43750        0.43750       -0.43750
 BRILLOUIN|    58           0.00391       -0.43750        0.43750       -0.31250
 BRILLOUIN|    59           0.00391       -0.43750        0.43750       -0.18750
 BRILLOUIN|    60           0.00391       -0.43750        0.43750       -0.06250
 BRILLOUIN|    61           0.00391       -0.43750        0.43750        0.06250
 BRILLOUIN|    62           0.00391       -0.43750        0.43750        0.18750
 BRILLOUIN|    63           0.00391       -0.43750        0.43750        0.31250
 BRILLOUIN|    64           0.00391       -0.43750        0.43750        0.43750
 BRILLOUIN|    65           0.00391       -0.31250       -0.43750       -0.43750
 BRILLOUIN|    66           0.00391       -0.31250       -0.43750       -0.31250
 BRILLOUIN|    67           0.00391       -0.31250       -0.43750       -0.18750
 BRILLOUIN|    68           0.00391       -0.31250       -0.43750       -0.06250
 BRILLOUIN|    69           0.00391       -0.31250       -0.43750        0.06250
 BRILLOUIN|    70           0.00391       -0.31250       -0.43750        0.18750
 BRILLOUIN|    71           0.00391       -0.31250       -0.43750        0.31250
 BRILLOUIN|    72           0.00391       -0.31250       -0.43750        0.43750
 BRILLOUIN|    73           0.00391       -0.31250       -0.31250       -0.43750
 BRILLOUIN|    74           0.00391       -0.31250       -0.31250       -0.31250
 BRILLOUIN|    75           0.00391       -0.31250       -0.31250       -0.18750
 BRILLOUIN|    76           0.00391       -0.31250       -0.31250       -0.06250
 BRILLOUIN|    77           0.00391       -0.31250       -0.31250        0.06250
 BRILLOUIN|    78           0.00391       -0.31250       -0.31250        0.18750
 BRILLOUIN|    79           0.00391       -0.31250       -0.31250        0.31250
 BRILLOUIN|    80           0.00391       -0.31250       -0.31250        0.43750
 BRILLOUIN|    81           0.00391       -0.31250       -0.18750       -0.43750
 BRILLOUIN|    82           0.00391       -0.31250       -0.18750       -0.31250
 BRILLOUIN|    83           0.00391       -0.31250       -0.18750       -0.18750
 BRILLOUIN|    84           0.00391       -0.31250       -0.18750       -0.06250
 BRILLOUIN|    85           0.00391       -0.31250       -0.18750        0.06250
 BRILLOUIN|    86           0.00391       -0.31250       -0.18750        0.18750
 BRILLOUIN|    87           0.00391       -0.31250       -0.18750        0.31250
 BRILLOUIN|    88           0.00391       -0.31250       -0.18750        0.43750
 BRILLOUIN|    89           0.00391       -0.31250       -0.06250       -0.43750
 BRILLOUIN|    90           0.00391       -0.31250       -0.06250       -0.31250
 BRILLOUIN|    91           0.00391       -0.31250       -0.06250       -0.18750
 BRILLOUIN|    92           0.00391       -0.31250       -0.06250       -0.06250
 BRILLOUIN|    93           0.00391       -0.31250       -0.06250        0.06250
 BRILLOUIN|    94           0.00391       -0.31250       -0.06250        0.18750
 BRILLOUIN|    95           0.00391       -0.31250       -0.06250        0.31250
 BRILLOUIN|    96           0.00391       -0.31250       -0.06250        0.43750
 BRILLOUIN|    97           0.00391       -0.31250        0.06250       -0.43750
 BRILLOUIN|    98           0.00391       -0.31250        0.06250       -0.31250
 BRILLOUIN|    99           0.00391       -0.31250        0.06250       -0.18750
 BRILLOUIN|   100           0.00391       -0.31250        0.06250       -0.06250
 BRILLOUIN|   101           0.00391       -0.31250        0.06250        0.06250
 BRILLOUIN|   102           0.00391       -0.31250        0.06250        0.18750
 BRILLOUIN|   103           0.00391       -0.31250        0.06250        0.31250
 BRILLOUIN|   104           0.00391       -0.31250        0.06250        0.43750
 BRILLOUIN|   105           0.00391       -0.31250        0.18750       -0.43750
 BRILLOUIN|   106           0.00391       -0.31250        0.18750       -0.31250
 BRILLOUIN|   107           0.00391       -0.31250        0.18750       -0.18750
 BRILLOUIN|   108           0.00391       -0.31250        0.18750       -0.06250
 BRILLOUIN|   109           0.00391       -0.31250        0.18750        0.06250
 BRILLOUIN|   110           0.00391       -0.31250        0.18750        0.18750
 BRILLOUIN|   111           0.00391       -0.31250        0.18750        0.31250
 BRILLOUIN|   112           0.00391       -0.31250        0.18750        0.43750
 BRILLOUIN|   113           0.00391       -0.31250        0.31250       -0.43750
 BRILLOUIN|   114           0.00391       -0.31250        0.31250       -0.31250
 BRILLOUIN|   115           0.00391       -0.31250        0.31250       -0.18750
 BRILLOUIN|   116           0.00391       -0.31250        0.31250       -0.06250
 BRILLOUIN|   117           0.00391       -0.31250        0.31250        0.06250
 BRILLOUIN|   118           0.00391       -0.31250        0.31250        0.18750
 BRILLOUIN|   119           0.00391       -0.31250        0.31250        0.31250
 BRILLOUIN|   120           0.00391       -0.31250        0.31250        0.43750
 BRILLOUIN|   121           0.00391       -0.31250        0.43750       -0.43750
 BRILLOUIN|   122           0.00391       -0.31250        0.43750       -0.31250
 BRILLOUIN|   123           0.00391       -0.31250        0.43750       -0.18750
 BRILLOUIN|   124           0.00391       -0.31250        0.43750       -0.06250
 BRILLOUIN|   125           0.00391       -0.31250        0.43750        0.06250
 BRILLOUIN|   126           0.00391       -0.31250        0.43750        0.18750
 BRILLOUIN|   127           0.00391       -0.31250        0.43750        0.31250
 BRILLOUIN|   128           0.00391       -0.31250        0.43750        0.43750
 BRILLOUIN|   129           0.00391       -0.18750       -0.43750       -0.43750
 BRILLOUIN|   130           0.00391       -0.18750       -0.43750       -0.31250
 BRILLOUIN|   131           0.00391       -0.18750       -0.43750       -0.18750
 BRILLOUIN|   132           0.00391       -0.18750       -0.43750       -0.06250
 BRILLOUIN|   133           0.00391       -0.18750       -0.43750        0.06250
 BRILLOUIN|   134           0.00391       -0.18750       -0.43750        0.18750
 BRILLOUIN|   135           0.00391       -0.18750       -0.43750        0.31250
 BRILLOUIN|   136           0.00391       -0.18750       -0.43750        0.43750
 BRILLOUIN|   137           0.00391       -0.18750       -0.31250       -0.43750
 BRILLOUIN|   138           0.00391       -0.18750       -0.31250       -0.31250
 BRILLOUIN|   139           0.00391       -0.18750       -0.31250       -0.18750
 BRILLOUIN|   140           0.00391       -0.18750       -0.31250       -0.06250
 BRILLOUIN|   141           0.00391       -0.18750       -0.31250        0.06250
 BRILLOUIN|   142           0.00391       -0.18750       -0.31250        0.18750
 BRILLOUIN|   143           0.00391       -0.18750       -0.31250        0.31250
 BRILLOUIN|   144           0.00391       -0.18750       -0.31250        0.43750
 BRILLOUIN|   145           0.00391       -0.18750       -0.18750       -0.43750
 BRILLOUIN|   146           0.00391       -0.18750       -0.18750       -0.31250
 BRILLOUIN|   147           0.00391       -0.18750       -0.18750       -0.18750
 BRILLOUIN|   148           0.00391       -0.18750       -0.18750       -0.06250
 BRILLOUIN|   149           0.00391       -0.18750       -0.18750        0.06250
 BRILLOUIN|   150           0.00391       -0.18750       -0.18750        0.18750
 BRILLOUIN|   151           0.00391       -0.18750       -0.18750        0.31250
 BRILLOUIN|   152           0.00391       -0.18750       -0.18750        0.43750
 BRILLOUIN|   153           0.00391       -0.18750       -0.06250       -0.43750
 BRILLOUIN|   154           0.00391       -0.18750       -0.06250       -0.31250
 BRILLOUIN|   155           0.00391       -0.18750       -0.06250       -0.18750
 BRILLOUIN|   156           0.00391       -0.18750       -0.06250       -0.06250
 BRILLOUIN|   157           0.00391       -0.18750       -0.06250        0.06250
 BRILLOUIN|   158           0.00391       -0.18750       -0.06250        0.18750
 BRILLOUIN|   159           0.00391       -0.18750       -0.06250        0.31250
 BRILLOUIN|   160           0.00391       -0.18750       -0.06250        0.43750
 BRILLOUIN|   161           0.00391       -0.18750        0.06250       -0.43750
 BRILLOUIN|   162           0.00391       -0.18750        0.06250       -0.31250
 BRILLOUIN|   163           0.00391       -0.18750        0.06250       -0.18750
 BRILLOUIN|   164           0.00391       -0.18750        0.06250       -0.06250
 BRILLOUIN|   165           0.00391       -0.18750        0.06250        0.06250
 BRILLOUIN|   166           0.00391       -0.18750        0.06250        0.18750
 BRILLOUIN|   167           0.00391       -0.18750        0.06250        0.31250
 BRILLOUIN|   168           0.00391       -0.18750        0.06250        0.43750
 BRILLOUIN|   169           0.00391       -0.18750        0.18750       -0.43750
 BRILLOUIN|   170           0.00391       -0.18750        0.18750       -0.31250
 BRILLOUIN|   171           0.00391       -0.18750        0.18750       -0.18750
 BRILLOUIN|   172           0.00391       -0.18750        0.18750       -0.06250
 BRILLOUIN|   173           0.00391       -0.18750        0.18750        0.06250
 BRILLOUIN|   174           0.00391       -0.18750        0.18750        0.18750
 BRILLOUIN|   175           0.00391       -0.18750        0.18750        0.31250
 BRILLOUIN|   176           0.00391       -0.18750        0.18750        0.43750
 BRILLOUIN|   177           0.00391       -0.18750        0.31250       -0.43750
 BRILLOUIN|   178           0.00391       -0.18750        0.31250       -0.31250
 BRILLOUIN|   179           0.00391       -0.18750        0.31250       -0.18750
 BRILLOUIN|   180           0.00391       -0.18750        0.31250       -0.06250
 BRILLOUIN|   181           0.00391       -0.18750        0.31250        0.06250
 BRILLOUIN|   182           0.00391       -0.18750        0.31250        0.18750
 BRILLOUIN|   183           0.00391       -0.18750        0.31250        0.31250
 BRILLOUIN|   184           0.00391       -0.18750        0.31250        0.43750
 BRILLOUIN|   185           0.00391       -0.18750        0.43750       -0.43750
 BRILLOUIN|   186           0.00391       -0.18750        0.43750       -0.31250
 BRILLOUIN|   187           0.00391       -0.18750        0.43750       -0.18750
 BRILLOUIN|   188           0.00391       -0.18750        0.43750       -0.06250
 BRILLOUIN|   189           0.00391       -0.18750        0.43750        0.06250
 BRILLOUIN|   190           0.00391       -0.18750        0.43750        0.18750
 BRILLOUIN|   191           0.00391       -0.18750        0.43750        0.31250
 BRILLOUIN|   192           0.00391       -0.18750        0.43750        0.43750
 BRILLOUIN|   193           0.00391       -0.06250       -0.43750       -0.43750
 BRILLOUIN|   194           0.00391       -0.06250       -0.43750       -0.31250
 BRILLOUIN|   195           0.00391       -0.06250       -0.43750       -0.18750
 BRILLOUIN|   196           0.00391       -0.06250       -0.43750       -0.06250
 BRILLOUIN|   197           0.00391       -0.06250       -0.43750        0.06250
 BRILLOUIN|   198           0.00391       -0.06250       -0.43750        0.18750
 BRILLOUIN|   199           0.00391       -0.06250       -0.43750        0.31250
 BRILLOUIN|   200           0.00391       -0.06250       -0.43750        0.43750
 BRILLOUIN|   201           0.00391       -0.06250       -0.31250       -0.43750
 BRILLOUIN|   202           0.00391       -0.06250       -0.31250       -0.31250
 BRILLOUIN|   203           0.00391       -0.06250       -0.31250       -0.18750
 BRILLOUIN|   204           0.00391       -0.06250       -0.31250       -0.06250
 BRILLOUIN|   205           0.00391       -0.06250       -0.31250        0.06250
 BRILLOUIN|   206           0.00391       -0.06250       -0.31250        0.18750
 BRILLOUIN|   207           0.00391       -0.06250       -0.31250        0.31250
 BRILLOUIN|   208           0.00391       -0.06250       -0.31250        0.43750
 BRILLOUIN|   209           0.00391       -0.06250       -0.18750       -0.43750
 BRILLOUIN|   210           0.00391       -0.06250       -0.18750       -0.31250
 BRILLOUIN|   211           0.00391       -0.06250       -0.18750       -0.18750
 BRILLOUIN|   212           0.00391       -0.06250       -0.18750       -0.06250
 BRILLOUIN|   213           0.00391       -0.06250       -0.18750        0.06250
 BRILLOUIN|   214           0.00391       -0.06250       -0.18750        0.18750
 BRILLOUIN|   215           0.00391       -0.06250       -0.18750        0.31250
 BRILLOUIN|   216           0.00391       -0.06250       -0.18750        0.43750
 BRILLOUIN|   217           0.00391       -0.06250       -0.06250       -0.43750
 BRILLOUIN|   218           0.00391       -0.06250       -0.06250       -0.31250
 BRILLOUIN|   219           0.00391       -0.06250       -0.06250       -0.18750
 BRILLOUIN|   220           0.00391       -0.06250       -0.06250       -0.06250
 BRILLOUIN|   221           0.00391       -0.06250       -0.06250        0.06250
 BRILLOUIN|   222           0.00391       -0.06250       -0.06250        0.18750
 BRILLOUIN|   223           0.00391       -0.06250       -0.06250        0.31250
 BRILLOUIN|   224           0.00391       -0.06250       -0.06250        0.43750
 BRILLOUIN|   225           0.00391       -0.06250        0.06250       -0.43750
 BRILLOUIN|   226           0.00391       -0.06250        0.06250       -0.31250
 BRILLOUIN|   227           0.00391       -0.06250        0.06250       -0.18750
 BRILLOUIN|   228           0.00391       -0.06250        0.06250       -0.06250
 BRILLOUIN|   229           0.00391       -0.06250        0.06250        0.06250
 BRILLOUIN|   230           0.00391       -0.06250        0.06250        0.18750
 BRILLOUIN|   231           0.00391       -0.06250        0.06250        0.31250
 BRILLOUIN|   232           0.00391       -0.06250        0.06250        0.43750
 BRILLOUIN|   233           0.00391       -0.06250        0.18750       -0.43750
 BRILLOUIN|   234           0.00391       -0.06250        0.18750       -0.31250
 BRILLOUIN|   235           0.00391       -0.06250        0.18750       -0.18750
 BRILLOUIN|   236           0.00391       -0.06250        0.18750       -0.06250
 BRILLOUIN|   237           0.00391       -0.06250        0.18750        0.06250
 BRILLOUIN|   238           0.00391       -0.06250        0.18750        0.18750
 BRILLOUIN|   239           0.00391       -0.06250        0.18750        0.31250
 BRILLOUIN|   240           0.00391       -0.06250        0.18750        0.43750
 BRILLOUIN|   241           0.00391       -0.06250        0.31250       -0.43750
 BRILLOUIN|   242           0.00391       -0.06250        0.31250       -0.31250
 BRILLOUIN|   243           0.00391       -0.06250        0.31250       -0.18750
 BRILLOUIN|   244           0.00391       -0.06250        0.31250       -0.06250
 BRILLOUIN|   245           0.00391       -0.06250        0.31250        0.06250
 BRILLOUIN|   246           0.00391       -0.06250        0.31250        0.18750
 BRILLOUIN|   247           0.00391       -0.06250        0.31250        0.31250
 BRILLOUIN|   248           0.00391       -0.06250        0.31250        0.43750
 BRILLOUIN|   249           0.00391       -0.06250        0.43750       -0.43750
 BRILLOUIN|   250           0.00391       -0.06250        0.43750       -0.31250
 BRILLOUIN|   251           0.00391       -0.06250        0.43750       -0.18750
 BRILLOUIN|   252           0.00391       -0.06250        0.43750       -0.06250
 BRILLOUIN|   253           0.00391       -0.06250        0.43750        0.06250
 BRILLOUIN|   254           0.00391       -0.06250        0.43750        0.18750
 BRILLOUIN|   255           0.00391       -0.06250        0.43750        0.31250
 BRILLOUIN|   256           0.00391       -0.06250        0.43750        0.43750
 *******************************************************************************

 *******************************************************************************
 *******************************************************************************
 **                                                                           **
 **     #####                         ##              ##                      **
 **    ##   ##            ##          ##              ##                      **
 **   ##     ##                       ##            ######                    **
 **   ##     ##  ##   ##  ##   #####  ##  ##   ####   ##    #####    #####    **
 **   ##     ##  ##   ##  ##  ##      ## ##   ##      ##   ##   ##  ##   ##   **
 **   ##  ## ##  ##   ##  ##  ##      ####     ###    ##   ######   ######    **
 **    ##  ###   ##   ##  ##  ##      ## ##      ##   ##   ##       ##        **
 **     #######   #####   ##   #####  ##  ##  ####    ##    #####   ##        **
 **           ##                                                    ##        **
 **                                                                           **
 **                                                ... make the atoms dance   **
 **                                                                           **
 **            Copyright (C) by CP2K developers group (2000-2025)             **
 **                      J. Chem. Phys. 152, 194103 (2020)                    **
 **                                                                           **
 *******************************************************************************

 DFT| Spin restricted Kohn-Sham (RKS) calculation                            RKS
 DFT| Multiplicity                                                             1
 DFT| Number of spin states                                                    1
 DFT| Charge                                                                   0
 DFT| Self-interaction correction (SIC)                                       NO
 DFT| Cutoffs: density                                              1.000000E-10
 DFT|          gradient                                             1.000000E-10
 DFT|          tau                                                  1.000000E-10
 DFT|          cutoff_smoothing_range                               0.000000E+00
 DFT| XC density smoothing                                                  NONE
 DFT| XC derivatives                                                          PW

 FUNCTIONAL| PBE:
 FUNCTIONAL| J.P.Perdew, K.Burke, M.Ernzerhof, Phys. Rev. Letter, vol. 77, n 18,
 FUNCTIONAL|  pp. 3865-3868, (1996) {spin unpolarized}                          


 QS| Method:                                                                 GPW
 QS| Density plane wave grid type                        NON-SPHERICAL FULLSPACE
 QS| Number of grid levels:                                                    4
 QS| Density cutoff [a.u.]:                                                500.0
 QS| Multi grid cutoff [a.u.]: 1) grid level                               500.0
 QS|                           2) grid level                               166.7
 QS|                           3) grid level                                55.6
 QS|                           4) grid level                                18.5
 QS| Grid level progression factor:                                          3.0
 QS| Relative density cutoff [a.u.]:                                        50.0
 QS| Interaction thresholds: eps_pgf_orb:                                1.0E-16
 QS|                         eps_filter_matrix:                          0.0E+00
 QS|                         eps_core_charge:                            1.0E-18
 QS|                         eps_rho_gspace:                             1.0E-16
 QS|                         eps_rho_rspace:                             1.0E-16
 QS|                         eps_gvg_rspace:                             1.0E-08
 QS|                         eps_ppl:                                    1.0E-02
 QS|                         eps_ppnl:                                   1.0E-10


 ATOMIC KIND INFORMATION

  1. Atomic kind: Cl                                    Number of atoms:       8

     Orbital Basis Set                                 aug-SZV-MOLOPT-GTH-tier-1

       Number of orbital shell sets:                                           1
       Number of orbital shells:                                               4
       Number of primitive Cartesian functions:                                5
       Number of Cartesian basis functions:                                    8
       Number of spherical basis functions:                                    8
       Norm type:                                                              2

       Normalised Cartesian orbitals:

                        Set   Shell   Orbital            Exponent    Coefficient

                          1       1    2s                0.150015      -0.058490
                                                         0.200000       0.000000
                                                         0.461213      -0.342539
                                                         1.470718       0.018727
                                                         2.379078       0.403013

                          1       2    3s                0.150015       0.141828
                                                         0.200000       0.046346
                                                         0.461213      -0.020842
                                                         1.470718       0.004143
                                                         2.379078       0.000000

                          1       3    3px               0.150015      -0.051764
                                                         0.200000       0.000000
                                                         0.461213      -0.325785
                                                         1.470718      -0.580854
                                                         2.379078       0.636314
                          1       3    3py               0.150015      -0.051764
                                                         0.200000       0.000000
                                                         0.461213      -0.325785
                                                         1.470718      -0.580854
                                                         2.379078       0.636314
                          1       3    3pz               0.150015      -0.051764
                                                         0.200000       0.000000
                                                         0.461213      -0.325785
                                                         1.470718      -0.580854
                                                         2.379078       0.636314

                          1       4    4px               0.150015       0.262897
                                                         0.200000      -0.229930
                                                         0.461213       0.148576
                                                         1.470718       0.008236
                                                         2.379078       0.000000
                          1       4    4py               0.150015       0.262897
                                                         0.200000      -0.229930
                                                         0.461213       0.148576
                                                         1.470718       0.008236
                                                         2.379078       0.000000
                          1       4    4pz               0.150015       0.262897
                                                         0.200000      -0.229930
                                                         0.461213       0.148576
                                                         1.470718       0.008236
                                                         2.379078       0.000000

       Atomic covalent radius [Angstrom]:                                  0.990

       Atomic van der Waals radius [Angstrom]:                             1.750

     GTH Potential information for                                       GTH-PBE

       Description:                       Goedecker-Teter-Hutter pseudopotential
                                           Goedecker et al., PRB 54, 1703 (1996)
                                          Hartwigsen et al., PRB 58, 3641 (1998)
                                                      Krack, TCA 114, 145 (2005)

       Gaussian exponent of the core charge distribution:               2.974420
       Electronic configuration (s p d ...):                               2   5

       Parameters of the local part of the GTH pseudopotential:

                          rloc        C1          C2          C3          C4
                        0.410000   -6.392082

       Parameters of the non-local part of the GTH (SOC) pseudopotential:

                   l      r(l)      h(i,j,l)
                                    k(i,j,l)
                   0    0.339539   15.218990   -4.934523
                                   -4.934523    6.370442
                   1    0.378474    4.338775    0.000000
                                    0.000000    0.000000
                                    0.045289   -0.032578
                                   -0.032578    0.038547


 MOLECULE KIND INFORMATION


 All atoms are their own molecule, skipping detailed information


 TOTAL NUMBERS AND MAXIMUM NUMBERS

  Total number of            - Atomic kinds:                                   1
                             - Atoms:                                          8
                             - Shell sets:                                     8
                             - Shells:                                        32
                             - Primitive Cartesian functions:                 40
                             - Cartesian basis functions:                     64
                             - Spherical basis functions:                     64

  Maximum angular momentum of- Orbital basis functions:                        1
                             - Local part of the GTH pseudopotential:          0
                             - Non-local part of the GTH pseudopotential:      3


 MODULE QUICKSTEP: ATOMIC COORDINATES IN ANGSTROM

   Atom Kind Element         X             Y             Z       Z(eff)     Mass
      1    1 Cl   17      0.000000      1.778126      8.111064   7.0000  35.4530
      2    1 Cl   17      0.000000      0.396579      3.597294   7.0000  35.4530
      3    1 Cl   17      0.000000      3.952831      5.430246   7.0000  35.4530
      4    1 Cl   17      0.000000      2.571284      0.916476   7.0000  35.4530
      5    1 Cl   17      3.889375      3.952831      8.111064   7.0000  35.4530
      6    1 Cl   17      3.889375      2.571284      3.597294   7.0000  35.4530
      7    1 Cl   17      3.889375      1.778126      5.430246   7.0000  35.4530
      8    1 Cl   17      3.889375      0.396579      0.916476   7.0000  35.4530



 SCF PARAMETERS         Density guess:                                    ATOMIC
                        --------------------------------------------------------
                        max_scf:                                             500
                        max_scf_history:                                       0
                        max_diis:                                              4
                        --------------------------------------------------------
                        eps_scf:                                        1.00E-09
                        eps_scf_history:                                0.00E+00
                        eps_diis:                                       1.00E-01
                        eps_eigval:                                     1.00E-05
                        --------------------------------------------------------
                        level_shift [a.u.]:                             0.000000
                        added MOs                                        36    0
                        --------------------------------------------------------
                        Mixing method:                            BROYDEN_MIXING
                                                charge density mixing in g-space
                        --------------------------------------------------------
                        No outer SCF

 PW_GRID| Information for grid number                                          1
 PW_GRID| Grid distributed over                                     8 processors
 PW_GRID| Real space group dimensions                                     8    1
 PW_GRID| the grid is blocked:                                                NO
 PW_GRID| Cutoff [a.u.]                                                    500.0
 PW_GRID| spherical cutoff:                                                   NO
 PW_GRID|   Bounds   1            -75      74                Points:         150
 PW_GRID|   Bounds   2            -45      44                Points:          90
 PW_GRID|   Bounds   3            -90      89                Points:         180
 PW_GRID| Volume element (a.u.^3)  0.8482E-03     Volume (a.u.^3)      2061.1338
 PW_GRID| Grid span                                                    FULLSPACE
 PW_GRID|   Distribution                         Average         Max         Min
 PW_GRID|   G-Vectors                           303750.0      303750      303750
 PW_GRID|   G-Rays                                2025.0        2025        2025
 PW_GRID|   Real Space Points                   303750.0      307800      291600

 PW_GRID| Information for grid number                                          2
 PW_GRID| Number of the reference grid                                         1
 PW_GRID| Grid distributed over                                     8 processors
 PW_GRID| Real space group dimensions                                     8    1
 PW_GRID| the grid is blocked:                                                NO
 PW_GRID| Cutoff [a.u.]                                                    166.7
 PW_GRID| spherical cutoff:                                                   NO
 PW_GRID|   Bounds   1            -45      44                Points:          90
 PW_GRID|   Bounds   2            -24      23                Points:          48
 PW_GRID|   Bounds   3            -50      49                Points:         100
 PW_GRID| Volume element (a.u.^3)  0.4771E-02     Volume (a.u.^3)      2061.1338
 PW_GRID| Grid span                                                    FULLSPACE
 PW_GRID|   Distribution                         Average         Max         Min
 PW_GRID|   G-Vectors                            54000.0       54090       53910
 PW_GRID|   G-Rays                                 600.0         601         599
 PW_GRID|   Real Space Points                    54000.0       57600       52800

 PW_GRID| Information for grid number                                          3
 PW_GRID| Number of the reference grid                                         1
 PW_GRID| Grid distributed over                                     8 processors
 PW_GRID| Real space group dimensions                                     8    1
 PW_GRID| the grid is blocked:                                                NO
 PW_GRID| Cutoff [a.u.]                                                     55.6
 PW_GRID| spherical cutoff:                                                   NO
 PW_GRID|   Bounds   1            -27      26                Points:          54
 PW_GRID|   Bounds   2            -13      13                Points:          27
 PW_GRID|   Bounds   3            -30      29                Points:          60
 PW_GRID| Volume element (a.u.^3)  0.2356E-01     Volume (a.u.^3)      2061.1338
 PW_GRID| Grid span                                                    FULLSPACE
 PW_GRID|   Distribution                         Average         Max         Min
 PW_GRID|   G-Vectors                            10935.0       11070       10854
 PW_GRID|   G-Rays                                 202.5         205         201
 PW_GRID|   Real Space Points                    10935.0       11340        9720

 PW_GRID| Information for grid number                                          4
 PW_GRID| Number of the reference grid                                         1
 PW_GRID| Grid distributed over                                     8 processors
 PW_GRID| Real space group dimensions                                     8    1
 PW_GRID| the grid is blocked:                                                NO
 PW_GRID| Cutoff [a.u.]                                                     18.5
 PW_GRID| spherical cutoff:                                                   NO
 PW_GRID|   Bounds   1            -15      14                Points:          30
 PW_GRID|   Bounds   2             -7       7                Points:          15
 PW_GRID|   Bounds   3            -18      17                Points:          36
 PW_GRID| Volume element (a.u.^3)  0.1272         Volume (a.u.^3)      2061.1338
 PW_GRID| Grid span                                                    FULLSPACE
 PW_GRID|   Distribution                         Average         Max         Min
 PW_GRID|   G-Vectors                             2025.0        2070        1980
 PW_GRID|   G-Rays                                  67.5          69          66
 PW_GRID|   Real Space Points                     2025.0        2160        1620

 POISSON| Solver                                                        PERIODIC
 POISSON| Periodicity                                                        XYZ

 RS_GRID| Information for grid number                                          1
 RS_GRID|   Bounds   1            -75      74                Points:         150
 RS_GRID|   Bounds   2            -45      44                Points:          90
 RS_GRID|   Bounds   3            -90      89                Points:         180
 RS_GRID| Real space fully replicated
 RS_GRID| Group size                                                           1

 RS_GRID| Information for grid number                                          2
 RS_GRID|   Bounds   1            -45      44                Points:          90
 RS_GRID|   Bounds   2            -24      23                Points:          48
 RS_GRID|   Bounds   3            -50      49                Points:         100
 RS_GRID| Real space fully replicated
 RS_GRID| Group size                                                           1

 RS_GRID| Information for grid number                                          3
 RS_GRID|   Bounds   1            -27      26                Points:          54
 RS_GRID|   Bounds   2            -13      13                Points:          27
 RS_GRID|   Bounds   3            -30      29                Points:          60
 RS_GRID| Real space fully replicated
 RS_GRID| Group size                                                           1

 RS_GRID| Information for grid number                                          4
 RS_GRID|   Bounds   1            -15      14                Points:          30
 RS_GRID|   Bounds   2             -7       7                Points:          15
 RS_GRID|   Bounds   3            -18      17                Points:          36
 RS_GRID| Real space fully replicated
 RS_GRID| Group size                                                           1

 Number of electrons:                                                         56
 Number of occupied orbitals:                                                 28
 Number of molecular orbitals:                                                64

 Number of orbital functions:                                                 64
 Number of independent orbital functions:                                     64

 Extrapolation method: initial_guess

 Atomic guess: The first density matrix is obtained in terms of atomic orbitals
               and electronic configurations assigned to each atomic kind

 Guess for atomic kind: Cl

 Electronic structure
    Total number of core electrons                                         10.00
    Total number of valence electrons                                       7.00
    Total number of electrons                                              17.00
    Multiplicity                                                   not specified
    S   [  2.00  2.00] 2.00
    P   [  6.00] 5.00


 *******************************************************************************
                  Iteration          Convergence                     Energy [au]
 *******************************************************************************
                          1        0.191474E-01                 -14.773649416245
                          2        0.136940E-01                 -14.773720828867
                          3        0.292780E-03                 -14.773762943121
                          4        0.139478E-07                 -14.773762962728

 Energy components [Hartree]           Total Energy ::          -14.773762962728
                                        Band Energy ::           -2.963744653547
                                     Kinetic Energy ::            5.569519242071
                                   Potential Energy ::          -20.343282204799
                                      Virial (-V/T) ::            3.652610094446
                                        Core Energy ::          -24.683016563487
                                          XC Energy ::           -2.745606838153
                                     Coulomb Energy ::           12.654860438912
                       Total Pseudopotential Energy ::          -30.311443963096
                       Local Pseudopotential Energy ::          -33.425325407042
                    Nonlocal Pseudopotential Energy ::            3.113881443946
                                        Confinement ::            0.589081575379

 Orbital energies  State     L     Occupation   Energy[a.u.]          Energy[eV]

                       1     0          2.000      -0.739791          -20.130746

                       1     1          5.000      -0.296832           -8.077220


 Total Electron Density at R=0:                                         0.000345
 Re-scaling the density matrix to get the right number of electrons
                  # Electrons              Trace(P)               Scaling factor
                           56                56.000                        1.000


 SCF WAVEFUNCTION OPTIMIZATION

  Step     Update method      Time    Convergence         Total energy    Change
  ------------------------------------------------------------------------------
     1 NoMix/Diag. 0.50E-01    1.3     0.81607847      -120.0735805209 -1.20E+02
     2 Broy./Diag. 0.50E-01    1.3     0.00222794      -119.4102927023  6.63E-01
     3 Broy./Diag. 0.50E-01    1.3     0.06628618      -119.8056272267 -3.95E-01
     4 Broy./Diag. 0.50E-01    1.3     0.00055417      -119.8205632634 -1.49E-02
     5 Broy./Diag. 0.50E-01    1.3     0.01441089      -119.8513270602 -3.08E-02
     6 Broy./Diag. 0.50E-01    1.3     0.00027555      -119.6590112800  1.92E-01
     7 Broy./Diag. 0.50E-01    1.3     0.00673289      -119.6152609678  4.38E-02
     8 Broy./Diag. 0.50E-01    1.3     0.00017839      -119.5340223102  8.12E-02
     9 Broy./Diag. 0.50E-01    1.3     0.00235660      -119.5343880629 -3.66E-04
    10 Broy./Diag. 0.50E-01    1.4     0.00005311      -119.5137324934  2.07E-02
    11 Broy./Diag. 0.50E-01    1.3     0.00019214      -119.5188368135 -5.10E-03
    12 Broy./Diag. 0.50E-01    1.3     0.00003381      -119.5198877862 -1.05E-03
    13 Broy./Diag. 0.50E-01    1.3     0.00009320      -119.5201866028 -2.99E-04
    14 Broy./Diag. 0.50E-01    1.3     0.00003195      -119.5200528305  1.34E-04
    15 Broy./Diag. 0.50E-01    1.3     0.00000824      -119.5201228770 -7.00E-05
    16 Broy./Diag. 0.50E-01    1.3     0.00002921      -119.5201309225 -8.05E-06
    17 Broy./Diag. 0.50E-01    1.3     0.00003002      -119.5203913726 -2.60E-04
    18 Broy./Diag. 0.50E-01    1.3     0.00000170      -119.5203999270 -8.55E-06
    19 Broy./Diag. 0.50E-01    1.4     0.00001828      -119.5207886998 -3.89E-04
    20 Broy./Diag. 0.50E-01    1.3     0.00000172      -119.5210055044 -2.17E-04
    21 Broy./Diag. 0.50E-01    1.3     0.00000183      -119.5210175643 -1.21E-05
    22 Broy./Diag. 0.50E-01    1.3     0.00000889      -119.5209543648  6.32E-05
    23 Broy./Diag. 0.50E-01    1.4     0.00000202      -119.5208557092  9.87E-05
    24 Broy./Diag. 0.50E-01    1.3     0.00000158      -119.5208232335  3.25E-05
    25 Broy./Diag. 0.50E-01    1.3     0.00000162      -119.5208032707  2.00E-05
    26 Broy./Diag. 0.50E-01    1.3     0.00000167      -119.5207957635  7.51E-06
    27 Broy./Diag. 0.50E-01    1.3     0.00000183      -119.5207990473 -3.28E-06
    28 Broy./Diag. 0.50E-01    1.4     0.00000045      -119.5208130811 -1.40E-05
    29 Broy./Diag. 0.50E-01    1.3     0.00000039      -119.5208071486  5.93E-06
    30 Broy./Diag. 0.50E-01    1.3     0.00000024      -119.5208068106  3.38E-07
    31 Broy./Diag. 0.50E-01    1.3     0.00000063      -119.5208147866 -7.98E-06
    32 Broy./Diag. 0.50E-01    1.3     0.00000107      -119.5208321976 -1.74E-05
    33 Broy./Diag. 0.50E-01    1.3     0.00000032      -119.5208481737 -1.60E-05
    34 Broy./Diag. 0.50E-01    1.3     0.00000077      -119.5208647560 -1.66E-05
    35 Broy./Diag. 0.50E-01    1.3     0.00000015      -119.5208731832 -8.43E-06
    36 Broy./Diag. 0.50E-01    1.4     0.00000039      -119.5208743279 -1.14E-06
    37 Broy./Diag. 0.50E-01    1.4     0.00000013      -119.5208731607  1.17E-06
    38 Broy./Diag. 0.50E-01    1.3     0.00000030      -119.5208721263  1.03E-06
    39 Broy./Diag. 0.50E-01    1.4     0.00000008      -119.5208711146  1.01E-06
    40 Broy./Diag. 0.50E-01    1.3     0.00000006      -119.5208710037  1.11E-07
    41 Broy./Diag. 0.50E-01    1.3     0.00000020      -119.5208676706  3.33E-06
    42 Broy./Diag. 0.50E-01    1.3     0.00000018      -119.5208640350  3.64E-06
    43 Broy./Diag. 0.50E-01    1.3     0.00000010      -119.5208607390  3.30E-06
    44 Broy./Diag. 0.50E-01    1.3     0.00000004      -119.5208587872  1.95E-06
    45 Broy./Diag. 0.50E-01    1.3     0.00000008      -119.5208594753 -6.88E-07
    46 Broy./Diag. 0.50E-01    1.3     0.00000018      -119.5208621016 -2.63E-06
    47 Broy./Diag. 0.50E-01    1.4     0.00000005      -119.5208645937 -2.49E-06
    48 Broy./Diag. 0.50E-01    1.3     0.00000009      -119.5208662640 -1.67E-06
    49 Broy./Diag. 0.50E-01    1.3     0.00000001      -119.5208673903 -1.13E-06
    50 Broy./Diag. 0.50E-01    1.3     0.00000003      -119.5208675429 -1.53E-07
    51 Broy./Diag. 0.50E-01    1.3     0.00000002      -119.5208679275 -3.85E-07
    52 Broy./Diag. 0.50E-01    1.3     0.00000002      -119.5208683014 -3.74E-07
    53 Broy./Diag. 0.50E-01    1.3     0.00000003      -119.5208688860 -5.85E-07
    54 Broy./Diag. 0.50E-01    1.3     0.00000001      -119.5208692029 -3.17E-07
    55 Broy./Diag. 0.50E-01    1.3     0.00000001      -119.5208689950  2.08E-07
    56 Broy./Diag. 0.50E-01    1.3     0.00000003      -119.5208685188  4.76E-07
    57 Broy./Diag. 0.50E-01    1.3     5.7642E-09      -119.5208681421  3.77E-07
    58 Broy./Diag. 0.50E-01    1.3     0.00000002      -119.5208677123  4.30E-07
    59 Broy./Diag. 0.50E-01    1.3     4.4595E-09      -119.5208674650  2.47E-07
    60 Broy./Diag. 0.50E-01    1.3     0.00000002      -119.5208675632 -9.83E-08
    61 Broy./Diag. 0.50E-01    1.3     2.3041E-09      -119.5208676615 -9.82E-08
    62 Broy./Diag. 0.50E-01    1.3     3.4351E-09      -119.5208676277  3.38E-08
    63 Broy./Diag. 0.50E-01    1.3     4.1763E-09      -119.5208676269  7.86E-10
    64 Broy./Diag. 0.50E-01    1.4     4.9775E-09      -119.5208676592 -3.23E-08
    65 Broy./Diag. 0.50E-01    1.3     8.2418E-09      -119.5208678112 -1.52E-07
    66 Broy./Diag. 0.50E-01    1.3     1.9337E-09      -119.5208679242 -1.13E-07
    67 Broy./Diag. 0.50E-01    1.3     8.3543E-10      -119.5208679687 -4.46E-08

  *** SCF run converged in    67 steps ***


  Electronic density on regular grids:        -56.0000000000       -0.0000000000
  Core density on regular grids:               56.0000000000        0.0000000000
  Total charge density on r-space grids:       -0.0000000000
  Total charge density g-space grids:          -0.0000000000

  Overlap energy of the core charge distribution:               0.00000000392585
  Self energy of the core charge distribution:               -269.71014237892746
  Core Hamiltonian energy:                                     62.31066543315995
  Hartree energy:                                             111.05444279425714
  Exchange-correlation energy:                                -23.17583382115743

  Total energy:                                              -119.52086796874195

 !-----------------------------------------------------------------------------!
                     Mulliken Population Analysis

 #  Atom  Element  Kind  Atomic population                           Net charge
       1     Cl       1          7.000000                             -0.000000
       2     Cl       1          7.000000                              0.000000
       3     Cl       1          7.000000                              0.000000
       4     Cl       1          7.000000                             -0.000000
       5     Cl       1          7.000000                              0.000000
       6     Cl       1          7.000000                             -0.000000
       7     Cl       1          7.000000                             -0.000000
       8     Cl       1          7.000000                              0.000000
 # Total charge                             56.000000                 -0.000000

 !-----------------------------------------------------------------------------!

 !-----------------------------------------------------------------------------!
                           Hirshfeld Charges

  #Atom  Element  Kind  Ref Charge     Population                    Net charge
      1       Cl     1       7.000          7.000                        -0.000
      2       Cl     1       7.000          7.000                         0.000
      3       Cl     1       7.000          7.000                         0.000
      4       Cl     1       7.000          7.000                        -0.000
      5       Cl     1       7.000          7.000                         0.000
      6       Cl     1       7.000          7.000                        -0.000
      7       Cl     1       7.000          7.000                        -0.000
      8       Cl     1       7.000          7.000                         0.000

  Total Charge                                                           -0.000
 !-----------------------------------------------------------------------------!

 KPOINTS| Band Structure Calculation
 KPOINTS| Number of k-point sets                                               1
 KPOINTS| Number of added MOs/bands                                           -1
 KPOINTS| Number of k-points in set    1                                     148
 KPOINTS| In units of b-vector [2pi/Bohr]
 KPOINTS| Special point     1 not specifi     0.000000     0.000000     0.000000
 KPOINTS| Special point     2 not specifi     0.500000     0.500000     0.000000
 KPOINTS| Special point     3 not specifi     0.328159     0.671841     0.000000
 KPOINTS| Special point     4 not specifi     0.000000     0.000000     0.000000
 KPOINTS| Time for k-point line                                            0.731

 ENERGY| Total FORCE_EVAL ( QS ) energy [hartree]           -119.520867968741953

 -------------------------------------------------------------------------------
 -                                                                             -
 -                                DBCSR STATISTICS                             -
 -                                                                             -
 -------------------------------------------------------------------------------
 COUNTER                                    TOTAL       BLAS       SMM       ACC
 flops inhomo. stacks                           0       0.0%      0.0%      0.0%
 flops total                         0.000000E+00       0.0%      0.0%      0.0%
 flops max/rank                      0.000000E+00       0.0%      0.0%      0.0%
 matmuls inhomo. stacks                         0       0.0%      0.0%      0.0%
 matmuls total                                  0       0.0%      0.0%      0.0%
 number of processed stacks                     0       0.0%      0.0%      0.0%
 average stack size                                     0.0       0.0       0.0
 marketing flops                     0.000000E+00
 -------------------------------------------------------------------------------
 -                                                                             -
 -                      DBCSR MESSAGE PASSING PERFORMANCE                      -
 -                                                                             -
 -------------------------------------------------------------------------------
 ROUTINE             CALLS      AVE VOLUME [Bytes]
 MP_Bcast                1                     12.
 MP_Allreduce           19                     21.
 MP_Alltoall       1423680                   2299.
 -------------------------------------------------------------------------------

 -------------------------------------------------------------------------------
 -                                                                             -
 -                                DBM STATISTICS                               -
 -                                                                             -
 -------------------------------------------------------------------------------
    M  x    N  x    K                                          COUNT     PERCENT
 -------------------------------------------------------------------------------

 -------------------------------------------------------------------------------
 -                                                                             -
 -                                GRID STATISTICS                              -
 -                                                                             -
 -------------------------------------------------------------------------------
 LP    KERNEL             BACKEND                              COUNT     PERCENT
 2     collocate ortho    CPU                                 539104      50.37%
 2     integrate ortho    CPU                                 531176      49.63%
 0     collocate general  CPU                                     16       0.00%
 0     integrate general  CPU                                      8       0.00%
 -------------------------------------------------------------------------------

 MEMORY| Estimated peak process memory [MiB]                                 674

 -------------------------------------------------------------------------------
 ----                             MULTIGRID INFO                            ----
 -------------------------------------------------------------------------------
 count for grid        1:           1720          cutoff [a.u.]          500.00
 count for grid        2:          11800          cutoff [a.u.]          166.67
 count for grid        3:           9176          cutoff [a.u.]           55.56
 count for grid        4:           7696          cutoff [a.u.]           18.52
 total gridlevel count  :          30392

 -------------------------------------------------------------------------------
 -                                                                             -
 -                         MESSAGE PASSING PERFORMANCE                         -
 -                                                                             -
 -------------------------------------------------------------------------------

 ROUTINE             CALLS      AVE VOLUME [Bytes]
 MP_Group                6
 MP_Bcast           621245                    445.
 MP_Allreduce        31467                    302.
 MP_Sync                 4
 MP_Alltoall          1211               13501088.
 MP_SendRecv          1918                 770242.
 MP_ISendRecv         1883                 764137.
 MP_Wait            428911
 MP_comm_split           4
 MP_ISend           453644                    946.
 MP_IRecv           725120                    594.
 -------------------------------------------------------------------------------


 -------------------------------------------------------------------------------
 -                                                                             -
 -                           R E F E R E N C E S                               -
 -                                                                             -
 -------------------------------------------------------------------------------
 
 CP2K version 2025.1 (Development Version), the CP2K developers group (2025).
 CP2K is freely available from https://www.cp2k.org/ .
 
 T. D. Kuehne, M. Iannuzzi, M. Del Ben, V. V. Rybkin, P. Seewald, F. Stein, T. 
 Laino, R. Z. Khaliullin, O. Schuett, F. Schiffmann, D. Golze, J. Wilhelm, S. 
 Chulkov, M. H. Bani-Hashemian, V. Weber, U. Borstnik, M. Taillefumier, A. S. 
 Jakobovits, A. Lazzaro, H. Pabst, T. Mueller, R. Schade, M. Guidon, S. 
 Andermatt, N. Holmberg, G. K. Schenter, A. Hehn, A. Bussy, F. Belleflamme, G. 
 Tabacchi, A. Gloess, M. Lass, I. Bethune, C. J. Mundy, C. Plessl, M. Watkins, 
 J. VandeVondele, M. Krack, J. Hutter.
 J. Chem. Phys. 152, 194103 (2020).
 CP2K: An electronic structure and molecular dynamics software package - 
 Quickstep: Efficient and accurate electronic structure calculations.
 https://doi.org/10.1063/5.0007045

 O. Schuett, P. Messmer, J. Hutter, J. VandeVondele.
 Electronic Structure Calculations on Graphics Processing Units, 173-190 (2016).
 GPU-Accelerated Sparse Matrix-Matrix Multiplication for Linear Scaling Density 
 Functional Theory.
 https://doi.org/10.1002/9781118670712.ch8

 J. Hutter, M. Iannuzzi, F. Schiffmann, J. VandeVondele.
 WIREs Comput Mol Sci. 4, 15-25 (2014).
 CP2K: atomistic simulations of condensed matter systems.
 https://doi.org/10.1002/wcms.1159

 U. Borstnik, J. VandeVondele, V. Weber, J. Hutter.
 Parallel Comput. 40, 47-58 (2014).
 Sparse matrix multiplication: The distributed block-compressed sparse row 
 library.
 https://doi.org/10.1016/j.parco.2014.03.012

 J. VandeVondele, J. Hutter.
 J. Chem. Phys. 127, 114105 (2007).
 Gaussian basis sets for accurate calculations on molecular systems in gas and 
 condensed phases.
 https://doi.org/10.1063/1.2770708

 J. VandeVondele, M. Krack, F. Mohamed, M. Parrinello, T. Chassaing, J. Hutter.
 Comput. Phys. Commun. 167, 103-128 (2005).
 QUICKSTEP: Fast and accurate density functional calculations using a mixed 
 Gaussian and plane waves approach.
 https://doi.org/10.1016/j.cpc.2004.12.014

 M. Krack.
 Theor. Chem. Acc. 114, 145-152 (2005).
 Pseudopotentials for H to Kr optimized for gradient-corrected 
 exchange-correlation functionals.
 https://doi.org/10.1007/s00214-005-0655-y

 M. Frigo, S. G. Johnson.
 Proc. IEEE 93, 216-231 (2005).
 The design and implementation of FFTW3.
 https://doi.org/10.1109/JPROC.2004.840301

 C. Hartwigsen, S. Goedecker, J. Hutter.
 Phys. Rev. B 58, 3641-3662 (1998).
 Relativistic separable dual-space Gaussian pseudopotentials from H to Rn.
 https://doi.org/10.1103/PhysRevB.58.3641

 G. Lippert, J. Hutter, M. Parrinello.
 Mol. Phys. 92, 477-487 (1997).
 A hybrid Gaussian and plane wave density functional scheme.
 https://doi.org/10.1080/002689797170220

 S. Goedecker, M. Teter, J. Hutter.
 Phys. Rev. B 54, 1703-1710 (1996).
 Separable dual-space Gaussian pseudopotentials.
 https://doi.org/10.1103/PhysRevB.54.1703

 J. P. Perdew, K. Burke, M. Ernzerhof.
 Phys. Rev. Lett. 77, 3865-3868 (1996).
 Generalized gradient approximation made simple.
 https://doi.org/10.1103/PhysRevLett.77.3865


 -------------------------------------------------------------------------------
 -                                                                             -
 -                                T I M I N G                                  -
 -                                                                             -
 -------------------------------------------------------------------------------
 SUBROUTINE                       CALLS  ASD         SELF TIME        TOTAL TIME
                                MAXIMUM       AVERAGE  MAXIMUM  AVERAGE  MAXIMUM
 CP2K                                 1  1.0    0.010    0.014   91.868   91.868
 qs_energies                          1  2.0    0.020    0.148   91.538   91.611
 scf_env_do_scf                       1  3.0    0.000    0.000   90.612   90.612
 scf_env_do_scf_inner_loop           67  4.0    0.011    0.013   90.612   90.612
 do_general_diag_kp                  68  6.0    0.362    0.372   75.132   75.360
 qs_scf_new_mos_kp                   67  5.0    0.001    0.001   74.559   74.793
 copy_dbcsr_to_fm                 69796  7.0    0.690    0.714   33.062   33.351
 dbcsr_complete_redistribute     104100  8.3    3.605    3.786   30.079   31.528
 kpoint_density_transform            67  7.0    0.115    0.120   17.371   17.381
 dbcsr_desymmetrize_deep         138996  7.5    2.210    2.295   14.497   16.571
 copy_fm_to_dbcsr                 34304  8.0    0.194    0.200   10.319   11.324
 cp_fm_start_copy_general        103504  7.3    1.597    2.278    9.300    9.453
 dbcsr_finalize                  246288  8.8    1.197    1.264    8.495    8.838
 mp_alltoall_i22                 243096  8.8    4.528    7.807    4.528    7.807
 qs_ks_update_qs_env                 67  5.0    0.000    0.001    7.331    7.451
 rskp_transform                   34600  7.0    6.455    7.189    6.455    7.189
 rebuild_ks_matrix                   67  6.0    0.000    0.000    7.054    7.174
 qs_ks_build_kohn_sham_matrix        67  7.0    0.023    0.024    7.054    7.174
 mp_alltoall_d11v                729288  9.4    6.638    6.954    6.638    6.954
 mp_cart_sub                     139594  9.0    5.778    5.793    5.778    5.793
 fft_wrap_pw1pw2                   1211 10.0    0.016    0.020    5.181    5.232
 dbcsr_merge_all                 104100 10.3    2.997    3.251    4.747    5.059
 fft_wrap_pw1pw2_500                806 11.3    0.401    0.416    4.904    4.969
 mp_alltoall_i11v                451296  9.0    4.499    4.557    4.499    4.557
 hybrid_alltoall_any             138996  8.5    0.547    0.583    4.244    4.452
 mp_allgather_i                  207008  8.3    4.036    4.356    4.036    4.356
 qs_rho_update_rho_low               68  5.0    0.000    0.000    4.344    4.351
 calculate_rho_elec                  68  6.0    0.150    0.152    4.343    4.351
 fft3d_ps                          1211 12.0    1.947    1.981    4.032    4.103
 qs_vxc_create                       67  8.0    0.001    0.001    3.916    3.927
 xc_vxc_pw_create                    67  9.0    0.155    0.158    3.915    3.926
 gspace_mixing                       66  5.0    0.142    0.144    3.758    3.758
 transform_dmat                   17152  8.0    2.962    3.301    2.962    3.301
 mp_cart_create                   69803  9.0    3.152    3.221    3.152    3.221
 broyden_mixing                      66  6.0    3.106    3.146    3.162    3.170
 cp_cfm_geeig                      2181  6.9    0.014    0.015    3.099    3.139
 mp_bcast_iv                     414039  8.3    2.453    2.783    2.453    2.783
 xc_pw_derive                       402 11.0    0.002    0.002    2.515    2.560
 density_rs2pw                       68  7.0    0.003    0.003    2.244    2.437
 cp_cfm_heevd                      2181  7.9    0.003    0.003    2.399    2.431
 cp_cfm_heevd_base                 2181  8.9    2.396    2.428    2.396    2.428
 sum_up_and_integrate                67  8.0    0.001    0.001    2.252    2.379
 integrate_v_rspace                  67  9.0    0.011    0.016    2.245    2.373
 dbcsr_work_create               243096  8.8    1.443    1.483    2.199    2.256
 xc_rho_set_and_dset_create          67 10.0    0.084    0.088    2.108    2.128
 grid_collocate_task_list            68  7.0    1.935    2.041    1.935    2.041
 dbcsr_create_new                368678  8.4    1.660    1.707    1.971    2.029
 mp_alltoall_z22v                  1211 14.0    1.796    1.933    1.796    1.933
 dbcsr_work_destroy_all          243096  9.8    1.141    1.157    1.707    1.727
 xc_pw_divergence                    67 10.0    0.001    0.001    1.629    1.667
 dbcsr_iterator_start            689299  9.1    1.375    1.409    1.584    1.635
 potential_pw2rs                     67 10.0    0.008    0.008    1.591    1.599
 dbcsr_copy                       54419  8.1    0.153    0.162    1.399    1.556
 copy_dbcsr_to_fm_bc              69796  8.0    0.670    0.696    1.486    1.507
 copy_fm_to_dbcsr_bc              34304  9.0    0.424    0.431    1.459    1.491
 dbcsr_data_new                 2604307  9.8    1.440    1.476    1.440    1.476
 transfer_rs2pw                     274  8.0    0.003    0.004    1.247    1.451
 dbcsr_copy_into_existing         34453 10.0    1.014    1.166    1.213    1.365
 dbcsr_data_release             3571598 10.2    1.286    1.309    1.286    1.309
 tree_to_linear_d                104100 11.3    1.223    1.292    1.223    1.292
 x_to_yz                            670 13.2    0.170    0.183    1.224    1.280
 transfer_rs2pw_500                  70  9.0    0.495    0.532    0.990    1.212
 dbcsr_destroy                   348712  8.4    0.564    0.578    1.075    1.122
 transfer_pw2rs                     269 11.0    0.002    0.002    1.093    1.093
 mp_waitall_1                    428911  8.3    0.651    1.081    0.651    1.081
 dbcsr_iterator_stop             689299  9.1    0.873    0.878    1.023    1.032
 yz_to_x                            541 12.9    0.108    0.119    0.850    0.919
 mp_bcast_im                     207008  8.3    0.749    0.853    0.749    0.853
 transfer_pw2rs_500                  68 11.9    0.447    0.458    0.827    0.852
 mp_sendrecv_dv                    1918 10.0    0.642    0.809    0.642    0.809
 quick_finalize                  138996  9.5    0.428    0.439    0.748    0.761
 grid_integrate_task_list            67 10.0    0.642    0.758    0.642    0.758
 xc_functional_eval                  67 11.0    0.001    0.001    0.690    0.707
 pbe_lda_eval                        67 12.0    0.690    0.706    0.690    0.706
 cp_fm_finish_copy_general        43028  7.8    0.585    0.592    0.635    0.645
 mp_comm_free                    209431  9.0    0.493    0.540    0.493    0.540
 write_kpoints_restart               67  5.0    0.003    0.007    0.451    0.451
 pw_scatter_p                       670 12.2    0.435    0.448    0.435    0.448
 cp_cfm_triangular_multiply        6543  7.9    0.373    0.379    0.373    0.379
 kpoint_density_matrices             67  7.0    0.030    0.032    0.373    0.379
 dbcsr_sort_indices              278847 11.0    0.360    0.374    0.360    0.374
 parallel_gemm_fm                  8576  8.0    0.008    0.008    0.332    0.335
 parallel_gemm_fm_gemm             8576  9.0    0.008    0.008    0.324    0.327
 cp_fm_gemm                        8576 10.0    0.317    0.319    0.317    0.319
 pw_poisson_solve                    67  8.0    0.001    0.001    0.314    0.315
 evaluate_core_matrix_traces         67  6.0    0.000    0.000    0.277    0.277
 calculate_ptrace_kp                134  7.0    0.015    0.016    0.277    0.277
 dbcsr_dot                        19967  8.0    0.100    0.105    0.265    0.269
 mp_isendrecv_dv                   1883 13.0    0.110    0.250    0.110    0.250
 dbcsr_set                       194429  8.2    0.177    0.180    0.240    0.243
 merge_index                     104100 11.3    0.212    0.235    0.212    0.235
 transfer_pw2rs_170                  67 12.0    0.094    0.097    0.198    0.227
 mp_sum_d                         20925  8.8    0.179    0.227    0.179    0.227
 dbcsr_iterator_seek             689299 10.1    0.209    0.225    0.209    0.225
 dbcsr_reserve_all_blocks         34304 10.0    0.048    0.052    0.215    0.224
 transfer_rs2pw_170                  68  9.0    0.088    0.090    0.194    0.222
 pw_integral_ab_c1d_c1d_gs           67  9.0    0.198    0.200    0.203    0.204
 mp_irecv_iv                     414016  8.3    0.025    0.203    0.025    0.203
 fft_wrap_pw1pw2_170                135 10.5    0.015    0.019    0.187    0.201
 dbcsr_make_index_exist          368678  9.4    0.190    0.200    0.190    0.200
 mp_isend_dv                     104096  8.3    0.188    0.199    0.188    0.199
 pw_gather_p                        541 11.9    0.175    0.182    0.175    0.182
 dbcsr_reserve_blocks             35751 10.8    0.143    0.150    0.173    0.181
 mp_sum_dv                          362  3.7    0.076    0.179    0.076    0.179
 cp_fm_write_unformatted            596  6.0    0.118    0.162    0.120    0.170
 kpoint_set_mo_occupation            67  7.0    0.062    0.063    0.137    0.165
 dbcsr_switch_data_area          138996 10.5    0.122    0.125    0.161    0.164
 self_consistency_check              67  5.0    0.014    0.014    0.156    0.160
 cp_cfm_triangular_invert          2181  7.9    0.158    0.159    0.158    0.159
 pw_derive                          603 11.3    0.137    0.150    0.137    0.150
 restraint_control                    1  2.0    0.000    0.000    0.073    0.145
 mp_sum_i                             4  2.8    0.073    0.145    0.073    0.145
 cp_fm_cleanup_copy_general       73488  7.0    0.091    0.094    0.138    0.143
 mp_isend_iv                     233032  8.3    0.036    0.136    0.036    0.136
 init_scf_run                         1  3.0    0.000    0.000    0.134    0.136
 scf_env_initial_rho_setup            1  4.0    0.000    0.000    0.134    0.136
 cp_sm_mix                         9983  6.0    0.040    0.043    0.127    0.132
 cp_cfm_cholesky_decompose         2181  7.9    0.129    0.131    0.129    0.131
 pw_copy                           1005 10.5    0.124    0.128    0.124    0.128
 mp_sum_dm3                          67  8.0    0.075    0.103    0.075    0.103
 mp_irecv_im2                    207008  8.3    0.013    0.102    0.013    0.102
 qs_init_subsys                       1  2.0    0.001    0.002    0.101    0.101
 parser_read_line                  4934  4.1    0.002    0.002    0.098    0.100
 dbcsr_get_data_size_used        243096  9.8    0.096    0.100    0.096    0.100
 parser_read_line_low                22  6.3    0.008    0.034    0.096    0.099
 qs_env_setup                         1  3.0    0.000    0.000    0.098    0.099
 qs_env_rebuild_pw_env                2  3.5    0.000    0.000    0.097    0.098
 pw_env_rebuild                       1  5.0    0.001    0.001    0.097    0.097
 broadcast_input_information         22  7.3    0.028    0.036    0.088    0.094
 pw_grid_setup                        4  6.0    0.000    0.000    0.092    0.092
 pw_grid_setup_internal               4  7.0    0.002    0.003    0.092    0.092
 dbcsr_distribution_new          104102  8.6    0.077    0.090    0.077    0.090
 pw_poisson_set                      68  9.0    0.001    0.001    0.080    0.081
 dbcsr_make_dbcsr_index          278847 11.0    0.078    0.081    0.078    0.081
 dbcsr_data_copy_aa2             104100 11.3    0.066    0.079    0.066    0.079
 topology_control                     1  2.0    0.000    0.000    0.078    0.078
 mp_max_d                          9985  7.0    0.064    0.074    0.064    0.074
 qs_energies_init_hamiltonians        1  3.0    0.000    0.000    0.070    0.070
 pw_copy_from_array                 670 12.2    0.058    0.068    0.058    0.068
 pw_grid_sort                         4  8.0    0.042    0.043    0.065    0.067
 mp_isend_im2                    116516  8.3    0.016    0.065    0.016    0.065
 dbcsr_zero                      194429  9.2    0.062    0.064    0.062    0.064
 mp_irecv_dv                     104096  8.3    0.059    0.062    0.059    0.062
 fft_wrap_pw1pw2_60                 135 10.5    0.004    0.004    0.055    0.058
 transfer_rs2pw_60                   68  9.0    0.014    0.015    0.047    0.055
 transfer_pw2rs_60                   67 12.0    0.018    0.018    0.051    0.054
 mp_sum_dm                           66  7.0    0.030    0.054    0.030    0.054
 read_cell_cif                        2  4.5    0.002    0.008    0.053    0.054
 create_qs_kind_set                   1  2.0    0.000    0.000    0.052    0.052
 read_qs_kind                         1  3.0    0.025    0.027    0.052    0.052
 pw_axpy                            674  9.3    0.048    0.052    0.048    0.052
 cp_cfm_scale_and_add_fm           8724  6.9    0.050    0.050    0.050    0.050
 pw_copy_to_array                   541 11.9    0.044    0.049    0.044    0.049
 coordinate_control                   1  3.0    0.000    0.001    0.048    0.048
 coordinate_control_READ_COORDI       1  4.0    0.000    0.000    0.048    0.048
 read_coordinate_cif                  1  5.0    0.002    0.004    0.048    0.048
 scf_post_calculation_gpw             1  3.0    0.000    0.000    0.047    0.047
 write_available_results              1  4.0    0.000    0.000    0.047    0.047
 write_mo_free_results                1  5.0    0.003    0.003    0.047    0.047
 qs_env_update_s_mstruct              1  4.0    0.000    0.000    0.043    0.044
 mp_bcast_i_src                      88  8.3    0.036    0.043    0.036    0.043
 mixing_init                          1  5.0    0.040    0.040    0.040    0.040
 calculate_rho_core                   1  5.0    0.003    0.003    0.036    0.039
 cp_dbcsr_alloc_block_from_nbl     1447  5.7    0.021    0.024    0.028    0.031
 cp_cfm_to_cfm_columns             2181  7.9    0.027    0.027    0.027    0.027
 pw_zero                            336 10.4    0.025    0.027    0.025    0.027
 build_core_hamiltonian_matrix        1  4.0    0.001    0.001    0.025    0.027
 mp_bcast_am_src                     22  8.3    0.014    0.015    0.023    0.025
 sort_shells                          4  9.0    0.023    0.024    0.023    0.024
 calculate_hirshfeld_normalizat       1  6.0    0.007    0.007    0.022    0.022
 fft_wrap_pw1pw2_20                 135 10.5    0.001    0.001    0.020    0.021
 hirshfeld_integration                1  6.0    0.008    0.008    0.020    0.020
 cp_cfm_to_fm                      2181  6.9    0.020    0.020    0.020    0.020
 pw_grid_assign                       4  8.0    0.014    0.016    0.016    0.016
 transfer_pw2rs_20                   67 12.0    0.005    0.006    0.015    0.015
 transfer_rs2pw_20                   68  9.0    0.005    0.005    0.013    0.015
 cp_fm_to_fm_matrix                4288  8.0    0.012    0.012    0.012    0.012
 pw_multiply_with                    67  9.0    0.010    0.010    0.010    0.010
 calculate_first_density_matrix       1  5.0    0.000    0.000    0.009    0.010
 calculate_atomic_block_dm            1  6.0    0.000    0.000    0.008    0.010
 -------------------------------------------------------------------------------

 The number of warnings for this run is : 1
 
 -------------------------------------------------------------------------------
  **** **** ******  **  PROGRAM ENDED AT                 2025-08-04 14:56:20.523
 ***** ** ***  *** **   PROGRAM RAN ON                              i04r09c05s12
 **    ****   ******    PROGRAM RAN BY                                   di38fab
 ***** **    ** ** **   PROGRAM PROCESS ID                               2518013
  **** **  *******  **  PROGRAM STOPPED IN /hppfs/scratch/04/di38fab/09_GTH/Delt
                                           a_Set/Cl/aug-SZV-MOLOPT-GTH-tier-1/8x
                                           8x8
