Ge                                      
   1.00000000000000     
     3.528352    0.000000    2.037095
     1.176117    3.326562    2.037095
     0.000000    0.000000    4.074190
   Ge
     2
Direct
  0.000000  0.000000  0.000000
  0.250000  0.250000  0.250000
 
   40   40   40
  901.89      864.91      762.22      615.50      452.54      299.58      175.95      91.179      44.290      25.240    
  19.053      15.303      12.684      10.803      9.3975      8.3262      7.5230      6.9499      6.5709      6.3542    
  6.2832      6.3542      6.5709      6.9499      7.5230      8.3262      9.3975      10.803      12.684      15.303    
  19.053      25.240      44.290      91.179      175.95      299.58      452.54      615.50      762.22      864.91    
  864.91      794.87      670.22      516.22      360.15      224.69      123.95      61.783      32.202      22.199    
  17.845      14.803      12.652      11.068      9.8617      8.9441      8.2715      7.8083      7.5185      7.3783    
  7.3790      7.5194      7.8079      8.2706      8.9443      9.8627      11.068      12.651      14.802      17.846    
  22.200      32.201      61.782      123.95      224.69      360.15      516.22      670.22      794.88      864.91    
  762.22      670.22      539.10      394.16      259.24      151.60      79.292      40.553      25.507      20.306    
  16.900      14.511      12.778      11.470      10.467      9.7182      9.1895      8.8438      8.6472      8.5827    
  8.6472      8.8438      9.1895      9.7182      10.467      11.470      12.778      14.511      16.900      20.306    
  25.507      40.553      79.292      151.60      259.24      394.16      539.10      670.22      762.22      795.38    
  615.50      516.22      394.16      271.73      167.42      92.251      48.193      28.867      22.451      18.814    
  16.258      14.427      13.063      12.023      11.240      10.680      10.309      10.086      9.9807      9.9803    
  10.086      10.309      10.681      11.240      12.022      13.063      14.428      16.258      18.814      22.450    
  28.868      48.194      92.251      167.42      271.73      394.16      516.22      615.49      671.38      671.38    
  452.54      360.15      259.24      167.42      97.027      52.768      31.483      24.044      20.360      17.750    
  15.898      14.538      13.517      12.758      12.224      11.878      11.675      11.572      11.541      11.572    
  11.675      11.878      12.224      12.758      13.517      14.538      15.898      17.750      20.360      24.044    
  31.483      52.768      97.027      167.42      259.24      360.15      452.54      517.72      541.26      517.72    
  299.58      224.69      151.60      92.251      52.768      32.477      24.907      21.367      18.844      17.065    
  15.784      14.846      14.175      13.732      13.480      13.366      13.331      13.326      13.326      13.331    
  13.366      13.479      13.732      14.175      14.846      15.783      17.065      18.844      21.368      24.907    
  32.477      52.767      92.251      151.60      224.69      299.58      361.40      396.44      396.44      361.40    
  175.95      123.95      79.292      48.193      31.483      24.907      21.718      19.424      17.817      16.688    
  15.898      15.378      15.095      15.010      15.065      15.181      15.285      15.325      15.285      15.181    
  15.065      15.010      15.095      15.378      15.898      16.688      17.817      19.424      21.718      24.907    
  31.483      48.193      79.292      123.95      175.95      225.19      260.57      273.44      260.57      225.19    
  91.179      61.783      40.553      28.867      24.044      21.367      19.424      18.077      17.165      16.575    
  16.258      16.189      16.337      16.636      16.990      17.295      17.469      17.469      17.295      16.990    
  16.636      16.337      16.189      16.258      16.575      17.165      18.077      19.424      21.368      24.044    
  28.868      40.553      61.782      91.178      123.52      151.34      167.45      167.45      151.34      123.52    
  44.290      32.202      25.507      22.451      20.360      18.844      17.817      17.165      16.809      16.723    
  16.900      17.320      17.918      18.580      19.179      19.643      19.828      19.643      19.179      18.580    
  17.918      17.320      16.900      16.723      16.809      17.165      17.817      18.844      20.360      22.451    
  25.506      32.202      44.290      60.602      77.485      90.241      94.992      90.241      77.485      60.602    
  25.240      22.199      20.306      18.814      17.750      17.065      16.688      16.575      16.723      17.147    
  17.845      18.760      19.770      20.870      22.024      22.800      22.800      22.024      20.870      19.770    
  18.760      17.845      17.147      16.723      16.575      16.688      17.065      17.749      18.814      20.306    
  22.200      25.241      30.599      37.710      44.565      48.780      48.781      44.566      37.710      30.598    
  19.053      17.845      16.900      16.258      15.898      15.784      15.898      16.258      16.900      17.845    
  19.053      20.421      22.164      24.317      26.181      26.922      26.181      24.317      22.164      20.421    
  19.053      17.845      16.900      16.258      15.898      15.784      15.898      16.258      16.900      17.845    
  19.053      20.421      22.164      24.317      26.181      26.922      26.181      24.317      22.164      20.421    
  15.303      14.803      14.511      14.427      14.538      14.846      15.378      16.189      17.320      18.760    
  20.421      22.660      25.761      28.950      30.990      30.990      28.950      25.761      22.660      20.420    
  18.760      17.320      16.189      15.378      14.846      14.539      14.428      14.511      14.802      15.302    
  15.971      16.725      17.442      18.003      18.323      18.323      18.003      17.442      16.725      15.972    
  12.684      12.652      12.778      13.063      13.517      14.175      15.095      16.337      17.918      19.770    
  22.164      25.761      30.024      33.535      34.897      33.535      30.024      25.761      22.164      19.770    
  17.918      16.337      15.095      14.175      13.517      13.063      12.778      12.652      12.684      12.861    
  13.149      13.488      13.802      14.023      14.102      14.023      13.802      13.488      13.149      12.861    
  10.803      11.068      11.470      12.023      12.758      13.732      15.010      16.636      18.580      20.870    
  24.317      28.950      33.535      36.402      36.402      33.535      28.950      24.317      20.870      18.580    
  16.636      15.010      13.732      12.758      12.022      11.469      11.068      10.804      10.668      10.641    
  10.695      10.788      10.879      10.933      10.933      10.879      10.789      10.696      10.641      10.667    
  9.3975      9.8617      10.467      11.240      12.224      13.480      15.065      16.990      19.179      22.024    
  26.181      30.990      34.897      36.402      34.897      30.990      26.181      22.024      19.179      16.990    
  15.065      13.480      12.224      11.240      10.467      9.8617      9.3975      9.0593      8.8325      8.6973    
  8.6290      8.6021      8.5954      8.5948      8.5954      8.6022      8.6290      8.6973      8.8325      9.0593    
  8.3262      8.9441      9.7182      10.680      11.878      13.366      15.181      17.295      19.643      22.800    
  26.922      30.990      33.535      33.535      30.990      26.922      22.800      19.643      17.295      15.181    
  13.366      11.878      10.681      9.7188      8.9443      8.3256      7.8426      7.4792      7.2180      7.0386    
  6.9217      6.8518      6.8193      6.8195      6.8519      6.9214      7.0381      7.2178      7.4799      7.8437    
  7.5230      8.2715      9.1895      10.309      11.675      13.331      15.285      17.469      19.828      22.800    
  26.181      28.950      30.024      28.950      26.181      22.800      19.828      17.469      15.285      13.331    
  11.675      10.309      9.1895      8.2715      7.5230      6.9226      6.4534      6.0982      5.8375      5.6526    
  5.5286      5.4568      5.4332      5.4568      5.5286      5.6526      5.8375      6.0981      6.4534      6.9226    
  6.9499      7.8083      8.8438      10.086      11.572      13.326      15.325      17.469      19.643      22.024    
  24.317      25.761      25.761      24.317      22.024      19.643      17.469      15.325      13.326      11.572    
  10.086      8.8430      7.8080      6.9504      6.2496      5.6901      5.2557      4.9278      4.6870      4.5170    
  4.4073      4.3532      4.3532      4.4073      4.5171      4.6873      4.9281      5.2555      5.6893      6.2487    
  6.5709      7.5185      8.6472      9.9807      11.541      13.326      15.285      17.295      19.179      20.870    
  22.164      22.660      22.164      20.870      19.179      17.295      15.285      13.326      11.541      9.9807    
  8.6472      7.5186      6.5709      5.7856      5.1479      4.6433      4.2546      3.9631      3.7512      3.6060    
  3.5206      3.4923      3.5206      3.6060      3.7512      3.9631      4.2546      4.6433      5.1479      5.7856    
  6.3542      7.3783      8.5827      9.9803      11.572      13.331      15.181      16.990      18.580      19.770    
  20.421      20.420      19.770      18.580      16.990      15.181      13.331      11.572      9.9807      8.5836    
  7.3789      6.3540      5.4952      4.7895      4.2227      3.7788      3.4394      3.1872      3.0079      2.8919    
  2.8347      2.8346      2.8918      3.0078      3.1871      3.4392      3.7786      4.2230      4.7903      5.4961    
  6.2832      7.3790      8.6472      10.086      11.675      13.366      15.065      16.636      17.918      18.760    
  19.053      18.760      17.918      16.636      15.065      13.366      11.675      10.086      8.6472      7.3789    
  6.2832      5.3547      4.5845      3.9599      3.4646      3.0805      2.7894      2.5765      2.4306      2.3453    
  2.3171      2.3453      2.4306      2.5764      2.7894      3.0804      3.4646      3.9599      4.5845      5.3547    
  6.3542      7.5194      8.8438      10.309      11.878      13.479      15.010      16.337      17.320      17.845    
  17.845      17.320      16.337      15.010      13.480      11.878      10.309      8.8430      7.5186      6.3540    
  5.3547      4.5174      3.8325      3.2849      2.8559      2.5264      2.2802      2.1049      1.9921      1.9368    
  1.9369      1.9922      2.1050      2.2802      2.5265      2.8560      3.2849      3.8321      4.5166      5.3541    
  6.5709      7.8079      9.1895      10.681      12.224      13.732      15.095      16.189      16.900      17.147    
  16.900      16.189      15.095      13.732      12.224      10.681      9.1895      7.8080      6.5709      5.4952    
  4.5845      3.8325      3.2260      2.7469      2.3757      2.0944      1.8888      1.7486      1.6671      1.6404    
  1.6671      1.7486      1.8888      2.0944      2.3757      2.7469      3.2260      3.8325      4.5845      5.4952    
  6.9499      8.2706      9.7182      11.240      12.758      14.175      15.378      16.258      16.723      16.723    
  16.258      15.378      14.175      12.758      11.240      9.7188      8.2715      6.9504      5.7856      4.7895    
  3.9599      3.2849      2.7469      2.3263      2.0043      1.7648      1.5955      1.4875      1.4349      1.4349    
  1.4874      1.5954      1.7648      2.0043      2.3263      2.7468      3.2849      3.9604      4.7903      5.7860    
  7.5230      8.9443      10.467      12.022      13.517      14.846      15.898      16.575      16.809      16.575    
  15.898      14.846      13.517      12.022      10.467      8.9443      7.5230      6.2496      5.1479      4.2227    
  3.4646      2.8559      2.3757      2.0043      1.7242      1.5213      1.3844      1.3056      1.2799      1.3056    
  1.3844      1.5213      1.7242      2.0043      2.3757      2.8558      3.4646      4.2228      5.1480      6.2496    
  8.3262      9.8627      11.470      13.063      14.538      15.783      16.688      17.165      17.165      16.688    
  15.784      14.539      13.063      11.469      9.8617      8.3256      6.9226      5.6901      4.6433      3.7788    
  3.0805      2.5264      2.0944      1.7648      1.5213      1.3508      1.2431      1.1911      1.1911      1.2432    
  1.3509      1.5214      1.7648      2.0944      2.5265      3.0806      3.7786      4.6426      5.6893      6.9224    
  9.3975      11.068      12.778      14.428      15.898      17.065      17.817      18.077      17.817      17.065    
  15.898      14.428      12.778      11.068      9.3975      7.8426      6.4534      5.2557      4.2546      3.4394    
  2.7894      2.2802      1.8888      1.5955      1.3844      1.2431      1.1622      1.1359      1.1623      1.2431    
  1.3844      1.5955      1.8888      2.2803      2.7894      3.4394      4.2546      5.2557      6.4534      7.8426    
  10.803      12.651      14.511      16.258      17.750      18.844      19.424      19.424      18.844      17.749    
  16.258      14.511      12.652      10.804      9.0593      7.4792      6.0982      4.9278      3.9631      3.1872    
  2.5765      2.1049      1.7486      1.4875      1.3056      1.1911      1.1359      1.1359      1.1911      1.3056    
  1.4874      1.7486      2.1050      2.5765      3.1871      3.9630      4.9281      6.0989      7.4799      9.0591    
  12.684      14.802      16.900      18.814      20.360      21.368      21.718      21.368      20.360      18.814    
  16.900      14.802      12.684      10.668      8.8325      7.2180      5.8375      4.6870      3.7512      3.0079    
  2.4306      1.9921      1.6671      1.4349      1.2799      1.1911      1.1623      1.1911      1.2799      1.4349    
  1.6671      1.9921      2.4306      3.0079      3.7512      4.6870      5.8375      7.2180      8.8325      10.668    
  15.303      17.846      20.306      22.450      24.044      24.907      24.907      24.044      22.451      20.306    
  17.845      15.302      12.861      10.641      8.6973      7.0386      5.6526      4.5170      3.6060      2.8919    
  2.3453      1.9368      1.6404      1.4349      1.3056      1.2432      1.2431      1.3056      1.4349      1.6404    
  1.9369      2.3452      2.8918      3.6061      4.5171      5.6525      7.0381      8.6965      10.641      12.862    
  19.053      22.200      25.507      28.868      31.483      32.477      31.483      28.868      25.506      22.200    
  19.053      15.971      13.149      10.695      8.6290      6.9217      5.5286      4.4073      3.5206      2.8347    
  2.3171      1.9369      1.6671      1.4874      1.3844      1.3509      1.3844      1.4874      1.6671      1.9369    
  2.3171      2.8347      3.5206      4.4073      5.5286      6.9217      8.6290      10.695      13.149      15.971    
  25.240      32.201      40.553      48.194      52.768      52.767      48.193      40.553      32.202      25.241    
  20.421      16.725      13.488      10.788      8.6021      6.8518      5.4568      4.3532      3.4923      2.8346    
  2.3453      1.9922      1.7486      1.5954      1.5213      1.5214      1.5955      1.7486      1.9921      2.3452    
  2.8347      3.4923      4.3531      5.4568      6.8519      8.6025      10.789      13.488      16.725      20.420    
  44.290      61.782      79.292      92.251      97.027      92.251      79.292      61.782      44.290      30.599    
  22.164      17.442      13.802      10.879      8.5954      6.8193      5.4332      4.3532      3.5206      2.8918    
  2.4306      2.1050      1.8888      1.7648      1.7242      1.7648      1.8888      2.1050      2.4306      2.8918    
  3.5206      4.3531      5.4332      6.8193      8.5954      10.879      13.802      17.442      22.164      30.599    
  91.179      123.95      151.60      167.42      167.42      151.60      123.95      91.178      60.602      37.710    
  24.317      18.003      14.023      10.933      8.5948      6.8195      5.4568      4.4073      3.6060      3.0078    
  2.5764      2.2802      2.0944      2.0043      2.0043      2.0944      2.2803      2.5765      3.0079      3.6061    
  4.4073      5.4568      6.8193      8.5947      10.933      14.022      18.003      24.317      37.710      60.603    
  175.95      224.69      259.24      271.73      259.24      224.69      175.95      123.52      77.485      44.565    
  26.181      18.323      14.102      10.933      8.5954      6.8519      5.5286      4.5171      3.7512      3.1871    
  2.7894      2.5265      2.3757      2.3263      2.3757      2.5265      2.7894      3.1871      3.7512      4.5171    
  5.5286      6.8519      8.5954      10.933      14.102      18.323      26.181      44.565      77.485      123.52    
  299.58      360.15      394.16      394.16      360.15      299.58      225.19      151.34      90.241      48.780    
  26.922      18.323      14.023      10.879      8.6022      6.9214      5.6526      4.6873      3.9631      3.4392    
  3.0804      2.8560      2.7469      2.7468      2.8558      3.0806      3.4394      3.9630      4.6870      5.6525    
  6.9217      8.6025      10.879      14.022      18.323      26.923      48.781      90.241      151.34      225.19    
  452.54      516.22      539.10      516.22      452.54      361.40      260.57      167.45      94.992      48.781    
  26.181      18.003      13.802      10.789      8.6290      7.0381      5.8375      4.9281      4.2546      3.7786    
  3.4646      3.2849      3.2260      3.2849      3.4646      3.7786      4.2546      4.9281      5.8375      7.0381    
  8.6290      10.789      13.802      18.003      26.181      48.781      94.992      167.45      260.57      361.40    
  615.50      670.22      670.22      615.49      517.72      396.44      273.44      167.45      90.241      44.566    
  24.317      17.442      13.488      10.696      8.6973      7.2178      6.0981      5.2555      4.6433      4.2230    
  3.9599      3.8321      3.8325      3.9604      4.2228      4.6426      5.2557      6.0989      7.2180      8.6965    
  10.695      13.488      17.442      24.317      44.565      90.241      167.45      273.44      396.44      517.72    
  762.22      794.88      762.22      671.38      541.26      396.44      260.57      151.34      77.485      37.710    
  22.164      16.725      13.149      10.641      8.8325      7.4799      6.4534      5.6893      5.1479      4.7903    
  4.5845      4.5166      4.5845      4.7903      5.1480      5.6893      6.4534      7.4799      8.8325      10.641    
  13.149      16.725      22.164      37.710      77.485      151.34      260.57      396.44      541.26      671.38    
  864.91      864.91      795.38      671.38      517.72      361.40      225.19      123.52      60.602      30.598    
  20.421      15.972      12.861      10.667      9.0593      7.8437      6.9226      6.2487      5.7856      5.4961    
  5.3547      5.3541      5.4952      5.7860      6.2496      6.9224      7.8426      9.0591      10.668      12.862    
  15.971      20.420      30.599      60.603      123.52      225.19      361.40      517.72      671.38      795.38    
  864.91      794.87      670.22      516.22      360.15      224.69      123.95      61.783      32.202      22.199    
  17.845      14.803      12.652      11.068      9.8617      8.9441      8.2715      7.8083      7.5185      7.3783    
  7.3790      7.5194      7.8079      8.2706      8.9443      9.8627      11.068      12.651      14.802      17.846    
  22.200      32.201      61.782      123.95      224.69      360.15      516.22      670.22      794.88      864.91    
  794.87      699.27      563.01      412.32      271.82      159.38      83.397      42.277      26.081      20.632    
  17.147      14.709      12.946      11.618      10.602      9.8422      9.3065      8.9565      8.7574      8.6921    
  8.7574      8.9564      9.3066      9.8424      10.602      11.618      12.946      14.708      17.147      20.632    
  26.080      42.277      83.397      159.38      271.82      412.32      563.01      699.27      794.88      829.34    
  670.22      563.01      431.09      298.42      184.79      102.07      52.754      30.527      23.207      19.395    
  16.723      14.822      13.414      12.344      11.540      10.966      10.586      10.359      10.251      10.251    
  10.358      10.586      10.967      11.540      12.344      13.414      14.823      16.723      19.394      23.206    
  30.528      52.755      102.07      184.79      298.42      431.09      563.01      670.22      730.56      730.56    
  516.22      412.32      298.42      194.02      112.90      60.703      34.644      25.333      21.342      18.543    
  16.575      15.145      14.079      13.291      12.739      12.384      12.179      12.076      12.045      12.076    
  12.179      12.384      12.739      13.291      14.079      15.145      16.575      18.543      21.342      25.333    
  34.644      60.703      112.90      194.02      298.42      412.32      516.22      589.40      615.83      589.40    
  360.15      271.82      184.79      112.90      63.667      37.147      26.821      22.785      20.003      18.064    
  16.688      15.695      14.994      14.539      14.288      14.185      14.162      14.165      14.165      14.163    
  14.185      14.288      14.539      14.995      15.695      16.688      18.063      20.003      22.785      26.821    
  37.146      63.667      112.90      184.79      271.82      360.15      432.68      473.69      473.69      432.68    
  224.69      159.38      102.07      60.703      37.147      27.368      23.554      20.951      19.151      17.911    
  17.065      16.526      16.250      16.192      16.287      16.444      16.576      16.627      16.576      16.444    
  16.287      16.192      16.249      16.526      17.065      17.911      19.151      20.951      23.554      27.368    
  37.146      60.702      102.07      159.38      224.69      285.76      329.34      345.16      329.34      285.76    
  123.95      83.397      52.754      34.644      26.821      23.554      21.280      19.726      18.699      18.064    
  17.750      17.725      17.946      18.334      18.776      19.151      19.377      19.377      19.151      18.776    
  18.335      17.946      17.724      17.749      18.063      18.700      19.726      21.281      23.554      26.821    
  34.644      52.754      83.397      123.95      167.35      204.09      225.19      225.19      204.09      167.35    
  61.783      42.277      30.527      25.333      22.785      20.951      19.726      18.972      18.591      18.543    
  18.814      19.372      20.129      20.981      21.991      22.915      23.295      22.915      21.991      20.982    
  20.130      19.372      18.814      18.543      18.591      18.972      19.726      20.951      22.785      25.333    
  30.528      42.277      61.781      86.605      111.40      129.76      136.53      129.76      111.40      86.606    
  32.202      26.081      23.207      21.342      20.003      19.151      18.699      18.591      18.818      19.394    
  20.306      21.469      23.041      25.353      27.838      29.462      29.462      27.838      25.354      23.042    
  21.470      20.306      19.394      18.817      18.591      18.700      19.151      20.003      21.342      23.207    
  26.081      32.202      42.361      54.888      66.412      73.324      73.324      66.412      54.887      42.361    
  22.199      20.632      19.395      18.543      18.064      17.911      18.064      18.543      19.394      20.632    
  22.199      24.631      28.586      33.333      37.242      38.756      37.242      33.333      28.587      24.632    
  22.200      20.632      19.394      18.542      18.063      17.911      18.063      18.542      19.394      20.632    
  22.200      24.632      28.587      33.333      37.242      38.756      37.242      33.333      28.586      24.631    
  17.845      17.147      16.723      16.575      16.688      17.065      17.750      18.814      20.306      22.199    
  25.240      30.598      37.710      44.566      48.781      48.780      44.565      37.710      30.599      25.241    
  22.200      20.306      18.814      17.749      17.065      16.688      16.575      16.723      17.147      17.845    
  18.760      19.770      20.870      22.024      22.800      22.800      22.024      20.870      19.770      18.760    
  14.803      14.709      14.822      15.145      15.695      16.526      17.725      19.372      21.469      24.631    
  30.598      39.382      49.017      56.545      59.392      56.545      49.016      39.381      30.599      24.632    
  21.470      19.372      17.724      16.526      15.695      15.146      14.823      14.709      14.802      15.089    
  15.522      16.016      16.467      16.780      16.892      16.780      16.467      16.016      15.523      15.090    
  12.652      12.946      13.414      14.079      14.994      16.250      17.946      20.129      23.041      28.586    
  37.710      49.017      59.470      65.757      65.756      59.469      49.016      37.709      28.587      23.042    
  20.130      17.946      16.249      14.994      14.079      13.414      12.946      12.652      12.522      12.536    
  12.654      12.820      12.972      13.062      13.062      12.972      12.820      12.654      12.535      12.522    
  11.068      11.618      12.344      13.291      14.539      16.192      18.334      20.981      25.353      33.333    
  44.566      56.545      65.757      69.214      65.756      56.545      44.565      33.332      25.353      20.982    
  18.335      16.193      14.539      13.291      12.344      11.618      11.068      10.673      10.416      10.276    
  10.221      10.216      10.227      10.233      10.227      10.216      10.222      10.276      10.415      10.672    
  9.8617      10.602      11.540      12.739      14.288      16.287      18.776      21.991      27.838      37.242    
  48.781      59.392      65.756      65.756      59.391      48.780      37.242      27.838      21.992      18.776    
  16.287      14.288      12.739      11.540      10.602      9.8618      9.2856      8.8524      8.5440      8.3381    
  8.2101      8.1378      8.1056      8.1057      8.1379      8.2101      8.3380      8.5440      8.8526      9.2857    
  8.9441      9.8422      10.966      12.384      14.185      16.444      19.151      22.915      29.462      38.756    
  48.780      56.545      59.469      56.545      48.780      38.756      29.461      22.915      19.151      16.444    
  14.185      12.384      10.967      9.8431      8.9443      8.2275      7.6663      7.2405      6.9295      6.7119    
  6.5690      6.4876      6.4611      6.4876      6.5689      6.7117      6.9294      7.2409      7.6673      8.2282    
  8.2715      9.3065      10.586      12.179      14.162      16.576      19.377      23.295      29.462      37.242    
  44.565      49.016      49.016      44.565      37.242      29.461      23.294      19.377      16.576      14.162    
  12.179      10.586      9.3066      8.2715      7.4351      6.7684      6.2498      5.8582      5.5719      5.3717    
  5.2438      5.1810      5.1809      5.2436      5.3717      5.5720      5.8581      6.2497      6.7684      7.4352    
  7.8083      8.9565      10.359      12.076      14.165      16.627      19.377      22.915      27.838      33.333    
  37.710      39.381      37.709      33.332      27.838      22.915      19.377      16.627      14.165      12.076    
  10.358      8.9556      7.8080      6.8698      6.1117      5.5122      5.0511      4.7064      4.4571      4.2874    
  4.1879      4.1551      4.1879      4.2874      4.4572      4.7065      5.0510      5.5116      6.1108      6.8693    
  7.5185      8.7574      10.251      12.045      14.165      16.576      19.151      21.991      25.354      28.587    
  30.599      30.599      28.587      25.353      21.992      19.151      16.576      14.165      12.045      10.251    
  8.7573      7.5185      6.4952      5.6589      4.9884      4.4642      4.0655      3.7712      3.5628      3.4284    
  3.3622      3.3622      3.4285      3.5628      3.7710      4.0655      4.4643      4.9884      5.6588      6.4951    
  7.3783      8.6921      10.251      12.076      14.163      16.444      18.776      20.982      23.042      24.632    
  25.241      24.632      23.042      20.982      18.776      16.444      14.162      12.076      10.251      8.6931    
  7.3790      6.2809      5.3752      4.6418      4.0609      3.6122      3.2745      3.0291      2.8616      2.7635    
  2.7310      2.7634      2.8616      3.0291      3.2745      3.6121      4.0612      4.6425      5.3760      6.2811    
  7.3790      8.7574      10.358      12.179      14.185      16.287      18.335      20.130      21.470      22.200    
  22.200      21.470      20.130      18.335      16.287      14.185      12.179      10.358      8.7573      7.3790    
  6.2110      5.2379      4.4432      3.8084      3.3124      2.9335      2.6520      2.4523      2.3240      2.2610    
  2.2610      2.3239      2.4524      2.6521      2.9335      3.3123      3.8084      4.4433      5.2380      6.2110    
  7.5194      8.9564      10.586      12.384      14.288      16.192      17.946      19.372      20.306      20.632    