Ge                                      
   1.00000000000000     
     3.528352    0.000000    2.037095
     1.176117    3.326562    2.037095
     0.000000    0.000000    4.074190
   Ge
     2
Direct
  0.000000  0.000000  0.000000
  0.250000  0.250000  0.250000
 
   40   40   40
 0.90189384186E+03 0.86491099258E+03 0.76221724075E+03 0.61549637805E+03 0.45253799482E+03
 0.29958289310E+03 0.17594626534E+03 0.91179225569E+02 0.44290105480E+02 0.25239525303E+02
 0.19053318920E+02 0.15302619370E+02 0.12683733045E+02 0.10803191726E+02 0.93974550060E+01
 0.83262326178E+01 0.75230332985E+01 0.69499131184E+01 0.65709272100E+01 0.63542322671E+01
 0.62832282217E+01 0.63542179427E+01 0.65709075621E+01 0.69499000946E+01 0.75230342049E+01
 0.83262458396E+01 0.93974712001E+01 0.10803200165E+02 0.12683730075E+02 0.15302612293E+02
 0.19053319418E+02 0.25239536588E+02 0.44290117427E+02 0.91179225705E+02 0.17594625372E+03
 0.29958288205E+03 0.45253799373E+03 0.61549638356E+03 0.76221724438E+03 0.86491099254E+03
 0.86491099258E+03 0.79487292375E+03 0.67021688024E+03 0.51621617666E+03 0.36014681259E+03
 0.22468758211E+03 0.12394697243E+03 0.61782540820E+02 0.32202137402E+02 0.22199204908E+02
 0.17845307854E+02 0.14802721913E+02 0.12652436058E+02 0.11067915501E+02 0.98616692731E+01
 0.89441080989E+01 0.82715359184E+01 0.78083139379E+01 0.75185497417E+01 0.73782962581E+01
 0.73789704425E+01 0.75194308113E+01 0.78079320840E+01 0.82706108859E+01 0.89443078683E+01
 0.98627148637E+01 0.11068004665E+02 0.12651315930E+02 0.14802170668E+02 0.17846147830E+02
 0.22199908378E+02 0.32201424319E+02 0.61781539145E+02 0.12394721360E+03 0.22468829707E+03
 0.36014635311E+03 0.51621528012E+03 0.67021793783E+03 0.79487590392E+03 0.86491267531E+03
 0.76221724075E+03 0.67021688024E+03 0.53909789400E+03 0.39416233086E+03 0.25923849903E+03
 0.15160116986E+03 0.79292251213E+02 0.40553381943E+02 0.25506509753E+02 0.20306301355E+02
 0.16900083746E+02 0.14510714966E+02 0.12778219511E+02 0.11469754568E+02 0.10467219269E+02
 0.97181621487E+01 0.91894974487E+01 0.88438177572E+01 0.86471593072E+01 0.85827309260E+01
 0.86471804064E+01 0.88438279871E+01 0.91894842468E+01 0.97181529986E+01 0.10467238241E+02
 0.11469783531E+02 0.12778225244E+02 0.14510698513E+02 0.16900074996E+02 0.20306312139E+02
 0.25506522785E+02 0.40553387187E+02 0.79292261085E+02 0.15160118754E+03 0.25923850229E+03
 0.39416230829E+03 0.53909787252E+03 0.67021688867E+03 0.76221726357E+03 0.79538242630E+03
 0.61549637805E+03 0.51621617666E+03 0.39416233086E+03 0.27172644128E+03 0.16742250262E+03
 0.92250562293E+02 0.48192709224E+02 0.28867390199E+02 0.22450963524E+02 0.18814296084E+02
 0.16257572804E+02 0.14426954263E+02 0.13062834016E+02 0.12022563491E+02 0.11239788444E+02
 0.10680257906E+02 0.10309242024E+02 0.10086263395E+02 0.99806991407E+01 0.99802595461E+01
 0.10085655377E+02 0.10309409435E+02 0.10680816860E+02 0.11239724546E+02 0.12021994521E+02
 0.13062827237E+02 0.14427681495E+02 0.16257947771E+02 0.18813772630E+02 0.22450486095E+02
 0.28867858941E+02 0.48193515752E+02 0.92250649864E+02 0.16742210270E+03 0.27172646829E+03
 0.39416249268E+03 0.51621524206E+03 0.61549444391E+03 0.67138127065E+03 0.67138231616E+03
 0.45253799482E+03 0.36014681259E+03 0.25923849903E+03 0.16742250262E+03 0.97027394409E+02
 0.52767828557E+02 0.31482729002E+02 0.24043728028E+02 0.20359575021E+02 0.17749816959E+02
 0.15897807765E+02 0.14538499064E+02 0.13517082690E+02 0.12758234426E+02 0.12223533871E+02
 0.11877671887E+02 0.11675344927E+02 0.11572293832E+02 0.11540769387E+02 0.11572290334E+02
 0.11675331401E+02 0.11877668532E+02 0.12223561404E+02 0.12758266008E+02 0.13517084568E+02
 0.14538496256E+02 0.15897838539E+02 0.17749852990E+02 0.20359568978E+02 0.24043706634E+02
 0.31482745990E+02 0.52767859199E+02 0.97027379713E+02 0.16742246645E+03 0.25923850862E+03
 0.36014684926E+03 0.45253798495E+03 0.51772095555E+03 0.54126484517E+03 0.51772100027E+03
 0.29958289310E+03 0.22468758211E+03 0.15160116986E+03 0.92250562293E+02 0.52767828557E+02
 0.32477180672E+02 0.24907286682E+02 0.21367374802E+02 0.18843631313E+02 0.17064885916E+02
 0.15783603921E+02 0.14845842643E+02 0.14175022669E+02 0.13731855138E+02 0.13479582442E+02
 0.13366105876E+02 0.13331047255E+02 0.13325931574E+02 0.13326113402E+02 0.13331334865E+02
 0.13366132743E+02 0.13479425672E+02 0.13731843164E+02 0.14175156995E+02 0.14845809492E+02
 0.15783337893E+02 0.17064726713E+02 0.18843793016E+02 0.21367568762E+02 0.24907098422E+02
 0.32476649357E+02 0.52767422228E+02 0.92250650924E+02 0.15160171515E+03 0.22468831091E+03
 0.29958357093E+03 0.36140498409E+03 0.39644206355E+03 0.39644188616E+03 0.36140450176E+03
 0.17594626534E+03 0.12394697243E+03 0.79292251213E+02 0.48192709224E+02 0.31482729002E+02
 0.24907286682E+02 0.21717929242E+02 0.19423583733E+02 0.17817239022E+02 0.16687954333E+02
 0.15897832127E+02 0.15378479466E+02 0.15094779049E+02 0.15009961691E+02 0.15064917703E+02
 0.15181431557E+02 0.15284653522E+02 0.15324674260E+02 0.15284672403E+02 0.15181448445E+02
 0.15064916068E+02 0.15009950523E+02 0.15094779574E+02 0.15378491121E+02 0.15897829338E+02
 0.16687925272E+02 0.17817207259E+02 0.19423575128E+02 0.21717936607E+02 0.24907288965E+02
 0.31482727392E+02 0.48192717028E+02 0.79292262984E+02 0.12394697456E+03 0.17594626650E+03
 0.22518883181E+03 0.26056560766E+03 0.27344340295E+03 0.26056558477E+03 0.22518881427E+03
 0.91179225569E+02 0.61782540820E+02 0.40553381943E+02 0.28867390199E+02 0.24043728028E+02
 0.21367374802E+02 0.19423583733E+02 0.18077423072E+02 0.17164649709E+02 0.16575009179E+02
 0.16257583160E+02 0.16188874418E+02 0.16336522242E+02 0.16635667919E+02 0.16989792447E+02
 0.17294928264E+02 0.17469037809E+02 0.17469014368E+02 0.17294855474E+02 0.16989695479E+02
 0.16635620978E+02 0.16336577147E+02 0.16188987096E+02 0.16257666854E+02 0.16575039659E+02
 0.17164652921E+02 0.18077400763E+02 0.19423573406E+02 0.21367545905E+02 0.24044188140E+02
 0.28867824247E+02 0.40553177105E+02 0.61781540828E+02 0.91178161089E+02 0.12351825668E+03
 0.15134039128E+03 0.16744927820E+03 0.16744890185E+03 0.15133984347E+03 0.12351848963E+03
 0.44290105480E+02 0.32202137402E+02 0.25506509753E+02 0.22450963524E+02 0.20359575021E+02
 0.18843631313E+02 0.17817239022E+02 0.17164649709E+02 0.16808978683E+02 0.16722576597E+02
 0.16900081509E+02 0.17320346034E+02 0.17917833069E+02 0.18579961167E+02 0.19179476761E+02
 0.19642765176E+02 0.19827728938E+02 0.19642759635E+02 0.19179487762E+02 0.18579977476E+02
 0.17917821419E+02 0.17320319150E+02 0.16900087420E+02 0.16722615775E+02 0.16808998608E+02
 0.17164628916E+02 0.17817211117E+02 0.18843616565E+02 0.20359553442E+02 0.22450929621E+02
 0.25506492363E+02 0.32202146907E+02 0.44290114064E+02 0.60601617580E+02 0.77485195371E+02
 0.90241211548E+02 0.94991537106E+02 0.90241214000E+02 0.77485207410E+02 0.60601627157E+02
 0.25239525303E+02 0.22199204908E+02 0.20306301355E+02 0.18814296084E+02 0.17749816959E+02
 0.17064885916E+02 0.16687954333E+02 0.16575009179E+02 0.16722576597E+02 0.17146979157E+02
 0.17845331947E+02 0.18759780914E+02 0.19769646204E+02 0.20869619058E+02 0.22024429636E+02
 0.22799602353E+02 0.22799613141E+02 0.22024469744E+02 0.20869675391E+02 0.19769661498E+02
 0.18759719749E+02 0.17845233208E+02 0.17146907119E+02 0.16722561215E+02 0.16575044648E+02
 0.16687974711E+02 0.17064730399E+02 0.17749371803E+02 0.18813773382E+02 0.20306227822E+02
 0.22199908983E+02 0.25240639654E+02 0.30599025689E+02 0.37709571522E+02 0.44564731432E+02
 0.48780422496E+02 0.48780837088E+02 0.44565514015E+02 0.37709823140E+02 0.30598347240E+02
 0.19053318920E+02 0.17845307854E+02 0.16900083746E+02 0.16257572804E+02 0.15897807765E+02
 0.15783603921E+02 0.15897832127E+02 0.16257583160E+02 0.16900081509E+02 0.17845331947E+02
 0.19053364957E+02 0.20420551252E+02 0.22163810533E+02 0.24317474484E+02 0.26181329332E+02
 0.26922362365E+02 0.26181300211E+02 0.24317445162E+02 0.22163786279E+02 0.20420517700E+02
 0.19053336043E+02 0.17845332368E+02 0.16900093460E+02 0.16257574490E+02 0.15897820441E+02
 0.15783624377E+02 0.15897839252E+02 0.16257572267E+02 0.16900070233E+02 0.17845327882E+02
 0.19053350129E+02 0.20420511057E+02 0.22163760847E+02 0.24317443327E+02 0.26181323029E+02
 0.26922368055E+02 0.26181313380E+02 0.24317471640E+02 0.22163817686E+02 0.20420529403E+02
 0.15302619370E+02 0.14802721913E+02 0.14510714966E+02 0.14426954263E+02 0.14538499064E+02
 0.14845842643E+02 0.15378479466E+02 0.16188874418E+02 0.17320346034E+02 0.18759780914E+02
 0.20420551252E+02 0.22659517407E+02 0.25760936246E+02 0.28950338878E+02 0.30989747966E+02
 0.30989679120E+02 0.28950253205E+02 0.25760965747E+02 0.22659556255E+02 0.20420474842E+02
 0.18759719193E+02 0.17320456055E+02 0.16189006249E+02 0.15378419009E+02 0.14845790034E+02
 0.14538877188E+02 0.14427677815E+02 0.14511058758E+02 0.14802152854E+02 0.15301503887E+02
 0.15971095110E+02 0.16724698312E+02 0.17442391741E+02 0.18003026085E+02 0.18323253252E+02
 0.18323095820E+02 0.18002588045E+02 0.17441922073E+02 0.16724709002E+02 0.15971879788E+02
 0.12683733045E+02 0.12652436058E+02 0.12778219511E+02 0.13062834016E+02 0.13517082690E+02
 0.14175022669E+02 0.15094779049E+02 0.16336522242E+02 0.17917833069E+02 0.19769646204E+02
 0.22163810533E+02 0.25760936246E+02 0.30023982090E+02 0.33535325917E+02 0.34896700631E+02
 0.33535322537E+02 0.30023992392E+02 0.25760947878E+02 0.22163794131E+02 0.19769615053E+02
 0.17917831408E+02 0.16336552260E+02 0.15094798556E+02 0.14175017816E+02 0.13517082272E+02
 0.13062846224E+02 0.12778216153E+02 0.12652410946E+02 0.12683718816E+02 0.12860924152E+02
 0.13149111965E+02 0.13487643893E+02 0.13801986948E+02 0.14022661276E+02 0.14101831439E+02
 0.14022657635E+02 0.13801988654E+02 0.13487643030E+02 0.13149096768E+02 0.12860911831E+02
 0.10803191726E+02 0.11067915501E+02 0.11469754568E+02 0.12022563491E+02 0.12758234426E+02
 0.13731855138E+02 0.15009961691E+02 0.16635667919E+02 0.18579961167E+02 0.20869619058E+02
 0.24317474484E+02 0.28950338878E+02 0.33535325917E+02 0.36402335100E+02 0.36402360661E+02
 0.33535328355E+02 0.28950250931E+02 0.24317399413E+02 0.20869665821E+02 0.18580039075E+02
 0.16635642078E+02 0.15009894931E+02 0.13731837082E+02 0.12758069591E+02 0.12022015023E+02
 0.11469138420E+02 0.11067995909E+02 0.10804209268E+02 0.10667800312E+02 0.10641481777E+02
 0.10695086882E+02 0.10788213605E+02 0.10878842460E+02 0.10933223415E+02 0.10933124212E+02
 0.10878877254E+02 0.10788733723E+02 0.10695616821E+02 0.10641175286E+02 0.10666647350E+02
 0.93974550060E+01 0.98616692731E+01 0.10467219269E+02 0.11239788444E+02 0.12223533871E+02
 0.13479582442E+02 0.15064917703E+02 0.16989792447E+02 0.19179476761E+02 0.22024429636E+02
 0.26181329332E+02 0.30989747966E+02 0.34896700631E+02 0.36402360661E+02 0.34896668051E+02
 0.30989711945E+02 0.26181305782E+02 0.22024409811E+02 0.19179459132E+02 0.16989791809E+02
 0.15064934595E+02 0.13479595163E+02 0.12223533787E+02 0.11239796255E+02 0.10467251033E+02
 0.98617087430E+01 0.93974762131E+01 0.90592587733E+01 0.88324736404E+01 0.86973243842E+01
 0.86290120851E+01 0.86021442452E+01 0.85954331700E+01 0.85948379062E+01 0.85954409913E+01
 0.86021543967E+01 0.86290191064E+01 0.86973294245E+01 0.88324799790E+01 0.90592587210E+01
 0.83262326178E+01 0.89441080989E+01 0.97181621487E+01 0.10680257906E+02 0.11877671887E+02
 0.13366105876E+02 0.15181431557E+02 0.17294928264E+02 0.19642765176E+02 0.22799602353E+02
 0.26922362365E+02 0.30989679120E+02 0.33535322537E+02 0.33535328355E+02 0.30989711945E+02
 0.26922420287E+02 0.22799627471E+02 0.19642713972E+02 0.17294835622E+02 0.15181367529E+02
 0.13366142047E+02 0.11877921570E+02 0.10680799171E+02 0.97187871711E+01 0.89442906815E+01
 0.83256126807E+01 0.78426007661E+01 0.74792283889E+01 0.72179584547E+01 0.70386452547E+01
 0.69216924285E+01 0.68518126341E+01 0.68193163861E+01 0.68194527607E+01 0.68519247293E+01
 0.69213593523E+01 0.70380560225E+01 0.72178295168E+01 0.74799423906E+01 0.78436853117E+01
 0.75230332985E+01 0.82715359184E+01 0.91894974487E+01 0.10309242024E+02 0.11675344927E+02
 0.13331047255E+02 0.15284653522E+02 0.17469037809E+02 0.19827728938E+02 0.22799613141E+02
 0.26181300211E+02 0.28950253205E+02 0.30023992392E+02 0.28950250931E+02 0.26181305782E+02
 0.22799627471E+02 0.19827744512E+02 0.17469054513E+02 0.15284672675E+02 0.13331058018E+02
 0.11675339377E+02 0.10309232097E+02 0.91894928052E+01 0.82715223396E+01 0.75230022562E+01
 0.69225521359E+01 0.64533867080E+01 0.60981543084E+01 0.58375170868E+01 0.56525878429E+01
 0.55286426216E+01 0.54568441073E+01 0.54332354042E+01 0.54568161778E+01 0.55286291696E+01
 0.56525991468E+01 0.58375173707E+01 0.60981307358E+01 0.64533744606E+01 0.69225739262E+01
 0.69499131184E+01 0.78083139379E+01 0.88438177572E+01 0.10086263395E+02 0.11572293832E+02
 0.13325931574E+02 0.15324674260E+02 0.17469014368E+02 0.19642759635E+02 0.22024469744E+02
 0.24317445162E+02 0.25760965747E+02 0.25760947878E+02 0.24317399413E+02 0.22024409811E+02
 0.19642713972E+02 0.17469054513E+02 0.15324851183E+02 0.13326117130E+02 0.11572176192E+02
 0.10085663765E+02 0.88430269356E+01 0.78079548170E+01 0.69503502697E+01 0.62496154127E+01
 0.56900693803E+01 0.52556736994E+01 0.49277954617E+01 0.46869844490E+01 0.45169501716E+01
 0.44072997031E+01 0.43531970480E+01 0.43531566824E+01 0.44072627504E+01 0.45170856670E+01
 0.46873320897E+01 0.49280967890E+01 0.52555121194E+01 0.56893083155E+01 0.62486766450E+01
 0.65709272100E+01 0.75185497417E+01 0.86471593072E+01 0.99806991407E+01 0.11540769387E+02
 0.13326113402E+02 0.15284672403E+02 0.17294855474E+02 0.19179487762E+02 0.20869675391E+02
 0.22163786279E+02 0.22659556255E+02 0.22163794131E+02 0.20869665821E+02 0.19179459132E+02
 0.17294835622E+02 0.15284672675E+02 0.13326117130E+02 0.11540768949E+02 0.99807057498E+01
 0.86471734095E+01 0.75185585197E+01 0.65709323999E+01 0.57856262894E+01 0.51479453664E+01
 0.46432749989E+01 0.42546082191E+01 0.39631009942E+01 0.37511961783E+01 0.36060193937E+01
 0.35205727507E+01 0.34922699182E+01 0.35205893698E+01 0.36060260713E+01 0.37511900260E+01
 0.39631068813E+01 0.42546296744E+01 0.46432856823E+01 0.51479349688E+01 0.57856135798E+01
 0.63542322671E+01 0.73782962581E+01 0.85827309260E+01 0.99802595461E+01 0.11572290334E+02
 0.13331334865E+02 0.15181448445E+02 0.16989695479E+02 0.18579977476E+02 0.19769661498E+02
 0.20420517700E+02 0.20420474842E+02 0.19769615053E+02 0.18580039075E+02 0.16989791809E+02
 0.15181367529E+02 0.13331058018E+02 0.11572176192E+02 0.99807057498E+01 0.85836157311E+01
 0.73789367187E+01 0.63540467294E+01 0.54952364180E+01 0.47894723327E+01 0.42227489769E+01
 0.37787504739E+01 0.34394227891E+01 0.31872375613E+01 0.30078836565E+01 0.28919347283E+01
 0.28346983790E+01 0.28346471358E+01 0.28918484788E+01 0.30078334243E+01 0.31871421742E+01
 0.34391958898E+01 0.37785854036E+01 0.42230400781E+01 0.47903092664E+01 0.54961006696E+01
 0.62832282217E+01 0.73789704425E+01 0.86471804064E+01 0.10085655377E+02 0.11675331401E+02
 0.13366132743E+02 0.15064916068E+02 0.16635620978E+02 0.17917821419E+02 0.18759719749E+02
 0.19053336043E+02 0.18759719193E+02 0.17917831408E+02 0.16635642078E+02 0.15064934595E+02
 0.13366142047E+02 0.11675339377E+02 0.10085663765E+02 0.86471734095E+01 0.73789367187E+01
 0.62831829625E+01 0.53547167772E+01 0.45844932075E+01 0.39598690181E+01 0.34646325528E+01
 0.30804500147E+01 0.27894170644E+01 0.25764529375E+01 0.24306296270E+01 0.23452709844E+01
 0.23171249492E+01 0.23452717226E+01 0.24306247621E+01 0.25764409361E+01 0.27894047941E+01
 0.30804422201E+01 0.34646254326E+01 0.39598614026E+01 0.45844975117E+01 0.53547461064E+01
 0.63542179427E+01 0.75194308113E+01 0.88438279871E+01 0.10309409435E+02 0.11877668532E+02
 0.13479425672E+02 0.15009950523E+02 0.16336577147E+02 0.17320319150E+02 0.17845233208E+02
 0.17845332368E+02 0.17320456055E+02 0.16336552260E+02 0.15009894931E+02 0.13479595163E+02
 0.11877921570E+02 0.10309232097E+02 0.88430269356E+01 0.75185585197E+01 0.63540467294E+01
 0.53547167772E+01 0.45174322594E+01 0.38325378399E+01 0.32848895994E+01 0.28558516302E+01
 0.25264390101E+01 0.22802454254E+01 0.21048984166E+01 0.19920692841E+01 0.19368190662E+01
 0.19368766349E+01 0.19921843417E+01 0.21049633777E+01 0.22802460066E+01 0.25264975002E+01
 0.28560254163E+01 0.32849406476E+01 0.38321071435E+01 0.45165699439E+01 0.53540598480E+01
 0.65709075621E+01 0.78079320840E+01 0.91894842468E+01 0.10680816860E+02 0.12223561404E+02
 0.13731843164E+02 0.15094779574E+02 0.16188987096E+02 0.16900087420E+02 0.17146907119E+02
 0.16900093460E+02 0.16189006249E+02 0.15094798556E+02 0.13731837082E+02 0.12223533787E+02
 0.10680799171E+02 0.91894928052E+01 0.78079548170E+01 0.65709323999E+01 0.54952364180E+01
 0.45844932075E+01 0.38325378399E+01 0.32260049016E+01 0.27469103021E+01 0.23757108500E+01
 0.20944365633E+01 0.18887917313E+01 0.17485880118E+01 0.16670871215E+01 0.16403535671E+01
 0.16670799821E+01 0.17485906656E+01 0.18888037416E+01 0.20944404984E+01 0.23757076681E+01
 0.27469194308E+01 0.32260263604E+01 0.38325475581E+01 0.45844796592E+01 0.54952119420E+01
 0.69499000946E+01 0.82706108859E+01 0.97181529986E+01 0.11239724546E+02 0.12758266008E+02
 0.14175156995E+02 0.15378491121E+02 0.16257666854E+02 0.16722615775E+02 0.16722561215E+02
 0.16257574490E+02 0.15378419009E+02 0.14175017816E+02 0.12758069591E+02 0.11239796255E+02
 0.97187871711E+01 0.82715223396E+01 0.69503502697E+01 0.57856262894E+01 0.47894723327E+01
 0.39598690181E+01 0.32848895994E+01 0.27469103021E+01 0.23263065133E+01 0.20042873578E+01
 0.17648076655E+01 0.15954734938E+01 0.14874538522E+01 0.14349407333E+01 0.14349226609E+01
 0.14873832556E+01 0.15953732099E+01 0.17647724376E+01 0.20043249563E+01 0.23262704019E+01
 0.27467665167E+01 0.32849390905E+01 0.39604248728E+01 0.47903044325E+01 0.57860249947E+01
 0.75230342049E+01 0.89443078683E+01 0.10467238241E+02 0.12021994521E+02 0.13517084568E+02
 0.14845809492E+02 0.15897829338E+02 0.16575039659E+02 0.16808998608E+02 0.16575044648E+02
 0.15897820441E+02 0.14845790034E+02 0.13517082272E+02 0.12022015023E+02 0.10467251033E+02
 0.89442906815E+01 0.75230022562E+01 0.62496154127E+01 0.51479453664E+01 0.42227489769E+01
 0.34646325528E+01 0.28558516302E+01 0.23757108500E+01 0.20042873578E+01 0.17242285923E+01
 0.15213050153E+01 0.13844425429E+01 0.13056270424E+01 0.12799179870E+01 0.13056274409E+01
 0.13844414328E+01 0.15213033745E+01 0.17242266676E+01 0.20042797917E+01 0.23756953034E+01
 0.28558367648E+01 0.34646270702E+01 0.42227510332E+01 0.51479537051E+01 0.62496372656E+01
 0.83262458396E+01 0.98627148637E+01 0.11469783531E+02 0.13062827237E+02 0.14538496256E+02
 0.15783337893E+02 0.16687925272E+02 0.17164652921E+02 0.17164628916E+02 0.16687974711E+02
 0.15783624377E+02 0.14538877188E+02 0.13062846224E+02 0.11469138420E+02 0.98617087430E+01
 0.83256126807E+01 0.69225521359E+01 0.56900693803E+01 0.46432749989E+01 0.37787504739E+01
 0.30804500147E+01 0.25264390101E+01 0.20944365633E+01 0.17648076655E+01 0.15213050153E+01
 0.13508177766E+01 0.12431449601E+01 0.11911480833E+01 0.11911443625E+01 0.12431726882E+01
 0.13509066403E+01 0.15213768540E+01 0.17647764554E+01 0.20943751782E+01 0.25264967098E+01
 0.30805594300E+01 0.37785796021E+01 0.46426384732E+01 0.56893219766E+01 0.69223576647E+01
 0.93974712001E+01 0.11068004665E+02 0.12778225244E+02 0.14427681495E+02 0.15897838539E+02
 0.17064726713E+02 0.17817207259E+02 0.18077400763E+02 0.17817211117E+02 0.17064730399E+02
 0.15897839252E+02 0.14427677815E+02 0.12778216153E+02 0.11067995909E+02 0.93974762131E+01
 0.78426007661E+01 0.64533867080E+01 0.52556736994E+01 0.42546082191E+01 0.34394227891E+01
 0.27894170644E+01 0.22802454254E+01 0.18887917313E+01 0.15954734938E+01 0.13844425429E+01
 0.12431449601E+01 0.11622474518E+01 0.11359421333E+01 0.11622507022E+01 0.12431433301E+01
 0.13844382642E+01 0.15954782081E+01 0.18888055467E+01 0.22802554877E+01 0.27894188181E+01
 0.34394238355E+01 0.42546083380E+01 0.52556609423E+01 0.64533596617E+01 0.78425771954E+01
 0.10803200165E+02 0.12651315930E+02 0.14510698513E+02 0.16257947771E+02 0.17749852990E+02
 0.18843793016E+02 0.19423575128E+02 0.19423573406E+02 0.18843616565E+02 0.17749371803E+02
 0.16257572267E+02 0.14511058758E+02 0.12652410946E+02 0.10804209268E+02 0.90592587733E+01
 0.74792283889E+01 0.60981543084E+01 0.49277954617E+01 0.39631009942E+01 0.31872375613E+01
 0.25764529375E+01 0.21048984166E+01 0.17485880118E+01 0.14874538522E+01 0.13056270424E+01
 0.11911480833E+01 0.11359421333E+01 0.11359473365E+01 0.11911454430E+01 0.13055837430E+01
 0.14873808918E+01 0.17485625573E+01 0.21049625947E+01 0.25765027828E+01 0.31871483420E+01
 0.39630122850E+01 0.49280817904E+01 0.60989145544E+01 0.74799177165E+01 0.90591325758E+01
 0.12683730075E+02 0.14802170668E+02 0.16900074996E+02 0.18813772630E+02 0.20359568978E+02
 0.21367568762E+02 0.21717936607E+02 0.21367545905E+02 0.20359553442E+02 0.18813773382E+02
 0.16900070233E+02 0.14802152854E+02 0.12683718816E+02 0.10667800312E+02 0.88324736404E+01
 0.72179584547E+01 0.58375170868E+01 0.46869844490E+01 0.37511961783E+01 0.30078836565E+01
 0.24306296270E+01 0.19920692841E+01 0.16670871215E+01 0.14349407333E+01 0.12799179870E+01
 0.11911443625E+01 0.11622507022E+01 0.11911454430E+01 0.12799227527E+01 0.14349439059E+01
 0.16670820163E+01 0.19920613298E+01 0.24306261146E+01 0.30078779199E+01 0.37511821375E+01
 0.46869758507E+01 0.58375278634E+01 0.72179756370E+01 0.88324772991E+01 0.10667798136E+02
 0.15302612293E+02 0.17846147830E+02 0.20306312139E+02 0.22450486095E+02 0.24043706634E+02
 0.24907098422E+02 0.24907288965E+02 0.24044188140E+02 0.22450929621E+02 0.20306227822E+02
 0.17845327882E+02 0.15301503887E+02 0.12860924152E+02 0.10641481777E+02 0.86973243842E+01
 0.70386452547E+01 0.56525878429E+01 0.45169501716E+01 0.36060193937E+01 0.28919347283E+01
 0.23452709844E+01 0.19368190662E+01 0.16403535671E+01 0.14349226609E+01 0.13056274409E+01
 0.12431726882E+01 0.12431433301E+01 0.13055837430E+01 0.14349439059E+01 0.16404455649E+01
 0.19368819020E+01 0.23452211384E+01 0.28918495970E+01 0.36060607413E+01 0.45170834303E+01
 0.56524895184E+01 0.70380672014E+01 0.86965457174E+01 0.10641191995E+02 0.12861521696E+02
 0.19053319418E+02 0.22199908378E+02 0.25506522785E+02 0.28867858941E+02 0.31482745990E+02
 0.32476649357E+02 0.31482727392E+02 0.28867824247E+02 0.25506492363E+02 0.22199908983E+02
 0.19053350129E+02 0.15971095110E+02 0.13149111965E+02 0.10695086882E+02 0.86290120851E+01
 0.69216924285E+01 0.55286426216E+01 0.44072997031E+01 0.35205727507E+01 0.28346983790E+01
 0.23171249492E+01 0.19368766349E+01 0.16670799821E+01 0.14873832556E+01 0.13844414328E+01
 0.13509066403E+01 0.13844382642E+01 0.14873808918E+01 0.16670820163E+01 0.19368819020E+01
 0.23171301313E+01 0.28347047132E+01 0.35205834536E+01 0.44073094323E+01 0.55286401458E+01
 0.69216785672E+01 0.86290019035E+01 0.10695085202E+02 0.13149101622E+02 0.15971064539E+02
 0.25239536588E+02 0.32201424319E+02 0.40553387187E+02 0.48193515752E+02 0.52767859199E+02
 0.52767422228E+02 0.48192717028E+02 0.40553177105E+02 0.32202146907E+02 0.25240639654E+02
 0.20420511057E+02 0.16724698312E+02 0.13487643893E+02 0.10788213605E+02 0.86021442452E+01
 0.68518126341E+01 0.54568441073E+01 0.43531970480E+01 0.34922699182E+01 0.28346471358E+01
 0.23452717226E+01 0.19921843417E+01 0.17485906656E+01 0.15953732099E+01 0.15213033745E+01
 0.15213768540E+01 0.15954782081E+01 0.17485625573E+01 0.19920613298E+01 0.23452211384E+01
 0.28347047132E+01 0.34923091663E+01 0.43531475406E+01 0.54568052882E+01 0.68519331229E+01
 0.86024844552E+01 0.10788710623E+02 0.13488074427E+02 0.16724687196E+02 0.20419809395E+02
 0.44290117427E+02 0.61781539145E+02 0.79292261085E+02 0.92250649864E+02 0.97027379713E+02
 0.92250650924E+02 0.79292262984E+02 0.61781540828E+02 0.44290114064E+02 0.30599025689E+02
 0.22163760847E+02 0.17442391741E+02 0.13801986948E+02 0.10878842460E+02 0.85954331700E+01
 0.68193163861E+01 0.54332354042E+01 0.43531566824E+01 0.35205893698E+01 0.28918484788E+01
 0.24306247621E+01 0.21049633777E+01 0.18888037416E+01 0.17647724376E+01 0.17242266676E+01
 0.17647764554E+01 0.18888055467E+01 0.21049625947E+01 0.24306261146E+01 0.28918495970E+01
 0.35205834536E+01 0.43531475406E+01 0.54332350005E+01 0.68193257621E+01 0.85954407157E+01
 0.10878844299E+02 0.13801994238E+02 0.17442412106E+02 0.22163785237E+02 0.30599040642E+02
 0.91179225705E+02 0.12394721360E+03 0.15160118754E+03 0.16742210270E+03 0.16742246645E+03
 0.15160171515E+03 0.12394697456E+03 0.91178161089E+02 0.60601617580E+02 0.37709571522E+02
 0.24317443327E+02 0.18003026085E+02 0.14022661276E+02 0.10933223415E+02 0.85948379062E+01
 0.68194527607E+01 0.54568161778E+01 0.44072627504E+01 0.36060260713E+01 0.30078334243E+01
 0.25764409361E+01 0.22802460066E+01 0.20944404984E+01 0.20043249563E+01 0.20042797917E+01
 0.20943751782E+01 0.22802554877E+01 0.25765027828E+01 0.30078779199E+01 0.36060607413E+01
 0.44073094323E+01 0.54568052882E+01 0.68193257621E+01 0.85946837316E+01 0.10933128347E+02
 0.14022484916E+02 0.18002603410E+02 0.24317042129E+02 0.37709798196E+02 0.60602628144E+02
 0.17594625372E+03 0.22468829707E+03 0.25923850229E+03 0.27172646829E+03 0.25923850862E+03
 0.22468831091E+03 0.17594626650E+03 0.12351825668E+03 0.77485195371E+02 0.44564731432E+02
 0.26181323029E+02 0.18323253252E+02 0.14101831439E+02 0.10933124212E+02 0.85954409913E+01
 0.68519247293E+01 0.55286291696E+01 0.45170856670E+01 0.37511900260E+01 0.31871421742E+01
 0.27894047941E+01 0.25264975002E+01 0.23757076681E+01 0.23262704019E+01 0.23756953034E+01
 0.25264967098E+01 0.27894188181E+01 0.31871483420E+01 0.37511821375E+01 0.45170834303E+01
 0.55286401458E+01 0.68519331229E+01 0.85954407157E+01 0.10933128347E+02 0.14101841258E+02
 0.18323250990E+02 0.26181304428E+02 0.44564715308E+02 0.77485191849E+02 0.12351825325E+03
 0.29958288205E+03 0.36014635311E+03 0.39416230829E+03 0.39416249268E+03 0.36014684926E+03
 0.29958357093E+03 0.22518883181E+03 0.15134039128E+03 0.90241211548E+02 0.48780422496E+02
 0.26922368055E+02 0.18323095820E+02 0.14022657635E+02 0.10878877254E+02 0.86021543967E+01
 0.69213593523E+01 0.56525991468E+01 0.46873320897E+01 0.39631068813E+01 0.34391958898E+01
 0.30804422201E+01 0.28560254163E+01 0.27469194308E+01 0.27467665167E+01 0.28558367648E+01
 0.30805594300E+01 0.34394238355E+01 0.39630122850E+01 0.46869758507E+01 0.56524895184E+01
 0.69216785672E+01 0.86024844552E+01 0.10878844299E+02 0.14022484916E+02 0.18323250990E+02
 0.26922877341E+02 0.48780826416E+02 0.90241120291E+02 0.15133983771E+03 0.22518809409E+03
 0.45253799373E+03 0.51621528012E+03 0.53909787252E+03 0.51621524206E+03 0.45253798495E+03
 0.36140498409E+03 0.26056560766E+03 0.16744927820E+03 0.94991537106E+02 0.48780837088E+02
 0.26181313380E+02 0.18002588045E+02 0.13801988654E+02 0.10788733723E+02 0.86290191064E+01
 0.70380560225E+01 0.58375173707E+01 0.49280967890E+01 0.42546296744E+01 0.37785854036E+01
 0.34646254326E+01 0.32849406476E+01 0.32260263604E+01 0.32849390905E+01 0.34646270702E+01
 0.37785796021E+01 0.42546083380E+01 0.49280817904E+01 0.58375278634E+01 0.70380672014E+01
 0.86290019035E+01 0.10788710623E+02 0.13801994238E+02 0.18002603410E+02 0.26181304428E+02
 0.48780826416E+02 0.94991562943E+02 0.16744931198E+03 0.26056559690E+03 0.36140495167E+03
 0.61549638356E+03 0.67021793783E+03 0.67021688867E+03 0.61549444391E+03 0.51772095555E+03
 0.39644206355E+03 0.27344340295E+03 0.16744890185E+03 0.90241214000E+02 0.44565514015E+02
 0.24317471640E+02 0.17441922073E+02 0.13487643030E+02 0.10695616821E+02 0.86973294245E+01
 0.72178295168E+01 0.60981307358E+01 0.52555121194E+01 0.46432856823E+01 0.42230400781E+01
 0.39598614026E+01 0.38321071435E+01 0.38325475581E+01 0.39604248728E+01 0.42227510332E+01
 0.46426384732E+01 0.52556609423E+01 0.60989145544E+01 0.72179756370E+01 0.86965457174E+01
 0.10695085202E+02 0.13488074427E+02 0.17442412106E+02 0.24317042129E+02 0.44564715308E+02
 0.90241120291E+02 0.16744931198E+03 0.27344339593E+03 0.39644191297E+03 0.51772189409E+03
 0.76221724438E+03 0.79487590392E+03 0.76221726357E+03 0.67138127065E+03 0.54126484517E+03
 0.39644188616E+03 0.26056558477E+03 0.15133984347E+03 0.77485207410E+02 0.37709823140E+02
 0.22163817686E+02 0.16724709002E+02 0.13149096768E+02 0.10641175286E+02 0.88324799790E+01
 0.74799423906E+01 0.64533744606E+01 0.56893083155E+01 0.51479349688E+01 0.47903092664E+01
 0.45844975117E+01 0.45165699439E+01 0.45844796592E+01 0.47903044325E+01 0.51479537051E+01
 0.56893219766E+01 0.64533596617E+01 0.74799177165E+01 0.88324772991E+01 0.10641191995E+02
 0.13149101622E+02 0.16724687196E+02 0.22163785237E+02 0.37709798196E+02 0.77485191849E+02
 0.15133983771E+03 0.26056559690E+03 0.39644191297E+03 0.54126486256E+03 0.67138126148E+03
 0.86491099254E+03 0.86491267531E+03 0.79538242630E+03 0.67138231616E+03 0.51772100027E+03
 0.36140450176E+03 0.22518881427E+03 0.12351848963E+03 0.60601627157E+02 0.30598347240E+02
 0.20420529403E+02 0.15971879788E+02 0.12860911831E+02 0.10666647350E+02 0.90592587210E+01
 0.78436853117E+01 0.69225739262E+01 0.62486766450E+01 0.57856135798E+01 0.54961006696E+01
 0.53547461064E+01 0.53540598480E+01 0.54952119420E+01 0.57860249947E+01 0.62496372656E+01
 0.69223576647E+01 0.78425771954E+01 0.90591325758E+01 0.10667798136E+02 0.12861521696E+02
 0.15971064539E+02 0.20419809395E+02 0.30599040642E+02 0.60602628144E+02 0.12351825325E+03
 0.22518809409E+03 0.36140495167E+03 0.51772189409E+03 0.67138126148E+03 0.79537944787E+03
 0.86491101046E+03 0.79487295333E+03 0.67021690094E+03 0.51621618811E+03 0.36014682952E+03
 0.22468760181E+03 0.12394697968E+03 0.61782538727E+02 0.32202140832E+02 0.22199209401E+02
 0.17845297697E+02 0.14802703158E+02 0.12652429117E+02 0.11067920603E+02 0.98616709125E+01
 0.89441070746E+01 0.82715445035E+01 0.78083257851E+01 0.75185476430E+01 0.73782843008E+01
 0.73789664158E+01 0.75194326975E+01 0.78079240335E+01 0.82705959123E+01 0.89443020523E+01
 0.98627152637E+01 0.11067995504E+02 0.12651300680E+02 0.14802165705E+02 0.17846150295E+02