   2   2   0   0
  0.2390996E+02  0.4074190E-09  0.4074190E-09  0.4074190E-09  0.5000000E-15
  1.000000000000000E-004
  CAR 
 Ge                                      
     49.54757921    -23.63456222  301      4.46701224      1.00000000
    -23.635  0.0000E+00  0.0000E+00
    -23.391  0.0000E+00  0.0000E+00
    -23.147  0.0000E+00  0.0000E+00
    -22.903  0.0000E+00  0.0000E+00
    -22.659  0.0000E+00  0.0000E+00
    -22.415  0.0000E+00  0.0000E+00
    -22.171  0.0000E+00  0.0000E+00
    -21.927  0.0000E+00  0.0000E+00
    -21.683  0.0000E+00  0.0000E+00
    -21.439  0.0000E+00  0.0000E+00
    -21.195  0.0000E+00  0.0000E+00
    -20.951  0.0000E+00  0.0000E+00
    -20.707  0.0000E+00  0.0000E+00
    -20.463  0.2168E-04  0.5289E-05
    -20.219  0.2400E+02  0.5854E+01
    -19.975  0.5473E+02  0.1920E+02
    -19.732  0.3262E+01  0.2000E+02
    -19.488  0.0000E+00  0.2000E+02
    -19.244  0.0000E+00  0.2000E+02
    -19.000  0.0000E+00  0.2000E+02
    -18.756  0.0000E+00  0.2000E+02
    -18.512  0.0000E+00  0.2000E+02
    -18.268  0.0000E+00  0.2000E+02
    -18.024  0.0000E+00  0.2000E+02
    -17.780  0.0000E+00  0.2000E+02
    -17.536  0.0000E+00  0.2000E+02
    -17.292  0.0000E+00  0.2000E+02
    -17.048  0.0000E+00  0.2000E+02
    -16.804  0.0000E+00  0.2000E+02
    -16.560  0.0000E+00  0.2000E+02
    -16.316  0.0000E+00  0.2000E+02
    -16.072  0.0000E+00  0.2000E+02
    -15.828  0.0000E+00  0.2000E+02
    -15.585  0.0000E+00  0.2000E+02
    -15.341  0.0000E+00  0.2000E+02
    -15.097  0.0000E+00  0.2000E+02
    -14.853  0.0000E+00  0.2000E+02
    -14.609  0.0000E+00  0.2000E+02
    -14.365  0.0000E+00  0.2000E+02
    -14.121  0.0000E+00  0.2000E+02
    -13.877  0.0000E+00  0.2000E+02
    -13.633  0.0000E+00  0.2000E+02
    -13.389  0.0000E+00  0.2000E+02
    -13.145  0.0000E+00  0.2000E+02
    -12.901  0.0000E+00  0.2000E+02
    -12.657  0.0000E+00  0.2000E+02
    -12.413  0.0000E+00  0.2000E+02
    -12.169  0.0000E+00  0.2000E+02
    -11.925  0.0000E+00  0.2000E+02
    -11.681  0.0000E+00  0.2000E+02
    -11.438  0.0000E+00  0.2000E+02
    -11.194  0.0000E+00  0.2000E+02
    -10.950  0.0000E+00  0.2000E+02
    -10.706  0.0000E+00  0.2000E+02
    -10.462  0.0000E+00  0.2000E+02
    -10.218  0.0000E+00  0.2000E+02
     -9.974  0.0000E+00  0.2000E+02
     -9.730  0.0000E+00  0.2000E+02
     -9.486  0.0000E+00  0.2000E+02
     -9.242  0.0000E+00  0.2000E+02
     -8.998  0.0000E+00  0.2000E+02
     -8.754  0.0000E+00  0.2000E+02
     -8.510  0.0000E+00  0.2000E+02
     -8.266  0.0000E+00  0.2000E+02
     -8.022  0.1978E-05  0.2000E+02
     -7.778  0.1997E-01  0.2000E+02
     -7.534  0.2203E+00  0.2006E+02
     -7.291  0.2190E+00  0.2011E+02
     -7.047  0.4857E+00  0.2023E+02
     -6.803  0.2696E+00  0.2030E+02
     -6.559  0.6884E+00  0.2046E+02
     -6.315  0.5980E+00  0.2061E+02
     -6.071  0.4207E+00  0.2071E+02
     -5.827  0.1445E+01  0.2107E+02
     -5.583  0.5691E+00  0.2120E+02
     -5.339  0.1163E+01  0.2149E+02
     -5.095  0.4186E+00  0.2159E+02
     -4.851  0.1033E+01  0.2184E+02
     -4.607  0.3065E+00  0.2192E+02
     -4.363  0.5659E-02  0.2192E+02
     -4.119  0.5750E+00  0.2206E+02
     -3.875  0.9754E-01  0.2208E+02
     -3.631  0.1273E+00  0.2211E+02
     -3.388  0.5686E+00  0.2225E+02
     -3.144  0.6512E+00  0.2241E+02
     -2.900  0.1149E+01  0.2269E+02
     -2.656  0.8344E+00  0.2289E+02
     -2.412  0.7589E+00  0.2308E+02
     -2.168  0.8304E+00  0.2328E+02
     -1.924  0.3263E+00  0.2336E+02
     -1.680  0.3832E-01  0.2337E+02
     -1.436  0.7672E+00  0.2356E+02
     -1.192  0.1355E-02  0.2356E+02
     -0.948  0.2328E+00  0.2362E+02
     -0.704  0.5359E+00  0.2375E+02
     -0.460  0.2066E-05  0.2375E+02
     -0.216  0.1103E+00  0.2377E+02
      0.028  0.1139E+00  0.2380E+02
      0.272  0.1323E+00  0.2383E+02
      0.516  0.8286E+00  0.2404E+02
      0.759  0.1179E+01  0.2432E+02
      1.003  0.1212E+01  0.2462E+02
      1.247  0.2003E+01  0.2511E+02
      1.491  0.2850E-01  0.2511E+02
      1.735  0.1072E+01  0.2538E+02
      1.979  0.2727E+01  0.2604E+02
      2.223  0.1088E+01  0.2631E+02
      2.467  0.1303E+01  0.2662E+02
      2.711  0.1239E+01  0.2693E+02
      2.955  0.1156E+01  0.2721E+02
      3.199  0.1639E+01  0.2761E+02
      3.443  0.2789E+00  0.2768E+02
      3.687  0.7447E+00  0.2786E+02
      3.931  0.8805E-01  0.2788E+02
      4.175  0.3601E+00  0.2797E+02
      4.419  0.1076E+00  0.2799E+02
      4.663  0.2191E+00  0.2805E+02
      4.906  0.2250E-01  0.2805E+02
      5.150  0.1980E+00  0.2810E+02
      5.394  0.3056E+00  0.2817E+02
      5.638  0.4677E+00  0.2829E+02
      5.882  0.1505E+01  0.2866E+02
      6.126  0.1603E+01  0.2905E+02
      6.370  0.9117E+00  0.2927E+02
      6.614  0.1027E+01  0.2952E+02
      6.858  0.2255E+01  0.3007E+02
      7.102  0.1935E+01  0.3054E+02
      7.346  0.1824E+00  0.3059E+02
      7.590  0.4256E+00  0.3069E+02
      7.834  0.1191E+01  0.3098E+02
      8.078  0.1316E+01  0.3130E+02
      8.322  0.1424E+01  0.3165E+02
      8.566  0.1583E+01  0.3204E+02
      8.810  0.6911E+00  0.3220E+02
      9.053  0.1221E+01  0.3250E+02
      9.297  0.2218E+01  0.3304E+02
      9.541  0.1891E+01  0.3350E+02
      9.785  0.4591E+00  0.3362E+02
     10.029  0.2189E+01  0.3415E+02
     10.273  0.9516E+00  0.3438E+02
     10.517  0.9557E+00  0.3462E+02
     10.761  0.5445E+00  0.3475E+02
     11.005  0.4711E+00  0.3486E+02
     11.249  0.8217E+00  0.3506E+02
     11.493  0.1195E+01  0.3536E+02
     11.737  0.1465E+01  0.3571E+02
     11.981  0.7567E+00  0.3590E+02
     12.225  0.2246E+01  0.3645E+02
     12.469  0.1115E+01  0.3672E+02
     12.713  0.6684E+00  0.3688E+02
     12.957  0.4430E+00  0.3699E+02
     13.200  0.2138E+01  0.3751E+02
     13.444  0.2119E+01  0.3803E+02
     13.688  0.1391E+01  0.3837E+02
     13.932  0.1582E+01  0.3875E+02
     14.176  0.8578E+00  0.3896E+02
     14.420  0.9755E+00  0.3920E+02
     14.664  0.1769E+01  0.3963E+02
     14.908  0.4843E+00  0.3975E+02
     15.152  0.1510E+01  0.4012E+02
     15.396  0.1282E+01  0.4043E+02
     15.640  0.1687E+01  0.4084E+02
     15.884  0.2710E+01  0.4150E+02
     16.128  0.1939E+01  0.4198E+02
     16.372  0.1203E+01  0.4227E+02
     16.616  0.1404E+01  0.4261E+02
     16.860  0.1669E+01  0.4302E+02
     17.103  0.1501E+01  0.4339E+02
     17.347  0.7377E+00  0.4356E+02
     17.591  0.1052E+01  0.4382E+02
     17.835  0.1646E+01  0.4422E+02
     18.079  0.1623E+01  0.4462E+02
     18.323  0.8446E-02  0.4462E+02
     18.567  0.1387E+01  0.4496E+02
     18.811  0.2092E+01  0.4547E+02
     19.055  0.1648E+01  0.4587E+02
     19.299  0.1340E+01  0.4620E+02
     19.543  0.2055E+01  0.4670E+02
     19.787  0.1368E+01  0.4703E+02
     20.031  0.4702E+00  0.4715E+02
     20.275  0.2178E+01  0.4768E+02
     20.519  0.1900E+01  0.4814E+02
     20.763  0.1689E+01  0.4856E+02
     21.007  0.1279E+01  0.4887E+02
     21.250  0.6877E+00  0.4904E+02
     21.494  0.1834E+01  0.4948E+02
     21.738  0.1453E+01  0.4984E+02
     21.982  0.1854E+01  0.5029E+02
     22.226  0.3202E+01  0.5107E+02
     22.470  0.1287E+01  0.5138E+02
     22.714  0.2199E+01  0.5192E+02
     22.958  0.1270E+01  0.5223E+02
     23.202  0.1310E+01  0.5255E+02
     23.446  0.1282E+01  0.5286E+02
     23.690  0.2358E+01  0.5344E+02
     23.934  0.2497E+01  0.5405E+02
     24.178  0.1370E+01  0.5438E+02
     24.422  0.1920E+01  0.5485E+02
     24.666  0.1291E+01  0.5516E+02
     24.910  0.1329E+01  0.5549E+02
     25.154  0.1517E+01  0.5586E+02
     25.397  0.1065E+01  0.5612E+02
     25.641  0.3861E+01  0.5706E+02
     25.885  0.2181E+01  0.5759E+02
     26.129  0.1351E+01  0.5792E+02
     26.373  0.1652E+01  0.5832E+02
     26.617  0.5601E+00  0.5846E+02
     26.861  0.1668E+01  0.5887E+02
     27.105  0.1960E+01  0.5935E+02
     27.349  0.1249E+01  0.5965E+02
     27.593  0.3777E+01  0.6057E+02
     27.837  0.2133E+01  0.6109E+02
     28.081  0.1468E+01  0.6145E+02
     28.325  0.2038E+01  0.6195E+02
     28.569  0.2426E+01  0.6254E+02
     28.813  0.2366E+01  0.6312E+02
     29.057  0.1739E+01  0.6354E+02
     29.301  0.2031E+01  0.6404E+02
     29.544  0.6936E+00  0.6421E+02
     29.788  0.2922E+01  0.6492E+02
     30.032  0.1618E+01  0.6531E+02
     30.276  0.1206E+01  0.6561E+02
     30.520  0.2152E+01  0.6613E+02
     30.764  0.1492E+01  0.6650E+02
     31.008  0.2535E+01  0.6711E+02
     31.252  0.2363E+01  0.6769E+02
     31.496  0.1376E+01  0.6803E+02
     31.740  0.1749E+01  0.6845E+02
     31.984  0.1675E+01  0.6886E+02
     32.228  0.3394E+01  0.6969E+02
     32.472  0.2295E+01  0.7025E+02
     32.716  0.2059E+01  0.7075E+02
     32.960  0.2104E+01  0.7127E+02
     33.204  0.1513E+01  0.7163E+02
     33.448  0.7210E+00  0.7181E+02
     33.691  0.2812E+01  0.7250E+02
     33.935  0.1584E+01  0.7288E+02
     34.179  0.2079E+01  0.7339E+02
     34.423  0.1949E+01  0.7387E+02
     34.667  0.1103E+01  0.7413E+02
     34.911  0.1303E+01  0.7445E+02
     35.155  0.1788E+01  0.7489E+02
     35.399  0.3442E+01  0.7573E+02
     35.643  0.2237E+01  0.7627E+02
     35.887  0.1184E+01  0.7656E+02
     36.131  0.3011E+01  0.7730E+02
     36.375  0.3403E+01  0.7813E+02
     36.619  0.3321E+01  0.7894E+02
     36.863  0.1955E+01  0.7941E+02
     37.107  0.1753E+01  0.7984E+02
     37.351  0.1197E+01  0.8013E+02
     37.594  0.2957E+01  0.8085E+02
     37.838  0.4184E+01  0.8188E+02
     38.082  0.7665E+00  0.8206E+02
     38.326  0.1713E+01  0.8248E+02
     38.570  0.1350E+01  0.8281E+02
     38.814  0.2437E+01  0.8340E+02
     39.058  0.1999E+01  0.8389E+02
     39.302  0.1145E+01  0.8417E+02
     39.546  0.1404E+01  0.8451E+02
     39.790  0.2867E+01  0.8521E+02
     40.034  0.2473E+01  0.8582E+02
     40.278  0.1757E+01  0.8624E+02
     40.522  0.1116E+01  0.8652E+02
     40.766  0.3295E+01  0.8732E+02
     41.010  0.3280E+01  0.8812E+02
     41.254  0.3080E+01  0.8887E+02
     41.498  0.2595E+01  0.8951E+02
     41.741  0.1953E+01  0.8998E+02
     41.985  0.2938E+01  0.9070E+02
     42.229  0.2271E+01  0.9125E+02
     42.473  0.2221E+01  0.9179E+02
     42.717  0.2334E+01  0.9236E+02
     42.961  0.2955E+01  0.9308E+02
     43.205  0.1094E+01  0.9335E+02
     43.449  0.4785E+00  0.9347E+02
     43.693  0.9815E+00  0.9371E+02
     43.937  0.2827E+01  0.9440E+02
     44.181  0.1050E+01  0.9465E+02
     44.425  0.7525E+00  0.9484E+02
     44.669  0.5403E+00  0.9497E+02
     44.913  0.6858E-01  0.9498E+02
     45.157  0.2801E+00  0.9505E+02
     45.401  0.1948E+01  0.9553E+02
     45.645  0.1307E+01  0.9585E+02
     45.888  0.2422E+00  0.9591E+02
     46.132  0.2331E-02  0.9591E+02
     46.376  0.3820E+00  0.9600E+02
     46.620  0.2171E-05  0.9600E+02
     46.864  0.0000E+00  0.9600E+02
     47.108  0.0000E+00  0.9600E+02
     47.352  0.0000E+00  0.9600E+02
     47.596  0.0000E+00  0.9600E+02
     47.840  0.0000E+00  0.9600E+02
     48.084  0.0000E+00  0.9600E+02
     48.328  0.0000E+00  0.9600E+02
     48.572  0.0000E+00  0.9600E+02
     48.816  0.0000E+00  0.9600E+02
     49.060  0.0000E+00  0.9600E+02
     49.304  0.0000E+00  0.9600E+02
     49.548  0.0000E+00  0.9600E+02
