    2    2    1    1
  0.2390996E+02  0.4074190E-09  0.4074190E-09  0.4074190E-09  0.5000000E-15
  1.000000000000000E-004
  CAR 
 Ge                                      
     28     29     48
 
  0.0000000E+00  0.0000000E+00  0.0000000E+00  0.1953125E-02
      1        -20.264245   1.000000
      2        -20.264230   1.000000
      3        -20.264230   1.000000
      4        -20.232583   1.000000
      5        -20.232583   1.000000
      6        -20.049530   1.000000
      7        -20.049516   1.000000
      8        -20.049516   1.000000
      9        -20.040568   1.000000
     10        -20.040568   1.000000
     11         -7.892784   1.000000
     12          4.019305   1.000000
     13          4.474536   0.415739
     14          4.474536   0.415739
     15          4.474629   0.414711
     16          7.003064   0.000000
     17          7.003064   0.000000
     18          7.003127   0.000000
     19         10.770762   0.000000
     20         13.813278   0.000000
     21         13.813278   0.000000
     22         15.142079   0.000000
     23         15.142123   0.000000
     24         15.142123   0.000000
     25         18.061130   0.000000
     26         28.622493   0.000000
     27         28.622510   0.000000
     28         28.622510   0.000000
     29         29.875271   0.000000
     30         29.875443   0.000000
     31         29.875443   0.000000
     32         30.095114   0.000000
     33         30.095153   0.000000
     34         30.095153   0.000000
     35         31.172324   0.000000
     36         31.172324   0.000000
     37         37.545412   0.000000
     38         41.955318   0.000000
     39         42.556504   0.000000
     40         42.556593   0.000000
     41         42.556593   0.000000
     42         42.779552   0.000000
     43         42.779588   0.000000
     44         42.779588   0.000000
     45         43.868686   0.000000
     46         43.868702   0.000000
     47         43.868702   0.000000
     48         43.916005   0.000000
 
  0.1250000E+00  0.1438924E-17  0.0000000E+00  0.1562500E-01
      1        -20.271018   1.000000
      2        -20.271003   1.000000
      3        -20.261860   1.000000
      4        -20.222982   1.000000
      5        -20.222980   1.000000
      6        -20.060944   1.000000
      7        -20.060941   1.000000
      8        -20.052037   1.000000
      9        -20.030847   1.000000
     10        -20.030836   1.000000
     11         -7.712359   1.000000
     12          2.029864   1.000000
     13          4.163487   1.000000
     14          4.163576   1.000000
     15          5.278464   0.000000
     16          7.423396   0.000000
     17          7.423435   0.000000
     18          7.804534   0.000000
     19         11.659070   0.000000
     20         12.972224   0.000000
     21         12.972225   0.000000
     22         14.484169   0.000000
     23         16.677617   0.000000
     24         16.677646   0.000000
     25         19.425267   0.000000
     26         25.725453   0.000000
     27         25.836645   0.000000
     28         25.836703   0.000000
     29         29.214690   0.000000
     30         29.214731   0.000000
     31         30.029323   0.000000
     32         30.768161   0.000000
     33         30.768232   0.000000
     34         32.385507   0.000000
     35         34.664796   0.000000
     36         34.664871   0.000000
     37         37.421270   0.000000
     38         38.873670   0.000000
     39         38.873674   0.000000
     40         39.086298   0.000000
     41         40.575880   0.000000
     42         40.575914   0.000000
     43         41.043912   0.000000
     44         41.345384   0.000000
     45         41.345410   0.000000
     46         41.642214   0.000000
     47         43.052826   0.000000
     48         43.629221   0.000000
 
  0.2500000E+00  0.2877848E-17  0.0000000E+00  0.1562500E-01
      1        -20.279841   1.000000
      2        -20.279822   1.000000
      3        -20.256314   1.000000
      4        -20.208161   1.000000
      5        -20.208152   1.000000
      6        -20.073383   1.000000
      7        -20.073379   1.000000
      8        -20.058097   1.000000
      9        -20.021495   1.000000
     10        -20.021476   1.000000
     11         -7.190190   1.000000
     12         -0.183328   1.000000
     13          3.647980   1.000000
     14          3.648078   1.000000
     15          4.968978   0.000000
     16          8.036478   0.000000
     17          8.036482   0.000000
     18          9.803509   0.000000
     19         12.396191   0.000000
     20         12.722572   0.000000
     21         12.722602   0.000000
     22         15.102733   0.000000
     23         19.215997   0.000000
     24         19.216025   0.000000
     25         21.955700   0.000000
     26         22.215497   0.000000
     27         22.215566   0.000000
     28         22.557486   0.000000
     29         29.710430   0.000000
     30         29.710462   0.000000
     31         30.455596   0.000000
     32         31.214729   0.000000
     33         31.214806   0.000000
     34         32.690070   0.000000
     35         34.222797   0.000000
     36         34.222799   0.000000
     37         34.233122   0.000000
     38         38.224636   0.000000
     39         38.224646   0.000000
     40         38.492361   0.000000
     41         38.576338   0.000000
     42         38.576373   0.000000
     43         39.212501   0.000000
     44         39.633301   0.000000
     45         39.667019   0.000000
     46         39.667065   0.000000
     47         42.416102   0.000000
     48         43.367882   0.000000
 
  0.3750000E+00 -0.1283373E-16  0.0000000E+00  0.1562500E-01
      1        -20.284202   1.000000
      2        -20.284180   1.000000
      3        -20.250789   1.000000
      4        -20.198881   1.000000
      5        -20.198868   1.000000
      6        -20.079922   1.000000
      7        -20.079912   1.000000
      8        -20.064623   1.000000
      9        -20.016466   1.000000
     10        -20.016441   1.000000
     11         -6.431222   1.000000
     12         -2.019237   1.000000
     13          3.279981   1.000000
     14          3.280085   1.000000
     15          4.623871   0.000005
     16          8.210563   0.000000
     17          8.210604   0.000000
     18         11.613339   0.000000
     19         12.465442   0.000000
     20         13.814231   0.000000
     21         13.814289   0.000000
     22         16.656899   0.000000
     23         18.910499   0.000000
     24         18.910562   0.000000
     25         20.692393   0.000000
     26         22.357260   0.000000
     27         22.357277   0.000000
     28         25.434266   0.000000
     29         28.225288   0.000000
     30         29.833845   0.000000
     31         29.833847   0.000000
     32         30.407745   0.000000
     33         30.407757   0.000000
     34         31.003716   0.000000
     35         31.858391   0.000000
     36         31.858469   0.000000
     37         33.571236   0.000000
     38         35.885317   0.000000
     39         36.446184   0.000000
     40         36.446247   0.000000
     41         36.815349   0.000000
     42         36.815374   0.000000
     43         37.442143   0.000000
     44         38.218003   0.000000
     45         41.920822   0.000000
     46         43.246949   0.000000
     47         43.246961   0.000000
     48         44.539675   0.000000
 
  0.5000000E+00  0.5755696E-17  0.0000000E+00  0.7812500E-02
      1        -20.285526   1.000000
      2        -20.285502   1.000000
      3        -20.248370   1.000000
      4        -20.196187   1.000000
      5        -20.196172   1.000000
      6        -20.081583   1.000000
      7        -20.081571   1.000000
      8        -20.067456   1.000000
      9        -20.015163   1.000000
     10        -20.015134   1.000000
     11         -5.934718   1.000000
     12         -2.882794   1.000000
     13          3.151585   1.000000
     14          3.151692   1.000000
     15          4.498254   0.188444
     16          8.191239   0.000000
     17          8.191290   0.000000
     18         11.574846   0.000000
     19         14.699247   0.000000
     20         14.917723   0.000000
     21         15.413741   0.000000
     22         15.413803   0.000000
     23         16.691052   0.000000
     24         16.691121   0.000000
     25         22.674049   0.000000
     26         24.643004   0.000000
     27         25.535579   0.000000
     28         25.535642   0.000000
     29         26.231994   0.000000
     30         26.232034   0.000000
     31         29.208996   0.000000
     32         29.768516   0.000000
     33         30.790490   0.000000
     34         30.790500   0.000000
     35         31.293600   0.000000
     36         32.195959   0.000000
     37         32.196042   0.000000
     38         35.727426   0.000000
     39         35.727535   0.000000
     40         36.001174   0.000000
     41         36.001232   0.000000
     42         36.641384   0.000000
     43         36.742999   0.000000
     44         37.056826   0.000000
     45         41.730820   0.000000
     46         43.478908   0.000000
     47         43.478935   0.000000
     48         44.089512   0.000000
 
  0.1250000E+00  0.1250000E+00  0.0000000E+00  0.1171875E-01
      1        -20.270219   1.000000
      2        -20.269085   1.000000
      3        -20.269075   1.000000
      4        -20.224942   1.000000
      5        -20.212478   1.000000
      6        -20.079844   1.000000
      7        -20.047527   1.000000
      8        -20.042119   1.000000
      9        -20.042109   1.000000
     10        -20.027076   1.000000
     11         -7.651180   1.000000
     12          1.944219   1.000000
     13          3.663887   1.000000
     14          3.663942   1.000000
     15          6.386481   0.000000
     16          6.401524   0.000000
     17          8.119798   0.000000
     18          8.119849   0.000000
     19         11.820056   0.000000
     20         11.938551   0.000000
     21         14.070997   0.000000
     22         15.652375   0.000000
     23         15.652405   0.000000
     24         16.451648   0.000000
     25         20.209548   0.000000
     26         25.385663   0.000000
     27         25.385677   0.000000
     28         26.347157   0.000000
     29         26.557357   0.000000
     30         29.601840   0.000000
     31         29.601883   0.000000
     32         30.336306   0.000000
     33         32.664372   0.000000
     34         34.329617   0.000000
     35         34.329634   0.000000
     36         34.973213   0.000000
     37         37.197583   0.000000
     38         37.726250   0.000000
     39         37.726285   0.000000
     40         38.785450   0.000000
     41         39.532984   0.000000
     42         40.513872   0.000000
     43         40.895079   0.000000
     44         40.895134   0.000000
     45         42.102907   0.000000
     46         42.102936   0.000000
     47         42.463539   0.000000
     48         42.754060   0.000000
 
  0.2500000E+00  0.1250000E+00  0.0000000E+00  0.4687500E-01
      1        -20.282290   1.000000
      2        -20.276257   1.000000
      3        -20.261024   1.000000
      4        -20.212961   1.000000
      5        -20.195186   1.000000
      6        -20.097519   1.000000
      7        -20.061674   1.000000
      8        -20.045164   1.000000
      9        -20.029500   1.000000
     10        -20.018515   1.000000
     11         -7.238149   1.000000
     12          0.285770   1.000000
     13          3.036472   1.000000
     14          3.133382   1.000000
     15          6.292877   0.000000
     16          6.929647   0.000000
     17          8.914264   0.000000
     18          9.203416   0.000000
     19         11.644282   0.000000
     20         13.216254   0.000000
     21         13.880658   0.000000
     22         15.355112   0.000000
     23         17.445181   0.000000
     24         18.672546   0.000000
     25         22.093560   0.000000
     26         22.188595   0.000000
     27         22.587660   0.000000
     28         25.547802   0.000000
     29         26.451348   0.000000
     30         27.372250   0.000000
     31         30.006640   0.000000
     32         31.947871   0.000000
     33         32.997003   0.000000
     34         34.937149   0.000000
     35         35.110730   0.000000
     36         35.151438   0.000000
     37         35.228455   0.000000
     38         36.097654   0.000000
     39         36.841411   0.000000
     40         37.379912   0.000000
     41         37.621026   0.000000
     42         39.042409   0.000000
     43         39.624665   0.000000
     44         39.783589   0.000000
     45         40.760021   0.000000
     46         41.529158   0.000000
     47         42.712654   0.000000
     48         42.862718   0.000000
 
  0.3750000E+00  0.1250000E+00  0.0000000E+00  0.4687500E-01
      1        -20.291743   1.000000
      2        -20.282835   1.000000
      3        -20.248150   1.000000
      4        -20.199655   1.000000
      5        -20.184398   1.000000
      6        -20.105192   1.000000
      7        -20.075235   1.000000
      8        -20.059043   1.000000
      9        -20.019385   1.000000
     10        -20.008790   1.000000
     11         -6.534081   1.000000
     12         -1.537224   1.000000
     13          2.379830   1.000000
     14          2.832014   1.000000
     15          5.958350   0.000000
     16          7.701321   0.000000
     17          9.114646   0.000000
     18          9.988615   0.000000
     19         13.079802   0.000000
     20         13.598665   0.000000
     21         14.626290   0.000000
     22         16.436174   0.000000
     23         18.707679   0.000000
     24         19.760800   0.000000
     25         20.304078   0.000000
     26         21.760449   0.000000
     27         22.772588   0.000000
     28         25.645885   0.000000
     29         27.016379   0.000000
     30         27.448455   0.000000
     31         28.489301   0.000000
     32         30.627905   0.000000
     33         31.021357   0.000000
     34         32.590219   0.000000
     35         32.808754   0.000000
     36         33.441464   0.000000
     37         33.572302   0.000000
     38         35.500880   0.000000
     39         35.889616   0.000000
     40         36.880731   0.000000
     41         37.314763   0.000000
     42         37.669467   0.000000
     43         38.335289   0.000000
     44         40.835301   0.000000
     45         41.400477   0.000000
     46         41.976895   0.000000
     47         42.192078   0.000000
     48         42.586171   0.000000
 
  0.5000000E+00  0.1250000E+00  0.0000000E+00  0.4687500E-01
      1        -20.295850   1.000000
      2        -20.287315   1.000000
      3        -20.237294   1.000000
      4        -20.189576   1.000000
      5        -20.186167   1.000000
      6        -20.098709   1.000000
      7        -20.086707   1.000000
      8        -20.072653   1.000000
      9        -20.012908   1.000000
     10        -20.004599   1.000000
     11         -5.839483   1.000000
     12         -2.782166   1.000000
     13          1.944763   1.000000
     14          2.825612   1.000000
     15          5.728518   0.000000
     16          7.984416   0.000000
     17          8.875504   0.000000
     18         11.485676   0.000000
     19         13.257351   0.000000
     20         14.964041   0.000000
     21         15.416866   0.000000
     22         15.716998   0.000000
     23         16.999259   0.000000
     24         19.403490   0.000000
     25         22.079832   0.000000
     26         23.559493   0.000000
     27         24.386160   0.000000
     28         25.452485   0.000000
     29         26.673126   0.000000
     30         27.474715   0.000000
     31         28.024323   0.000000
     32         28.743270   0.000000
     33         29.285784   0.000000
     34         31.114039   0.000000
     35         31.677005   0.000000
     36         32.098116   0.000000
     37         32.171497   0.000000
     38         33.591189   0.000000
     39         35.912098   0.000000
     40         36.285521   0.000000
     41         36.337250   0.000000
     42         37.829477   0.000000
     43         38.622890   0.000000
     44         40.220730   0.000000
     45         40.829665   0.000000
     46         41.336065   0.000000
     47         41.762429   0.000000
     48         46.221118   0.000000
 
 -0.3750000E+00  0.1250000E+00  0.0000000E+00  0.4687500E-01
      1        -20.293594   1.000000
      2        -20.289311   1.000000
      3        -20.235901   1.000000
      4        -20.195434   1.000000
      5        -20.184680   1.000000
      6        -20.094243   1.000000
      7        -20.081979   1.000000
      8        -20.079173   1.000000
      9        -20.009784   1.000000
     10        -20.007776   1.000000
     11         -6.028919   1.000000
     12         -2.476749   1.000000
     13          1.818739   1.000000
     14          3.105437   1.000000
     15          5.730302   0.000000
     16          8.219260   0.000000
     17          8.587954   0.000000
     18         11.614586   0.000000
     19         13.167916   0.000000
     20         13.349873   0.000000
     21         15.006635   0.000000
     22         16.540385   0.000000
     23         18.441163   0.000000
     24         19.409117   0.000000
     25         20.812702   0.000000
     26         22.606315   0.000000
     27         24.937441   0.000000
     28         26.186415   0.000000
     29         27.255724   0.000000
     30         27.449477   0.000000
     31         27.513542   0.000000
     32         28.248277   0.000000
     33         29.752094   0.000000
     34         30.936205   0.000000
     35         32.178650   0.000000
     36         32.410356   0.000000
     37         32.890808   0.000000
     38         33.899315   0.000000
     39         35.980366   0.000000
     40         36.580071   0.000000
     41         36.608887   0.000000
     42         38.172867   0.000000
     43         38.721837   0.000000
     44         39.894886   0.000000
     45         40.780085   0.000000
     46         40.950960   0.000000
     47         42.066335   0.000000
     48         45.195374   0.000000
 
 -0.2500000E+00  0.1250000E+00  0.0000000E+00  0.4687500E-01
      1        -20.287694   1.000000
      2        -20.285812   1.000000
      3        -20.245679   1.000000
      4        -20.205667   1.000000
      5        -20.190550   1.000000
      6        -20.091876   1.000000
      7        -20.078196   1.000000
      8        -20.060757   1.000000
      9        -20.018360   1.000000
     10        -20.011617   1.000000
     11         -6.797343   1.000000
     12         -0.957001   1.000000
     13          2.068090   1.000000
     14          3.602078   1.000000
     15          5.925175   0.000000
     16          8.178149   0.000000
     17          8.353661   0.000000
     18          9.980262   0.000000
     19         12.027338   0.000000
     20         13.193455   0.000000
     21         14.573487   0.000000
     22         16.098484   0.000000
     23         18.756460   0.000000
     24         19.018376   0.000000
     25         21.598799   0.000000
     26         22.403223   0.000000
     27         22.670602   0.000000
     28         24.187968   0.000000
     29         26.720671   0.000000
     30         27.433954   0.000000
     31         30.322886   0.000000
     32         30.681990   0.000000
     33         31.555578   0.000000
     34         32.479011   0.000000
     35         33.416646   0.000000
     36         33.979092   0.000000
     37         34.645251   0.000000
     38         35.463881   0.000000
     39         36.500501   0.000000
     40         37.706655   0.000000
     41         38.246797   0.000000
     42         38.720150   0.000000
     43         39.058099   0.000000
     44         39.837124   0.000000
     45         40.340324   0.000000
     46         40.744909   0.000000
     47         41.809767   0.000000
     48         42.300587   0.000000
 
 -0.1250000E+00  0.1250000E+00  0.0000000E+00  0.2343750E-01
      1        -20.280726   1.000000
      2        -20.274796   1.000000
      3        -20.258247   1.000000
      4        -20.216555   1.000000
      5        -20.206782   1.000000
      6        -20.078714   1.000000
      7        -20.069564   1.000000
      8        -20.043505   1.000000
      9        -20.034160   1.000000
     10        -20.018876   1.000000
     11         -7.415930   1.000000
     12          0.805112   1.000000
     13          2.853736   1.000000
     14          4.112705   1.000000
     15          5.959783   0.000000
     16          7.547517   0.000000
     17          7.666914   0.000000
     18          9.071141   0.000000
     19         12.001754   0.000000
     20         12.745411   0.000000
     21         12.982872   0.000000
     22         15.642044   0.000000
     23         16.289846   0.000000
     24         18.908351   0.000000
     25         21.213954   0.000000
     26         22.035929   0.000000
     27         25.143814   0.000000
     28         25.946624   0.000000
     29         26.346040   0.000000
     30         27.479793   0.000000
     31         29.802095   0.000000
     32         31.780546   0.000000
     33         34.515821   0.000000
     34         34.580164   0.000000
     35         35.030265   0.000000
     36         35.240853   0.000000
     37         35.840578   0.000000
     38         36.064291   0.000000
     39         36.755914   0.000000
     40         37.595756   0.000000
     41         39.123310   0.000000
     42         39.342725   0.000000
     43         39.933267   0.000000
     44         40.460686   0.000000
     45         40.865502   0.000000
     46         41.044919   0.000000
     47         41.080566   0.000000
     48         43.853394   0.000000
 
  0.2500000E+00  0.2500000E+00  0.0000000E+00  0.1171875E-01
      1        -20.280106   1.000000
      2        -20.280096   1.000000
      3        -20.268588   1.000000
      4        -20.203466   1.000000
      5        -20.173055   1.000000
      6        -20.124932   1.000000
      7        -20.067664   1.000000
      8        -20.028994   1.000000
      9        -20.025106   1.000000
     10        -20.025096   1.000000
     11         -6.934649   1.000000
     12         -0.264490   1.000000
     13          2.568833   1.000000
     14          2.568881   1.000000
     15          5.538169   0.000000
     16          7.074538   0.000000
     17         10.099917   0.000000
     18         10.099978   0.000000
     19         11.332619   0.000000
     20         14.338716   0.000000
     21         14.845466   0.000000
     22         17.197579   0.000000
     23         17.197609   0.000000
     24         17.900987   0.000000
     25         21.754939   0.000000
     26         21.754955   0.000000
     27         23.177335   0.000000
     28         23.323443   0.000000
     29         24.683599   0.000000
     30         30.343053   0.000000
     31         30.343098   0.000000
     32         31.074501   0.000000
     33         32.043602   0.000000
     34         32.357398   0.000000
     35         32.357427   0.000000
     36         33.159051   0.000000
     37         34.351109   0.000000
     38         38.071793   0.000000
     39         38.390309   0.000000
     40         38.390353   0.000000
     41         39.609215   0.000000
     42         39.609254   0.000000
     43         39.768265   0.000000
     44         40.527845   0.000000
     45         40.527885   0.000000
     46         41.466285   0.000000
     47         41.574817   0.000000
     48         41.902221   0.000000
 
  0.3750000E+00  0.2500000E+00  0.0000000E+00  0.4687500E-01
      1        -20.292447   1.000000
      2        -20.285906   1.000000
      3        -20.252200   1.000000
      4        -20.188261   1.000000
      5        -20.155782   1.000000
      6        -20.142578   1.000000
      7        -20.082887   1.000000
      8        -20.048674   1.000000
      9        -20.015664   1.000000
     10        -20.008313   1.000000
     11         -6.311758   1.000000
     12         -1.541404   1.000000
     13          1.795804   1.000000
     14          2.236552   1.000000
     15          5.775480   0.000000
     16          7.084621   0.000000
     17         10.055903   0.000000
     18         10.718198   0.000000
     19         13.332999   0.000000
     20         15.177697   0.000000
     21         15.512495   0.000000
     22         17.263828   0.000000
     23         18.803568   0.000000
     24         19.198756   0.000000
     25         19.567359   0.000000
     26         20.657381   0.000000
     27         23.163678   0.000000
     28         23.170320   0.000000
     29         27.013738   0.000000
     30         27.680690   0.000000
     31         28.327000   0.000000
     32         30.054615   0.000000
     33         30.384691   0.000000
     34         30.927228   0.000000
     35         32.153988   0.000000
     36         33.031754   0.000000
     37         34.006908   0.000000
     38         36.180007   0.000000
     39         36.702692   0.000000
     40         37.415775   0.000000
     41         38.636919   0.000000
     42         39.287392   0.000000
     43         39.521184   0.000000
     44         40.094850   0.000000
     45         40.950008   0.000000
     46         41.685971   0.000000
     47         42.971930   0.000000
     48         44.374785   0.000000
 
  0.5000000E+00  0.2500000E+00  0.0000000E+00  0.4687500E-01
      1        -20.303514   1.000000
      2        -20.290608   1.000000
      3        -20.230736   1.000000
      4        -20.173330   1.000000
      5        -20.156094   1.000000
      6        -20.139734   1.000000
      7        -20.099529   1.000000
      8        -20.071762   1.000000
      9        -20.008284   1.000000
     10        -19.995999   1.000000
     11         -5.534181   1.000000
     12         -2.763729   1.000000
     13          0.971761   1.000000
     14          2.220606   1.000000
     15          5.890639   0.000000
     16          8.512311   0.000000
     17          9.791799   0.000000
     18         10.515965   0.000000
     19         14.147027   0.000000
     20         15.581527   0.000000
     21         15.770406   0.000000
     22         16.504692   0.000000
     23         17.625176   0.000000
     24         20.887824   0.000000
     25         22.010153   0.000000
     26         22.773667   0.000000
     27         23.724770   0.000000
     28         23.731069   0.000000
     29         24.238995   0.000000
     30         25.865498   0.000000
     31         28.122180   0.000000
     32         28.484773   0.000000
     33         29.306537   0.000000
     34         30.979045   0.000000
     35         31.465942   0.000000
     36         32.077055   0.000000
     37         32.549638   0.000000
     38         34.043464   0.000000
     39         34.890170   0.000000
     40         36.318900   0.000000
     41         37.230466   0.000000
     42         38.978914   0.000000
     43         39.791777   0.000000
     44         40.653845   0.000000
     45         41.651790   0.000000
     46         42.639770   0.000000
     47         44.171090   0.000000
     48         45.530131   0.000000
 
 -0.3750000E+00  0.2500000E+00  0.0000000E+00  0.4687500E-01
      1        -20.306302   1.000000
      2        -20.293521   1.000000
      3        -20.219833   1.000000
      4        -20.171251   1.000000
      5        -20.163570   1.000000
      6        -20.120979   1.000000
      7        -20.112399   1.000000
      8        -20.083412   1.000000
      9        -20.004479   1.000000
     10        -19.993317   1.000000
     11         -5.386647   1.000000
     12         -2.957164   1.000000
     13          0.577278   1.000000
     14          2.520949   1.000000
     15          6.057683   0.000000
     16          9.304579   0.000000
     17          9.990482   0.000000
     18         11.008109   0.000000
     19         12.004921   0.000000
     20         13.357810   0.000000
     21         16.056597   0.000000
     22         17.984670   0.000000
     23         20.065376   0.000000
     24         20.240523   0.000000
     25         21.016432   0.000000
     26         23.626284   0.000000
     27         23.766295   0.000000
     28         24.932041   0.000000
     29         25.493473   0.000000
     30         25.551957   0.000000
     31         27.868594   0.000000
     32         28.041879   0.000000
     33         28.673009   0.000000
     34         29.161537   0.000000
     35         30.763736   0.000000
     36         31.439867   0.000000
     37         32.965066   0.000000
     38         33.699687   0.000000
     39         35.327048   0.000000
     40         36.496121   0.000000
     41         37.127756   0.000000
     42         38.591853   0.000000
     43         39.010368   0.000000
     44         40.804813   0.000000
     45         41.118412   0.000000
     46         42.852997   0.000000
     47         45.321267   0.000000
     48         45.358722   0.000000
 
 -0.2500000E+00  0.2500000E+00  0.0000000E+00  0.2343750E-01
      1        -20.299365   1.000000
      2        -20.292930   1.000000
      3        -20.225741   1.000000
      4        -20.194240   1.000000
      5        -20.170929   1.000000
      6        -20.108882   1.000000
      7        -20.090845   1.000000
      8        -20.081639   1.000000