 DBCSR| CPU Multiplication driver                                           BLAS (U)
 DBCSR| Multrec recursion limit                                              512 (U)
 DBCSR| Multiplication stack size                                           1000 (D)
 DBCSR| Maximum elements for images                                    UNLIMITED (U)
 DBCSR| Multiplicative factor virtual images                                   1 (U)
 DBCSR| Use multiplication densification                                       T (D)
 DBCSR| Multiplication size stacks                                             3 (U)
 DBCSR| Use memory pool for CPU allocation                                     F (U)
 DBCSR| Number of 3D layers                                               SINGLE (U)
 DBCSR| Use MPI memory allocation                                              F (U)
 DBCSR| Use RMA algorithm                                                      F (U)
 DBCSR| Use Communication thread                                               T (U)
 DBCSR| Communication thread load                                             45 (D)
 DBCSR| MPI: My process id                                                     0
 DBCSR| MPI: Number of processes                                              16
 DBCSR| OMP: Current number of threads                                        12
 DBCSR| OMP: Max number of threads                                            12
 DBCSR| Split modifier for TAS multiplication algorithm                  1.0E+00 (U)


  **** **** ******  **  PROGRAM STARTED AT               2025-08-05 19:05:16.070
 ***** ** ***  *** **   PROGRAM STARTED ON                          i01r11c05s08
 **    ****   ******    PROGRAM STARTED BY                               di38fab
 ***** **    ** ** **   PROGRAM PROCESS ID                                110624
  **** **  *******  **  PROGRAM STARTED IN /hppfs/scratch/04/di38fab/09_GTH/Delt
                                           a_Set/Zn/aug-TZVP-MOLOPT-GTH-tier-2/8
                                           x8x8

 CP2K| version string:                 CP2K version 2025.1 (Development Version)
 CP2K| source code revision number:                                  git:3130539
 CP2K| cp2kflags: omp libint fftw3 libxc parallel scalapack max_contr=4         
 CP2K| is freely available from                            https://www.cp2k.org/
 CP2K| Program compiled at                         Tue Jun  3 16:14:32 CEST 2025
 CP2K| Program compiled on                                               login01
 CP2K| Program compiled for                                        Supermuc-foss
 CP2K| Data directory path                  /hppfs/work/pn36zo/di38fab/cp2k/data
 CP2K| Input file name                                                    GW.inp

 GLOBAL| Force Environment number                                              1
 GLOBAL| Basis set file name            /hppfs/scratch/04/di38fab/09_GTH/BASIS_A
 GLOBAL| Potential file name            /hppfs/work/pn36zo/di38fab/cp2k/data/GTH
 GLOBAL| MM Potential file name                                     MM_POTENTIAL
 GLOBAL| Coordinate file name                                             Zn.cif
 GLOBAL| Method name                                                        CP2K
 GLOBAL| Project name                                                       WSe2
 GLOBAL| Run type                                                         ENERGY
 GLOBAL| FFT library                                                       FFTW3
 GLOBAL| Diagonalization library                                       ScaLAPACK
 GLOBAL| Cholesky decomposition library                                ScaLAPACK
 GLOBAL| DGEMM library                                                      BLAS
 GLOBAL| Orthonormality check for eigenvectors                          DISABLED
 GLOBAL| Matrix multiplication library                                 ScaLAPACK
 GLOBAL| All-to-all communication in single precision                          F
 GLOBAL| FFTs using library dependent lengths                                  F
 GLOBAL| Grid backend                                                       AUTO
 GLOBAL| Global print level                                               MEDIUM
 GLOBAL| MPI I/O enabled                                                       T
 GLOBAL| Total number of message passing processes                            16
 GLOBAL| Number of threads for this process                                   12
 GLOBAL| This output is from process                                           0
 GLOBAL| OpenMP stack size per thread (OMP_STACKSIZE)                    default
 GLOBAL| CPU model name             Intel(R) Xeon(R) Platinum 8174 CPU @ 3.10GHz

 MEMORY| system memory details [Kb]
 MEMORY|                        rank 0           min           max       average
 MEMORY| MemTotal             98436664      98436660      98436664      98436663
 MEMORY| MemFree              84658660      84598008      84759752      84660169
 MEMORY| Buffers                     0             0             0             0
 MEMORY| Cached                2373908       2373908       2389860       2379163
 MEMORY| Slab                  1309372       1280660       1323860       1298673
 MEMORY| SReclaimable           281208        268392        284028        279265
 MEMORY| MemLikelyFree        87313776      87271300      87402164      87318597


 *** Fundamental physical constants (SI units) ***

 *** Literature: B. J. Mohr and B. N. Taylor,
 ***             CODATA recommended values of the fundamental physical
 ***             constants: 2006, Web Version 5.1
 ***             http://physics.nist.gov/constants

 Speed of light in vacuum [m/s]                             2.99792458000000E+08
 Magnetic constant or permeability of vacuum [N/A**2]       1.25663706143592E-06
 Electric constant or permittivity of vacuum [F/m]          8.85418781762039E-12
 Planck constant (h) [J*s]                                  6.62606896000000E-34
 Planck constant (h-bar) [J*s]                              1.05457162825177E-34
 Elementary charge [C]                                      1.60217648700000E-19
 Electron mass [kg]                                         9.10938215000000E-31
 Electron g factor [ ]                                     -2.00231930436220E+00
 Proton mass [kg]                                           1.67262163700000E-27
 Fine-structure constant                                    7.29735253760000E-03
 Rydberg constant [1/m]                                     1.09737315685270E+07
 Avogadro constant [1/mol]                                  6.02214179000000E+23
 Boltzmann constant [J/K]                                   1.38065040000000E-23
 Atomic mass unit [kg]                                      1.66053878200000E-27
 Bohr radius [m]                                            5.29177208590000E-11

 *** Conversion factors ***

 [u] -> [a.u.]                                              1.82288848426455E+03
 [Angstrom] -> [Bohr] = [a.u.]                              1.88972613288564E+00
 [a.u.] = [Bohr] -> [Angstrom]                              5.29177208590000E-01
 [a.u.] -> [s]                                              2.41888432650478E-17
 [a.u.] -> [fs]                                             2.41888432650478E-02
 [a.u.] -> [J]                                              4.35974393937059E-18
 [a.u.] -> [N]                                              8.23872205491840E-08
 [a.u.] -> [K]                                              3.15774647902944E+05
 [a.u.] -> [kJ/mol]                                         2.62549961709828E+03
 [a.u.] -> [kcal/mol]                                       6.27509468713739E+02
 [a.u.] -> [Pa]                                             2.94210107994716E+13
 [a.u.] -> [bar]                                            2.94210107994716E+08
 [a.u.] -> [atm]                                            2.90362800883016E+08
 [a.u.] -> [eV]                                             2.72113838565563E+01
 [a.u.] -> [Hz]                                             6.57968392072181E+15
 [a.u.] -> [1/cm] (wave numbers)                            2.19474631370540E+05
 [a.u./Bohr**2] -> [1/cm]                                   5.14048714338585E+03
 

 CELL_TOP| Volume [angstrom^3]:                                        30.701548
 CELL_TOP| Vector a [angstrom     2.662     0.000     0.000   |a| =     2.661690
 CELL_TOP| Vector b [angstrom     1.331     2.305     0.000   |b| =     2.661690
 CELL_TOP| Vector c [angstrom     0.000     0.000     5.004   |c| =     5.003970
 CELL_TOP| Angle (b,c), alpha [degree]:                                90.000000
 CELL_TOP| Angle (a,c), beta  [degree]:                                90.000000
 CELL_TOP| Angle (a,b), gamma [degree]:                                60.000000
 CELL_TOP| Numerically orthorhombic:                                          NO
 CELL_TOP| Periodicity                                                       XYZ

 CELL_CIF| Volume [angstrom^3]:                                        30.701548
 CELL_CIF| Vector a [angstrom     2.662     0.000     0.000   |a| =     2.661690
 CELL_CIF| Vector b [angstrom     1.331     2.305     0.000   |b| =     2.661690
 CELL_CIF| Vector c [angstrom     0.000     0.000     5.004   |c| =     5.003970
 CELL_CIF| Angle (b,c), alpha [degree]:                                90.000000
 CELL_CIF| Angle (a,c), beta  [degree]:                                90.000000
 CELL_CIF| Angle (a,b), gamma [degree]:                                60.000000
 CELL_CIF| Numerically orthorhombic:                                          NO
 CELL_CIF| Periodicity                                                       XYZ

 GENERATE|  Preliminary Number of Bonds generated:                             0
 GENERATE|  Achieved consistency in connectivity generation.

 CELL| Volume [angstrom^3]:                                            30.701548
 CELL| Vector a [angstrom]:       2.662     0.000     0.000   |a| =     2.661690
 CELL| Vector b [angstrom]:       1.331     2.305     0.000   |b| =     2.661690
 CELL| Vector c [angstrom]:       0.000     0.000     5.004   |c| =     5.003970
 CELL| Angle (b,c), alpha [degree]:                                    90.000000
 CELL| Angle (a,c), beta  [degree]:                                    90.000000
 CELL| Angle (a,b), gamma [degree]:                                    60.000000
 CELL| Numerically orthorhombic:                                              NO
 CELL| Periodicity                                                           XYZ

 CELL_REF| Volume [angstrom^3]:                                        30.701548
 CELL_REF| Vector a [angstrom     2.662     0.000     0.000   |a| =     2.661690
 CELL_REF| Vector b [angstrom     1.331     2.305     0.000   |b| =     2.661690
 CELL_REF| Vector c [angstrom     0.000     0.000     5.004   |c| =     5.003970
 CELL_REF| Angle (b,c), alpha [degree]:                                90.000000
 CELL_REF| Angle (a,c), beta  [degree]:                                90.000000
 CELL_REF| Angle (a,b), gamma [degree]:                                60.000000
 CELL_REF| Numerically orthorhombic:                                          NO
 CELL_REF| Periodicity                                                       XYZ

 *** WARNING in cryssym.F:180 :: Symmetry library SPGLIB not available ***


 *******************************************************************************
                                    Kpoints
 *******************************************************************************
 BRILLOUIN| K-point scheme                                        Monkhorst-Pack
 BRILLOUIN| K-Point grid                                             8    8    8
 BRILLOUIN| Accuracy in Symmetry determination                      0.100000E-05
 BRILLOUIN| K-Point point group symmetrization                               OFF
 BRILLOUIN| Wavefunction type                                            COMPLEX
 BRILLOUIN| List of Kpoints [2 Pi/Bohr]                                      256
 BRILLOUIN| Number           Weight            X              Y              Z
 BRILLOUIN|     1           0.00391       -0.43750       -0.43750       -0.43750
 BRILLOUIN|     2           0.00391       -0.43750       -0.43750       -0.31250
 BRILLOUIN|     3           0.00391       -0.43750       -0.43750       -0.18750
 BRILLOUIN|     4           0.00391       -0.43750       -0.43750       -0.06250
 BRILLOUIN|     5           0.00391       -0.43750       -0.43750        0.06250
 BRILLOUIN|     6           0.00391       -0.43750       -0.43750        0.18750
 BRILLOUIN|     7           0.00391       -0.43750       -0.43750        0.31250
 BRILLOUIN|     8           0.00391       -0.43750       -0.43750        0.43750
 BRILLOUIN|     9           0.00391       -0.43750       -0.31250       -0.43750
 BRILLOUIN|    10           0.00391       -0.43750       -0.31250       -0.31250
 BRILLOUIN|    11           0.00391       -0.43750       -0.31250       -0.18750
 BRILLOUIN|    12           0.00391       -0.43750       -0.31250       -0.06250
 BRILLOUIN|    13           0.00391       -0.43750       -0.31250        0.06250
 BRILLOUIN|    14           0.00391       -0.43750       -0.31250        0.18750
 BRILLOUIN|    15           0.00391       -0.43750       -0.31250        0.31250
 BRILLOUIN|    16           0.00391       -0.43750       -0.31250        0.43750
 BRILLOUIN|    17           0.00391       -0.43750       -0.18750       -0.43750
 BRILLOUIN|    18           0.00391       -0.43750       -0.18750       -0.31250
 BRILLOUIN|    19           0.00391       -0.43750       -0.18750       -0.18750
 BRILLOUIN|    20           0.00391       -0.43750       -0.18750       -0.06250
 BRILLOUIN|    21           0.00391       -0.43750       -0.18750        0.06250
 BRILLOUIN|    22           0.00391       -0.43750       -0.18750        0.18750
 BRILLOUIN|    23           0.00391       -0.43750       -0.18750        0.31250
 BRILLOUIN|    24           0.00391       -0.43750       -0.18750        0.43750
 BRILLOUIN|    25           0.00391       -0.43750       -0.06250       -0.43750
 BRILLOUIN|    26           0.00391       -0.43750       -0.06250       -0.31250
 BRILLOUIN|    27           0.00391       -0.43750       -0.06250       -0.18750
 BRILLOUIN|    28           0.00391       -0.43750       -0.06250       -0.06250
 BRILLOUIN|    29           0.00391       -0.43750       -0.06250        0.06250
 BRILLOUIN|    30           0.00391       -0.43750       -0.06250        0.18750
 BRILLOUIN|    31           0.00391       -0.43750       -0.06250        0.31250
 BRILLOUIN|    32           0.00391       -0.43750       -0.06250        0.43750
 BRILLOUIN|    33           0.00391       -0.43750        0.06250       -0.43750
 BRILLOUIN|    34           0.00391       -0.43750        0.06250       -0.31250
 BRILLOUIN|    35           0.00391       -0.43750        0.06250       -0.18750
 BRILLOUIN|    36           0.00391       -0.43750        0.06250       -0.06250
 BRILLOUIN|    37           0.00391       -0.43750        0.06250        0.06250
 BRILLOUIN|    38           0.00391       -0.43750        0.06250        0.18750
 BRILLOUIN|    39           0.00391       -0.43750        0.06250        0.31250
 BRILLOUIN|    40           0.00391       -0.43750        0.06250        0.43750
 BRILLOUIN|    41           0.00391       -0.43750        0.18750       -0.43750
 BRILLOUIN|    42           0.00391       -0.43750        0.18750       -0.31250
 BRILLOUIN|    43           0.00391       -0.43750        0.18750       -0.18750
 BRILLOUIN|    44           0.00391       -0.43750        0.18750       -0.06250
 BRILLOUIN|    45           0.00391       -0.43750        0.18750        0.06250
 BRILLOUIN|    46           0.00391       -0.43750        0.18750        0.18750
 BRILLOUIN|    47           0.00391       -0.43750        0.18750        0.31250
 BRILLOUIN|    48           0.00391       -0.43750        0.18750        0.43750
 BRILLOUIN|    49           0.00391       -0.43750        0.31250       -0.43750
 BRILLOUIN|    50           0.00391       -0.43750        0.31250       -0.31250
 BRILLOUIN|    51           0.00391       -0.43750        0.31250       -0.18750
 BRILLOUIN|    52           0.00391       -0.43750        0.31250       -0.06250
 BRILLOUIN|    53           0.00391       -0.43750        0.31250        0.06250
 BRILLOUIN|    54           0.00391       -0.43750        0.31250        0.18750
 BRILLOUIN|    55           0.00391       -0.43750        0.31250        0.31250
 BRILLOUIN|    56           0.00391       -0.43750        0.31250        0.43750
 BRILLOUIN|    57           0.00391       -0.43750        0.43750       -0.43750
 BRILLOUIN|    58           0.00391       -0.43750        0.43750       -0.31250
 BRILLOUIN|    59           0.00391       -0.43750        0.43750       -0.18750
 BRILLOUIN|    60           0.00391       -0.43750        0.43750       -0.06250
 BRILLOUIN|    61           0.00391       -0.43750        0.43750        0.06250
 BRILLOUIN|    62           0.00391       -0.43750        0.43750        0.18750
 BRILLOUIN|    63           0.00391       -0.43750        0.43750        0.31250
 BRILLOUIN|    64           0.00391       -0.43750        0.43750        0.43750
 BRILLOUIN|    65           0.00391       -0.31250       -0.43750       -0.43750
 BRILLOUIN|    66           0.00391       -0.31250       -0.43750       -0.31250
 BRILLOUIN|    67           0.00391       -0.31250       -0.43750       -0.18750
 BRILLOUIN|    68           0.00391       -0.31250       -0.43750       -0.06250
 BRILLOUIN|    69           0.00391       -0.31250       -0.43750        0.06250
 BRILLOUIN|    70           0.00391       -0.31250       -0.43750        0.18750
 BRILLOUIN|    71           0.00391       -0.31250       -0.43750        0.31250
 BRILLOUIN|    72           0.00391       -0.31250       -0.43750        0.43750
 BRILLOUIN|    73           0.00391       -0.31250       -0.31250       -0.43750
 BRILLOUIN|    74           0.00391       -0.31250       -0.31250       -0.31250
 BRILLOUIN|    75           0.00391       -0.31250       -0.31250       -0.18750
 BRILLOUIN|    76           0.00391       -0.31250       -0.31250       -0.06250
 BRILLOUIN|    77           0.00391       -0.31250       -0.31250        0.06250
 BRILLOUIN|    78           0.00391       -0.31250       -0.31250        0.18750
 BRILLOUIN|    79           0.00391       -0.31250       -0.31250        0.31250
 BRILLOUIN|    80           0.00391       -0.31250       -0.31250        0.43750
 BRILLOUIN|    81           0.00391       -0.31250       -0.18750       -0.43750
 BRILLOUIN|    82           0.00391       -0.31250       -0.18750       -0.31250
 BRILLOUIN|    83           0.00391       -0.31250       -0.18750       -0.18750
 BRILLOUIN|    84           0.00391       -0.31250       -0.18750       -0.06250
 BRILLOUIN|    85           0.00391       -0.31250       -0.18750        0.06250
 BRILLOUIN|    86           0.00391       -0.31250       -0.18750        0.18750
 BRILLOUIN|    87           0.00391       -0.31250       -0.18750        0.31250
 BRILLOUIN|    88           0.00391       -0.31250       -0.18750        0.43750
 BRILLOUIN|    89           0.00391       -0.31250       -0.06250       -0.43750
 BRILLOUIN|    90           0.00391       -0.31250       -0.06250       -0.31250
 BRILLOUIN|    91           0.00391       -0.31250       -0.06250       -0.18750
 BRILLOUIN|    92           0.00391       -0.31250       -0.06250       -0.06250
 BRILLOUIN|    93           0.00391       -0.31250       -0.06250        0.06250
 BRILLOUIN|    94           0.00391       -0.31250       -0.06250        0.18750
 BRILLOUIN|    95           0.00391       -0.31250       -0.06250        0.31250
 BRILLOUIN|    96           0.00391       -0.31250       -0.06250        0.43750
 BRILLOUIN|    97           0.00391       -0.31250        0.06250       -0.43750
 BRILLOUIN|    98           0.00391       -0.31250        0.06250       -0.31250
 BRILLOUIN|    99           0.00391       -0.31250        0.06250       -0.18750
 BRILLOUIN|   100           0.00391       -0.31250        0.06250       -0.06250
 BRILLOUIN|   101           0.00391       -0.31250        0.06250        0.06250
 BRILLOUIN|   102           0.00391       -0.31250        0.06250        0.18750
 BRILLOUIN|   103           0.00391       -0.31250        0.06250        0.31250
 BRILLOUIN|   104           0.00391       -0.31250        0.06250        0.43750
 BRILLOUIN|   105           0.00391       -0.31250        0.18750       -0.43750
 BRILLOUIN|   106           0.00391       -0.31250        0.18750       -0.31250
 BRILLOUIN|   107           0.00391       -0.31250        0.18750       -0.18750
 BRILLOUIN|   108           0.00391       -0.31250        0.18750       -0.06250
 BRILLOUIN|   109           0.00391       -0.31250        0.18750        0.06250
 BRILLOUIN|   110           0.00391       -0.31250        0.18750        0.18750
 BRILLOUIN|   111           0.00391       -0.31250        0.18750        0.31250
 BRILLOUIN|   112           0.00391       -0.31250        0.18750        0.43750
 BRILLOUIN|   113           0.00391       -0.31250        0.31250       -0.43750
 BRILLOUIN|   114           0.00391       -0.31250        0.31250       -0.31250
 BRILLOUIN|   115           0.00391       -0.31250        0.31250       -0.18750
 BRILLOUIN|   116           0.00391       -0.31250        0.31250       -0.06250
 BRILLOUIN|   117           0.00391       -0.31250        0.31250        0.06250
 BRILLOUIN|   118           0.00391       -0.31250        0.31250        0.18750
 BRILLOUIN|   119           0.00391       -0.31250        0.31250        0.31250
 BRILLOUIN|   120           0.00391       -0.31250        0.31250        0.43750
 BRILLOUIN|   121           0.00391       -0.31250        0.43750       -0.43750
 BRILLOUIN|   122           0.00391       -0.31250        0.43750       -0.31250
 BRILLOUIN|   123           0.00391       -0.31250        0.43750       -0.18750
 BRILLOUIN|   124           0.00391       -0.31250        0.43750       -0.06250
 BRILLOUIN|   125           0.00391       -0.31250        0.43750        0.06250
 BRILLOUIN|   126           0.00391       -0.31250        0.43750        0.18750
 BRILLOUIN|   127           0.00391       -0.31250        0.43750        0.31250
 BRILLOUIN|   128           0.00391       -0.31250        0.43750        0.43750
 BRILLOUIN|   129           0.00391       -0.18750       -0.43750       -0.43750
 BRILLOUIN|   130           0.00391       -0.18750       -0.43750       -0.31250
 BRILLOUIN|   131           0.00391       -0.18750       -0.43750       -0.18750
 BRILLOUIN|   132           0.00391       -0.18750       -0.43750       -0.06250
 BRILLOUIN|   133           0.00391       -0.18750       -0.43750        0.06250
 BRILLOUIN|   134           0.00391       -0.18750       -0.43750        0.18750
 BRILLOUIN|   135           0.00391       -0.18750       -0.43750        0.31250
 BRILLOUIN|   136           0.00391       -0.18750       -0.43750        0.43750
 BRILLOUIN|   137           0.00391       -0.18750       -0.31250       -0.43750
 BRILLOUIN|   138           0.00391       -0.18750       -0.31250       -0.31250
 BRILLOUIN|   139           0.00391       -0.18750       -0.31250       -0.18750
 BRILLOUIN|   140           0.00391       -0.18750       -0.31250       -0.06250
 BRILLOUIN|   141           0.00391       -0.18750       -0.31250        0.06250
 BRILLOUIN|   142           0.00391       -0.18750       -0.31250        0.18750
 BRILLOUIN|   143           0.00391       -0.18750       -0.31250        0.31250
 BRILLOUIN|   144           0.00391       -0.18750       -0.31250        0.43750
 BRILLOUIN|   145           0.00391       -0.18750       -0.18750       -0.43750
 BRILLOUIN|   146           0.00391       -0.18750       -0.18750       -0.31250
 BRILLOUIN|   147           0.00391       -0.18750       -0.18750       -0.18750
 BRILLOUIN|   148           0.00391       -0.18750       -0.18750       -0.06250
 BRILLOUIN|   149           0.00391       -0.18750       -0.18750        0.06250
 BRILLOUIN|   150           0.00391       -0.18750       -0.18750        0.18750
 BRILLOUIN|   151           0.00391       -0.18750       -0.18750        0.31250
 BRILLOUIN|   152           0.00391       -0.18750       -0.18750        0.43750
 BRILLOUIN|   153           0.00391       -0.18750       -0.06250       -0.43750
 BRILLOUIN|   154           0.00391       -0.18750       -0.06250       -0.31250
 BRILLOUIN|   155           0.00391       -0.18750       -0.06250       -0.18750
 BRILLOUIN|   156           0.00391       -0.18750       -0.06250       -0.06250
 BRILLOUIN|   157           0.00391       -0.18750       -0.06250        0.06250
 BRILLOUIN|   158           0.00391       -0.18750       -0.06250        0.18750
 BRILLOUIN|   159           0.00391       -0.18750       -0.06250        0.31250
 BRILLOUIN|   160           0.00391       -0.18750       -0.06250        0.43750
 BRILLOUIN|   161           0.00391       -0.18750        0.06250       -0.43750
 BRILLOUIN|   162           0.00391       -0.18750        0.06250       -0.31250
 BRILLOUIN|   163           0.00391       -0.18750        0.06250       -0.18750
 BRILLOUIN|   164           0.00391       -0.18750        0.06250       -0.06250
 BRILLOUIN|   165           0.00391       -0.18750        0.06250        0.06250
 BRILLOUIN|   166           0.00391       -0.18750        0.06250        0.18750
 BRILLOUIN|   167           0.00391       -0.18750        0.06250        0.31250
 BRILLOUIN|   168           0.00391       -0.18750        0.06250        0.43750
 BRILLOUIN|   169           0.00391       -0.18750        0.18750       -0.43750
 BRILLOUIN|   170           0.00391       -0.18750        0.18750       -0.31250
 BRILLOUIN|   171           0.00391       -0.18750        0.18750       -0.18750
 BRILLOUIN|   172           0.00391       -0.18750        0.18750       -0.06250
 BRILLOUIN|   173           0.00391       -0.18750        0.18750        0.06250
 BRILLOUIN|   174           0.00391       -0.18750        0.18750        0.18750
 BRILLOUIN|   175           0.00391       -0.18750        0.18750        0.31250
 BRILLOUIN|   176           0.00391       -0.18750        0.18750        0.43750
 BRILLOUIN|   177           0.00391       -0.18750        0.31250       -0.43750
 BRILLOUIN|   178           0.00391       -0.18750        0.31250       -0.31250
 BRILLOUIN|   179           0.00391       -0.18750        0.31250       -0.18750
 BRILLOUIN|   180           0.00391       -0.18750        0.31250       -0.06250
 BRILLOUIN|   181           0.00391       -0.18750        0.31250        0.06250
 BRILLOUIN|   182           0.00391       -0.18750        0.31250        0.18750
 BRILLOUIN|   183           0.00391       -0.18750        0.31250        0.31250
 BRILLOUIN|   184           0.00391       -0.18750        0.31250        0.43750
 BRILLOUIN|   185           0.00391       -0.18750        0.43750       -0.43750
 BRILLOUIN|   186           0.00391       -0.18750        0.43750       -0.31250
 BRILLOUIN|   187           0.00391       -0.18750        0.43750       -0.18750
 BRILLOUIN|   188           0.00391       -0.18750        0.43750       -0.06250
 BRILLOUIN|   189           0.00391       -0.18750        0.43750        0.06250
 BRILLOUIN|   190           0.00391       -0.18750        0.43750        0.18750
 BRILLOUIN|   191           0.00391       -0.18750        0.43750        0.31250
 BRILLOUIN|   192           0.00391       -0.18750        0.43750        0.43750
 BRILLOUIN|   193           0.00391       -0.06250       -0.43750       -0.43750
 BRILLOUIN|   194           0.00391       -0.06250       -0.43750       -0.31250
 BRILLOUIN|   195           0.00391       -0.06250       -0.43750       -0.18750
 BRILLOUIN|   196           0.00391       -0.06250       -0.43750       -0.06250
 BRILLOUIN|   197           0.00391       -0.06250       -0.43750        0.06250
 BRILLOUIN|   198           0.00391       -0.06250       -0.43750        0.18750
 BRILLOUIN|   199           0.00391       -0.06250       -0.43750        0.31250
 BRILLOUIN|   200           0.00391       -0.06250       -0.43750        0.43750
 BRILLOUIN|   201           0.00391       -0.06250       -0.31250       -0.43750
 BRILLOUIN|   202           0.00391       -0.06250       -0.31250       -0.31250
 BRILLOUIN|   203           0.00391       -0.06250       -0.31250       -0.18750
 BRILLOUIN|   204           0.00391       -0.06250       -0.31250       -0.06250
 BRILLOUIN|   205           0.00391       -0.06250       -0.31250        0.06250
 BRILLOUIN|   206           0.00391       -0.06250       -0.31250        0.18750
 BRILLOUIN|   207           0.00391       -0.06250       -0.31250        0.31250
 BRILLOUIN|   208           0.00391       -0.06250       -0.31250        0.43750
 BRILLOUIN|   209           0.00391       -0.06250       -0.18750       -0.43750
 BRILLOUIN|   210           0.00391       -0.06250       -0.18750       -0.31250
 BRILLOUIN|   211           0.00391       -0.06250       -0.18750       -0.18750
 BRILLOUIN|   212           0.00391       -0.06250       -0.18750       -0.06250
 BRILLOUIN|   213           0.00391       -0.06250       -0.18750        0.06250
 BRILLOUIN|   214           0.00391       -0.06250       -0.18750        0.18750
 BRILLOUIN|   215           0.00391       -0.06250       -0.18750        0.31250
 BRILLOUIN|   216           0.00391       -0.06250       -0.18750        0.43750
 BRILLOUIN|   217           0.00391       -0.06250       -0.06250       -0.43750
 BRILLOUIN|   218           0.00391       -0.06250       -0.06250       -0.31250
 BRILLOUIN|   219           0.00391       -0.06250       -0.06250       -0.18750
 BRILLOUIN|   220           0.00391       -0.06250       -0.06250       -0.06250
 BRILLOUIN|   221           0.00391       -0.06250       -0.06250        0.06250
 BRILLOUIN|   222           0.00391       -0.06250       -0.06250        0.18750
 BRILLOUIN|   223           0.00391       -0.06250       -0.06250        0.31250
 BRILLOUIN|   224           0.00391       -0.06250       -0.06250        0.43750
 BRILLOUIN|   225           0.00391       -0.06250        0.06250       -0.43750
 BRILLOUIN|   226           0.00391       -0.06250        0.06250       -0.31250
 BRILLOUIN|   227           0.00391       -0.06250        0.06250       -0.18750
 BRILLOUIN|   228           0.00391       -0.06250        0.06250       -0.06250
 BRILLOUIN|   229           0.00391       -0.06250        0.06250        0.06250
 BRILLOUIN|   230           0.00391       -0.06250        0.06250        0.18750
 BRILLOUIN|   231           0.00391       -0.06250        0.06250        0.31250
 BRILLOUIN|   232           0.00391       -0.06250        0.06250        0.43750
 BRILLOUIN|   233           0.00391       -0.06250        0.18750       -0.43750
 BRILLOUIN|   234           0.00391       -0.06250        0.18750       -0.31250
 BRILLOUIN|   235           0.00391       -0.06250        0.18750       -0.18750
 BRILLOUIN|   236           0.00391       -0.06250        0.18750       -0.06250
 BRILLOUIN|   237           0.00391       -0.06250        0.18750        0.06250
 BRILLOUIN|   238           0.00391       -0.06250        0.18750        0.18750
 BRILLOUIN|   239           0.00391       -0.06250        0.18750        0.31250
 BRILLOUIN|   240           0.00391       -0.06250        0.18750        0.43750
 BRILLOUIN|   241           0.00391       -0.06250        0.31250       -0.43750
 BRILLOUIN|   242           0.00391       -0.06250        0.31250       -0.31250
 BRILLOUIN|   243           0.00391       -0.06250        0.31250       -0.18750
 BRILLOUIN|   244           0.00391       -0.06250        0.31250       -0.06250
 BRILLOUIN|   245           0.00391       -0.06250        0.31250        0.06250
 BRILLOUIN|   246           0.00391       -0.06250        0.31250        0.18750
 BRILLOUIN|   247           0.00391       -0.06250        0.31250        0.31250
 BRILLOUIN|   248           0.00391       -0.06250        0.31250        0.43750
 BRILLOUIN|   249           0.00391       -0.06250        0.43750       -0.43750
 BRILLOUIN|   250           0.00391       -0.06250        0.43750       -0.31250
 BRILLOUIN|   251           0.00391       -0.06250        0.43750       -0.18750
 BRILLOUIN|   252           0.00391       -0.06250        0.43750       -0.06250
 BRILLOUIN|   253           0.00391       -0.06250        0.43750        0.06250
 BRILLOUIN|   254           0.00391       -0.06250        0.43750        0.18750
 BRILLOUIN|   255           0.00391       -0.06250        0.43750        0.31250
 BRILLOUIN|   256           0.00391       -0.06250        0.43750        0.43750
 *******************************************************************************

 *******************************************************************************
 *******************************************************************************
 **                                                                           **
 **     #####                         ##              ##                      **
 **    ##   ##            ##          ##              ##                      **
 **   ##     ##                       ##            ######                    **
 **   ##     ##  ##   ##  ##   #####  ##  ##   ####   ##    #####    #####    **
 **   ##     ##  ##   ##  ##  ##      ## ##   ##      ##   ##   ##  ##   ##   **
 **   ##  ## ##  ##   ##  ##  ##      ####     ###    ##   ######   ######    **
 **    ##  ###   ##   ##  ##  ##      ## ##      ##   ##   ##       ##        **
 **     #######   #####   ##   #####  ##  ##  ####    ##    #####   ##        **
 **           ##                                                    ##        **
 **                                                                           **
 **                                                ... make the atoms dance   **
 **                                                                           **
 **            Copyright (C) by CP2K developers group (2000-2025)             **
 **                      J. Chem. Phys. 152, 194103 (2020)                    **
 **                                                                           **
 *******************************************************************************

 DFT| Spin restricted Kohn-Sham (RKS) calculation                            RKS
 DFT| Multiplicity                                                             1
 DFT| Number of spin states                                                    1
 DFT| Charge                                                                   0
 DFT| Self-interaction correction (SIC)                                       NO
 DFT| Cutoffs: density                                              1.000000E-10
 DFT|          gradient                                             1.000000E-10
 DFT|          tau                                                  1.000000E-10
 DFT|          cutoff_smoothing_range                               0.000000E+00
 DFT| XC density smoothing                                                  NONE
 DFT| XC derivatives                                                          PW

 FUNCTIONAL| PBE:
 FUNCTIONAL| J.P.Perdew, K.Burke, M.Ernzerhof, Phys. Rev. Letter, vol. 77, n 18,
 FUNCTIONAL|  pp. 3865-3868, (1996) {spin unpolarized}                          


 QS| Method:                                                                 GPW
 QS| Density plane wave grid type                        NON-SPHERICAL FULLSPACE
 QS| Number of grid levels:                                                    4
 QS| Density cutoff [a.u.]:                                                500.0
 QS| Multi grid cutoff [a.u.]: 1) grid level                               500.0
 QS|                           2) grid level                               166.7
 QS|                           3) grid level                                55.6
 QS|                           4) grid level                                18.5
 QS| Grid level progression factor:                                          3.0
 QS| Relative density cutoff [a.u.]:                                        50.0
 QS| Interaction thresholds: eps_pgf_orb:                                1.0E-16
 QS|                         eps_filter_matrix:                          0.0E+00
 QS|                         eps_core_charge:                            1.0E-18
 QS|                         eps_rho_gspace:                             1.0E-16
 QS|                         eps_rho_rspace:                             1.0E-16
 QS|                         eps_gvg_rspace:                             1.0E-08
 QS|                         eps_ppl:                                    1.0E-02
 QS|                         eps_ppnl:                                   1.0E-10


 ATOMIC KIND INFORMATION

  1. Atomic kind: Zn                                    Number of atoms:       2

     Orbital Basis Set                                aug-TZVP-MOLOPT-GTH-tier-2

       Number of orbital shell sets:                                           1
       Number of orbital shells:                                              16
       Number of primitive Cartesian functions:                                7
       Number of Cartesian basis functions:                                   85
       Number of spherical basis functions:                                   66
       Norm type:                                                              2

       Normalised Cartesian orbitals:

                        Set   Shell   Orbital            Exponent    Coefficient

                          1       1    2s                0.047979      -0.036796
                                                         0.081721       0.000000
                                                         0.139193      -0.094463
                                                         0.376911      -0.022564
                                                         1.000684       0.163207
                                                         2.638267      -0.041030
                                                         6.104275       0.016727

                          1       2    3s                0.047979      -0.111349
                                                         0.081721       0.000000
                                                         0.139193       0.128448
                                                         0.376911       0.343049
                                                         1.000684      -0.735262
                                                         2.638267       0.294581
                                                         6.104275      -0.056747

                          1       3    4s                0.047979       0.017103
                                                         0.081721       0.000000
                                                         0.139193      -0.029157
                                                         0.376911       0.272663
                                                         1.000684       0.206199
                                                         2.638267      -0.002043
                                                         6.104275      -0.185001

                          1       4    5s                0.047979      -0.075622
                                                         0.081721       0.185846
                                                         0.139193       0.106384
                                                         0.376911      -0.203242
                                                         1.000684      -0.088035
                                                         2.638267       0.000000
                                                         6.104275       0.000000

                          1       5    3px               0.047979      -0.033041
                                                         0.081721       0.000000
                                                         0.139193      -0.002357
                                                         0.376911       0.082133
                                                         1.000684      -0.079217
                                                         2.638267      -0.103883
                                                         6.104275       0.035380
                          1       5    3py               0.047979      -0.033041
                                                         0.081721       0.000000
                                                         0.139193      -0.002357
                                                         0.376911       0.082133
                                                         1.000684      -0.079217
                                                         2.638267      -0.103883
                                                         6.104275       0.035380
                          1       5    3pz               0.047979      -0.033041
                                                         0.081721       0.000000
                                                         0.139193      -0.002357
                                                         0.376911       0.082133
                                                         1.000684      -0.079217
                                                         2.638267      -0.103883
                                                         6.104275       0.035380

                          1       6    4px               0.047979       0.002583
                                                         0.081721       0.000000
                                                         0.139193       0.080547
                                                         0.376911       0.185414
                                                         1.000684      -0.257608
                                                         2.638267      -0.061965
                                                         6.104275       0.010518
                          1       6    4py               0.047979       0.002583
                                                         0.081721       0.000000
                                                         0.139193       0.080547
                                                         0.376911       0.185414
                                                         1.000684      -0.257608
                                                         2.638267      -0.061965
                                                         6.104275       0.010518
                          1       6    4pz               0.047979       0.002583
                                                         0.081721       0.000000
                                                         0.139193       0.080547
                                                         0.376911       0.185414
                                                         1.000684      -0.257608
                                                         2.638267      -0.061965
                                                         6.104275       0.010518

                          1       7    5px               0.047979       0.002846
                                                         0.081721       0.000000
                                                         0.139193      -0.036357
                                                         0.376911       0.241136
                                                         1.000684       0.432178
                                                         2.638267       2.004490
                                                         6.104275       0.397470
                          1       7    5py               0.047979       0.002846
                                                         0.081721       0.000000
                                                         0.139193      -0.036357
                                                         0.376911       0.241136
                                                         1.000684       0.432178
                                                         2.638267       2.004490
                                                         6.104275       0.397470
                          1       7    5pz               0.047979       0.002846
                                                         0.081721       0.000000
                                                         0.139193      -0.036357
                                                         0.376911       0.241136
                                                         1.000684       0.432178
                                                         2.638267       2.004490
                                                         6.104275       0.397470

                          1       8    6px               0.047979       0.040823
                                                         0.081721      -0.017728
                                                         0.139193      -0.004846
                                                         0.376911      -0.013572
                                                         1.000684       0.151574
                                                         2.638267       0.000000
                                                         6.104275       0.000000
                          1       8    6py               0.047979       0.040823
                                                         0.081721      -0.017728
                                                         0.139193      -0.004846
                                                         0.376911      -0.013572
                                                         1.000684       0.151574
                                                         2.638267       0.000000
                                                         6.104275       0.000000
                          1       8    6pz               0.047979       0.040823
                                                         0.081721      -0.017728
                                                         0.139193      -0.004846
                                                         0.376911      -0.013572
                                                         1.000684       0.151574
                                                         2.638267       0.000000
                                                         6.104275       0.000000

                          1       9    4dx2              0.047979      -0.000038
                                                         0.081721       0.000000
                                                         0.139193       0.001869
                                                         0.376911       0.050447
                                                         1.000684       0.543951
                                                         2.638267       3.627180
                                                         6.104275      13.464071
                          1       9    4dxy              0.047979      -0.000066
                                                         0.081721       0.000000
                                                         0.139193       0.003237
                                                         0.376911       0.087377
                                                         1.000684       0.942150
                                                         2.638267       6.282461
                                                         6.104275      23.320455
                          1       9    4dxz              0.047979      -0.000066
                                                         0.081721       0.000000
                                                         0.139193       0.003237
                                                         0.376911       0.087377
                                                         1.000684       0.942150
                                                         2.638267       6.282461
                                                         6.104275      23.320455
                          1       9    4dy2              0.047979      -0.000038
                                                         0.081721       0.000000
                                                         0.139193       0.001869
                                                         0.376911       0.050447
                                                         1.000684       0.543951
                                                         2.638267       3.627180
                                                         6.104275      13.464071
                          1       9    4dyz              0.047979      -0.000066
                                                         0.081721       0.000000
                                                         0.139193       0.003237
                                                         0.376911       0.087377
                                                         1.000684       0.942150
                                                         2.638267       6.282461
                                                         6.104275      23.320455
                          1       9    4dz2              0.047979      -0.000038
                                                         0.081721       0.000000
                                                         0.139193       0.001869
                                                         0.376911       0.050447
                                                         1.000684       0.543951
                                                         2.638267       3.627180
                                                         6.104275      13.464071

                          1      10    5dx2              0.047979       0.001127
                                                         0.081721       0.000000
                                                         0.139193       0.024138
                                                         0.376911       0.183788
                                                         1.000684      -0.199622
                                                         2.638267      -1.316925
                                                         6.104275      -2.364570
                          1      10    5dxy              0.047979       0.001951
                                                         0.081721       0.000000
                                                         0.139193       0.041808
                                                         0.376911       0.318331
                                                         1.000684      -0.345755
                                                         2.638267      -2.280981
                                                         6.104275      -4.095555
                          1      10    5dxz              0.047979       0.001951
                                                         0.081721       0.000000
                                                         0.139193       0.041808
                                                         0.376911       0.318331
                                                         1.000684      -0.345755
                                                         2.638267      -2.280981
                                                         6.104275      -4.095555
                          1      10    5dy2              0.047979       0.001127
                                                         0.081721       0.000000
                                                         0.139193       0.024138
                                                         0.376911       0.183788
                                                         1.000684      -0.199622
                                                         2.638267      -1.316925
                                                         6.104275      -2.364570
                          1      10    5dyz              0.047979       0.001951
                                                         0.081721       0.000000
                                                         0.139193       0.041808
                                                         0.376911       0.318331
                                                         1.000684      -0.345755
                                                         2.638267      -2.280981
                                                         6.104275      -4.095555
                          1      10    5dz2              0.047979       0.001127
                                                         0.081721       0.000000
                                                         0.139193       0.024138
                                                         0.376911       0.183788
                                                         1.000684      -0.199622
                                                         2.638267      -1.316925
                                                         6.104275      -2.364570

                          1      11    6dx2              0.047979       0.009046
                                                         0.081721       0.000000
                                                         0.139193      -0.010639
                                                         0.376911      -0.024651
                                                         1.000684       0.001294
                                                         2.638267       0.679352
                                                         6.104275      -0.483452
                          1      11    6dxy              0.047979       0.015667
                                                         0.081721       0.000000
                                                         0.139193      -0.018427
                                                         0.376911      -0.042698
                                                         1.000684       0.002241
                                                         2.638267       1.176672
                                                         6.104275      -0.837364
                          1      11    6dxz              0.047979       0.015667
                                                         0.081721       0.000000
                                                         0.139193      -0.018427
                                                         0.376911      -0.042698
                                                         1.000684       0.002241
                                                         2.638267       1.176672
                                                         6.104275      -0.837364
                          1      11    6dy2              0.047979       0.009046
                                                         0.081721       0.000000
                                                         0.139193      -0.010639
                                                         0.376911      -0.024651
                                                         1.000684       0.001294
                                                         2.638267       0.679352
                                                         6.104275      -0.483452
                          1      11    6dyz              0.047979       0.015667
                                                         0.081721       0.000000
                                                         0.139193      -0.018427
                                                         0.376911      -0.042698
                                                         1.000684       0.002241
                                                         2.638267       1.176672
                                                         6.104275      -0.837364
                          1      11    6dz2              0.047979       0.009046
                                                         0.081721       0.000000
                                                         0.139193      -0.010639
                                                         0.376911      -0.024651
                                                         1.000684       0.001294
                                                         2.638267       0.679352
                                                         6.104275      -0.483452

                          1      12    7dx2              0.047979      -0.008569
                                                         0.081721       0.000730
                                                         0.139193       0.005322
                                                         0.376911       0.029314
                                                         1.000684       0.397204
                                                         2.638267       0.000000
                                                         6.104275       0.000000
                          1      12    7dxy              0.047979      -0.014842
                                                         0.081721       0.001265
                                                         0.139193       0.009218
                                                         0.376911       0.050774
                                                         1.000684       0.687977
                                                         2.638267       0.000000
                                                         6.104275       0.000000
                          1      12    7dxz              0.047979      -0.014842
                                                         0.081721       0.001265
                                                         0.139193       0.009218
                                                         0.376911       0.050774
                                                         1.000684       0.687977
                                                         2.638267       0.000000
                                                         6.104275       0.000000
                          1      12    7dy2              0.047979      -0.008569
                                                         0.081721       0.000730
                                                         0.139193       0.005322
                                                         0.376911       0.029314
                                                         1.000684       0.397204
                                                         2.638267       0.000000
                                                         6.104275       0.000000
                          1      12    7dyz              0.047979      -0.014842
                                                         0.081721       0.001265
                                                         0.139193       0.009218
                                                         0.376911       0.050774
                                                         1.000684       0.687977
                                                         2.638267       0.000000
                                                         6.104275       0.000000
                          1      12    7dz2              0.047979      -0.008569
                                                         0.081721       0.000730
                                                         0.139193       0.005322
                                                         0.376911       0.029314
                                                         1.000684       0.397204
                                                         2.638267       0.000000
                                                         6.104275       0.000000

                          1      13    5fx3              0.047979       0.000291
                                                         0.081721       0.000000
                                                         0.139193       0.009474
                                                         0.376911       0.071793
                                                         1.000684       0.131964
                                                         2.638267       0.062463
                                                         6.104275      -0.134501
                          1      13    5fx2y             0.047979       0.000650
                                                         0.081721       0.000000
                                                         0.139193       0.021185
                                                         0.376911       0.160535
                                                         1.000684       0.295080
                                                         2.638267       0.139671
                                                         6.104275      -0.300754
                          1      13    5fx2z             0.047979       0.000650
                                                         0.081721       0.000000
                                                         0.139193       0.021185
                                                         0.376911       0.160535
                                                         1.000684       0.295080
                                                         2.638267       0.139671
                                                         6.104275      -0.300754
                          1      13    5fxy2             0.047979       0.000650
                                                         0.081721       0.000000
                                                         0.139193       0.021185
                                                         0.376911       0.160535
                                                         1.000684       0.295080
                                                         2.638267       0.139671
                                                         6.104275      -0.300754
                          1      13    5fxyz             0.047979       0.001126
                                                         0.081721       0.000000
                                                         0.139193       0.036694
                                                         0.376911       0.278055
                                                         1.000684       0.511094
                                                         2.638267       0.241918
                                                         6.104275      -0.520922
                          1      13    5fxz2             0.047979       0.000650
                                                         0.081721       0.000000
                                                         0.139193       0.021185
                                                         0.376911       0.160535
                                                         1.000684       0.295080
                                                         2.638267       0.139671
                                                         6.104275      -0.300754
                          1      13    5fy3              0.047979       0.000291
                                                         0.081721       0.000000
                                                         0.139193       0.009474
                                                         0.376911       0.071793
                                                         1.000684       0.131964
                                                         2.638267       0.062463
                                                         6.104275      -0.134501
                          1      13    5fy2z             0.047979       0.000650
                                                         0.081721       0.000000
                                                         0.139193       0.021185
                                                         0.376911       0.160535
                                                         1.000684       0.295080
                                                         2.638267       0.139671
                                                         6.104275      -0.300754
                          1      13    5fyz2             0.047979       0.000650
                                                         0.081721       0.000000
                                                         0.139193       0.021185
                                                         0.376911       0.160535
                                                         1.000684       0.295080
                                                         2.638267       0.139671
                                                         6.104275      -0.300754
                          1      13    5fz3              0.047979       0.000291
                                                         0.081721       0.000000
                                                         0.139193       0.009474
                                                         0.376911       0.071793
                                                         1.000684       0.131964
                                                         2.638267       0.062463
                                                         6.104275      -0.134501

                          1      14    6fx3              0.047979       0.001741
                                                         0.081721       0.000000
                                                         0.139193      -0.004566
                                                         0.376911      -0.019043
                                                         1.000684      -0.128099
                                                         2.638267      -0.037408
                                                         6.104275       0.221976
                          1      14    6fx2y             0.047979       0.003892
                                                         0.081721       0.000000
                                                         0.139193      -0.010210
                                                         0.376911      -0.042581
                                                         1.000684      -0.286439
                                                         2.638267      -0.083647
                                                         6.104275       0.496353
                          1      14    6fx2z             0.047979       0.003892
                                                         0.081721       0.000000
                                                         0.139193      -0.010210
                                                         0.376911      -0.042581
                                                         1.000684      -0.286439
                                                         2.638267      -0.083647
                                                         6.104275       0.496353
                          1      14    6fxy2             0.047979       0.003892
                                                         0.081721       0.000000
                                                         0.139193      -0.010210
                                                         0.376911      -0.042581
                                                         1.000684      -0.286439
                                                         2.638267      -0.083647
                                                         6.104275       0.496353
                          1      14    6fxyz             0.047979       0.006741
                                                         0.081721       0.000000
                                                         0.139193      -0.017684
                                                         0.376911      -0.073752
                                                         1.000684      -0.496127
                                                         2.638267      -0.144882
                                                         6.104275       0.859709
                          1      14    6fxz2             0.047979       0.003892
                                                         0.081721       0.000000
                                                         0.139193      -0.010210
                                                         0.376911      -0.042581
                                                         1.000684      -0.286439
                                                         2.638267      -0.083647
                                                         6.104275       0.496353
                          1      14    6fy3              0.047979       0.001741
                                                         0.081721       0.000000
                                                         0.139193      -0.004566
                                                         0.376911      -0.019043
                                                         1.000684      -0.128099
                                                         2.638267      -0.037408
                                                         6.104275       0.221976
                          1      14    6fy2z             0.047979       0.003892
                                                         0.081721       0.000000
                                                         0.139193      -0.010210
                                                         0.376911      -0.042581
                                                         1.000684      -0.286439
                                                         2.638267      -0.083647
                                                         6.104275       0.496353
                          1      14    6fyz2             0.047979       0.003892
                                                         0.081721       0.000000
                                                         0.139193      -0.010210
                                                         0.376911      -0.042581
                                                         1.000684      -0.286439
                                                         2.638267      -0.083647
                                                         6.104275       0.496353
                          1      14    6fz3              0.047979       0.001741
                                                         0.081721       0.000000
                                                         0.139193      -0.004566
                                                         0.376911      -0.019043
                                                         1.000684      -0.128099
                                                         2.638267      -0.037408
                                                         6.104275       0.221976

                          1      15    7fx3              0.047979       0.001138
                                                         0.081721      -0.000592
                                                         0.139193       0.005367
                                                         0.376911       0.041511
                                                         1.000684       0.344109
                                                         2.638267       0.000000
                                                         6.104275       0.000000
                          1      15    7fx2y             0.047979       0.002544
                                                         0.081721      -0.001324
                                                         0.139193       0.012002
                                                         0.376911       0.092821
                                                         1.000684       0.769451
                                                         2.638267       0.000000
                                                         6.104275       0.000000
                          1      15    7fx2z             0.047979       0.002544
                                                         0.081721      -0.001324
                                                         0.139193       0.012002
                                                         0.376911       0.092821
                                                         1.000684       0.769451
                                                         2.638267       0.000000
                                                         6.104275       0.000000
                          1      15    7fxy2             0.047979       0.002544
                                                         0.081721      -0.001324
                                                         0.139193       0.012002
                                                         0.376911       0.092821
                                                         1.000684       0.769451
                                                         2.638267       0.000000
                                                         6.104275       0.000000
                          1      15    7fxyz             0.047979       0.004407
                                                         0.081721      -0.002293
                                                         0.139193       0.020788
                                                         0.376911       0.160770
                                                         1.000684       1.332728
                                                         2.638267       0.000000
                                                         6.104275       0.000000
                          1      15    7fxz2             0.047979       0.002544
                                                         0.081721      -0.001324
                                                         0.139193       0.012002
                                                         0.376911       0.092821
                                                         1.000684       0.769451
                                                         2.638267       0.000000
                                                         6.104275       0.000000
                          1      15    7fy3              0.047979       0.001138
                                                         0.081721      -0.000592
                                                         0.139193       0.005367
                                                         0.376911       0.041511
                                                         1.000684       0.344109
                                                         2.638267       0.000000
                                                         6.104275       0.000000
                          1      15    7fy2z             0.047979       0.002544
                                                         0.081721      -0.001324
                                                         0.139193       0.012002
                                                         0.376911       0.092821
                                                         1.000684       0.769451
                                                         2.638267       0.000000
                                                         6.104275       0.000000
                          1      15    7fyz2             0.047979       0.002544
                                                         0.081721      -0.001324
                                                         0.139193       0.012002
                                                         0.376911       0.092821
                                                         1.000684       0.769451
                                                         2.638267       0.000000
                                                         6.104275       0.000000
                          1      15    7fz3              0.047979       0.001138
                                                         0.081721      -0.000592
                                                         0.139193       0.005367
                                                         0.376911       0.041511
                                                         1.000684       0.344109
                                                         2.638267       0.000000
                                                         6.104275       0.000000

                          1      16    6gx4              0.047979      -0.000014
                                                         0.081721      -0.000005
                                                         0.139193       0.004836
                                                         0.376911       0.006025
                                                         1.000684      -0.002722
                                                         2.638267       0.000000
                                                         6.104275       0.000000
                          1      16    6gx3y             0.047979      -0.000038
                                                         0.081721      -0.000013
                                                         0.139193       0.012794
                                                         0.376911       0.015939
                                                         1.000684      -0.007200
                                                         2.638267       0.000000
                                                         6.104275       0.000000
                          1      16    6gx3z             0.047979      -0.000038
                                                         0.081721      -0.000013
                                                         0.139193       0.012794
                                                         0.376911       0.015939
                                                         1.000684      -0.007200
                                                         2.638267       0.000000
                                                         6.104275       0.000000
                          1      16    6gx2y2            0.047979      -0.000049
                                                         0.081721      -0.000016
                                                         0.139193       0.016517
                                                         0.376911       0.020578
                                                         1.000684      -0.009296
                                                         2.638267       0.000000
                                                         6.104275       0.000000
                          1      16    6gx2yz            0.047979      -0.000084
[...]
       1     Zn       1         12.000001                             -0.000001
       2     Zn       1         11.999999                              0.000001
 # Total charge                             24.000000                  0.000000

 !-----------------------------------------------------------------------------!

 !-----------------------------------------------------------------------------!
                           Hirshfeld Charges

  #Atom  Element  Kind  Ref Charge     Population                    Net charge
      1       Zn     1      12.000         12.000                        -0.000
      2       Zn     1      12.000         12.000                         0.000

  Total Charge                                                            0.000
 !-----------------------------------------------------------------------------!

 KPOINTS| Band Structure Calculation
 KPOINTS| Number of k-point sets                                               1
 KPOINTS| Number of added MOs/bands                                           -1
 KPOINTS| Number of k-points in set    1                                     148
 KPOINTS| In units of b-vector [2pi/Bohr]
 KPOINTS| Special point     1 not specifi     0.000000     0.000000     0.000000
 KPOINTS| Special point     2 not specifi     0.500000     0.000000     0.000000
 KPOINTS| Special point     3 not specifi     0.333333     0.333333     0.000000
 KPOINTS| Special point     4 not specifi     0.000000     0.000000     0.000000
 KPOINTS| Time for k-point line                                           21.179

 ENERGY| Total FORCE_EVAL ( QS ) energy [hartree]           -121.052782664776771

 -------------------------------------------------------------------------------
 -                                                                             -
 -                                DBCSR STATISTICS                             -
 -                                                                             -
 -------------------------------------------------------------------------------
 COUNTER                                    TOTAL       BLAS       SMM       ACC
 flops inhomo. stacks                           0       0.0%      0.0%      0.0%
 flops total                         0.000000E+00       0.0%      0.0%      0.0%
 flops max/rank                      0.000000E+00       0.0%      0.0%      0.0%
 matmuls inhomo. stacks                         0       0.0%      0.0%      0.0%
 matmuls total                                  0       0.0%      0.0%      0.0%
 number of processed stacks                     0       0.0%      0.0%      0.0%
 average stack size                                     0.0       0.0       0.0
 marketing flops                     0.000000E+00
 -------------------------------------------------------------------------------
 -                                                                             -
 -                      DBCSR MESSAGE PASSING PERFORMANCE                      -
 -                                                                             -
 -------------------------------------------------------------------------------
 ROUTINE             CALLS      AVE VOLUME [Bytes]
 MP_Bcast                1                     12.
 MP_Allreduce           19                     21.
 MP_Alltoall        748304                  17302.
 -------------------------------------------------------------------------------

 -------------------------------------------------------------------------------
 -                                                                             -
 -                                DBM STATISTICS                               -
 -                                                                             -
 -------------------------------------------------------------------------------
    M  x    N  x    K                                          COUNT     PERCENT
 -------------------------------------------------------------------------------

 -------------------------------------------------------------------------------
 -                                                                             -
 -                                GRID STATISTICS                              -
 -                                                                             -
 -------------------------------------------------------------------------------
 LP    KERNEL             BACKEND                              COUNT     PERCENT
 8     collocate general  CPU                                2195668      50.82%
 8     integrate general  CPU                                2124840      49.18%
 0     collocate general  CPU                                      4       0.00%
 0     integrate general  CPU                                      2       0.00%
 -------------------------------------------------------------------------------

 MEMORY| Estimated peak process memory [MiB]                                1678

 -------------------------------------------------------------------------------
 ----                             MULTIGRID INFO                            ----
 -------------------------------------------------------------------------------
 count for grid        1:         270844          cutoff [a.u.]          500.00
 count for grid        2:         225096          cutoff [a.u.]          166.67
 count for grid        3:         207012          cutoff [a.u.]           55.56
 count for grid        4:         209450          cutoff [a.u.]           18.52
 total gridlevel count  :         912402

 -------------------------------------------------------------------------------
 -                                                                             -
 -                         MESSAGE PASSING PERFORMANCE                         -
 -                                                                             -
 -------------------------------------------------------------------------------

 ROUTINE             CALLS      AVE VOLUME [Bytes]
 MP_Group                6
 MP_Bcast           280223                   1292.
 MP_Allreduce       407912                     29.
 MP_Sync                 4
 MP_Alltoall           607                 658569.
 MP_SendRecv          1890                  53154.
 MP_ISendRecv         1815                  52283.
 MP_Wait            191531
 MP_comm_split           4
 MP_ISend           195772                   2096.
 MP_IRecv           327444                   1257.
 -------------------------------------------------------------------------------


 -------------------------------------------------------------------------------
 -                                                                             -
 -                           R E F E R E N C E S                               -
 -                                                                             -
 -------------------------------------------------------------------------------
 
 CP2K version 2025.1 (Development Version), the CP2K developers group (2025).
 CP2K is freely available from https://www.cp2k.org/ .
 
 T. D. Kuehne, M. Iannuzzi, M. Del Ben, V. V. Rybkin, P. Seewald, F. Stein, T. 
 Laino, R. Z. Khaliullin, O. Schuett, F. Schiffmann, D. Golze, J. Wilhelm, S. 
 Chulkov, M. H. Bani-Hashemian, V. Weber, U. Borstnik, M. Taillefumier, A. S. 
 Jakobovits, A. Lazzaro, H. Pabst, T. Mueller, R. Schade, M. Guidon, S. 
 Andermatt, N. Holmberg, G. K. Schenter, A. Hehn, A. Bussy, F. Belleflamme, G. 
 Tabacchi, A. Gloess, M. Lass, I. Bethune, C. J. Mundy, C. Plessl, M. Watkins, 
 J. VandeVondele, M. Krack, J. Hutter.
 J. Chem. Phys. 152, 194103 (2020).
 CP2K: An electronic structure and molecular dynamics software package - 
 Quickstep: Efficient and accurate electronic structure calculations.
 https://doi.org/10.1063/5.0007045

 O. Schuett, P. Messmer, J. Hutter, J. VandeVondele.
 Electronic Structure Calculations on Graphics Processing Units, 173-190 (2016).
 GPU-Accelerated Sparse Matrix-Matrix Multiplication for Linear Scaling Density 
 Functional Theory.
 https://doi.org/10.1002/9781118670712.ch8

 J. Hutter, M. Iannuzzi, F. Schiffmann, J. VandeVondele.
 WIREs Comput Mol Sci. 4, 15-25 (2014).
 CP2K: atomistic simulations of condensed matter systems.
 https://doi.org/10.1002/wcms.1159

 U. Borstnik, J. VandeVondele, V. Weber, J. Hutter.
 Parallel Comput. 40, 47-58 (2014).
 Sparse matrix multiplication: The distributed block-compressed sparse row 
 library.
 https://doi.org/10.1016/j.parco.2014.03.012

 J. VandeVondele, J. Hutter.
 J. Chem. Phys. 127, 114105 (2007).
 Gaussian basis sets for accurate calculations on molecular systems in gas and 
 condensed phases.
 https://doi.org/10.1063/1.2770708

 J. VandeVondele, M. Krack, F. Mohamed, M. Parrinello, T. Chassaing, J. Hutter.
 Comput. Phys. Commun. 167, 103-128 (2005).
 QUICKSTEP: Fast and accurate density functional calculations using a mixed 
 Gaussian and plane waves approach.
 https://doi.org/10.1016/j.cpc.2004.12.014

 M. Krack.
 Theor. Chem. Acc. 114, 145-152 (2005).
 Pseudopotentials for H to Kr optimized for gradient-corrected 
 exchange-correlation functionals.
 https://doi.org/10.1007/s00214-005-0655-y

 M. Frigo, S. G. Johnson.
 Proc. IEEE 93, 216-231 (2005).
 The design and implementation of FFTW3.
 https://doi.org/10.1109/JPROC.2004.840301

 C. Hartwigsen, S. Goedecker, J. Hutter.
 Phys. Rev. B 58, 3641-3662 (1998).
 Relativistic separable dual-space Gaussian pseudopotentials from H to Rn.
 https://doi.org/10.1103/PhysRevB.58.3641

 G. Lippert, J. Hutter, M. Parrinello.
 Mol. Phys. 92, 477-487 (1997).
 A hybrid Gaussian and plane wave density functional scheme.
 https://doi.org/10.1080/002689797170220

 S. Goedecker, M. Teter, J. Hutter.
 Phys. Rev. B 54, 1703-1710 (1996).
 Separable dual-space Gaussian pseudopotentials.
 https://doi.org/10.1103/PhysRevB.54.1703

 J. P. Perdew, K. Burke, M. Ernzerhof.
 Phys. Rev. Lett. 77, 3865-3868 (1996).
 Generalized gradient approximation made simple.
 https://doi.org/10.1103/PhysRevLett.77.3865


 -------------------------------------------------------------------------------
 -                                                                             -
 -                                T I M I N G                                  -
 -                                                                             -
 -------------------------------------------------------------------------------
 SUBROUTINE                       CALLS  ASD         SELF TIME        TOTAL TIME
                                MAXIMUM       AVERAGE  MAXIMUM  AVERAGE  MAXIMUM
 CP2K                                 1  1.0    0.030    0.032 1815.159 1815.159
 qs_energies                          1  2.0    0.017    0.065 1814.881 1814.921
 scf_env_do_scf                       1  3.0    0.000    0.000 1780.315 1780.316
 scf_env_do_scf_inner_loop           30  4.0    0.117    0.130 1780.315 1780.315
 do_general_diag_kp                  31  5.9    0.178    0.211 1680.409 1697.441
 qs_scf_new_mos_kp                   30  5.0    0.000    0.000 1659.374 1676.373
 mp_alltoall_i22                 127376  8.7 1347.632 1652.747 1347.632 1652.747
 dbcsr_desymmetrize_deep          71664  7.4    1.149    1.763  941.744 1153.027
 rskp_transform                   15656  6.9  193.228 1032.702  193.228 1032.702
 dbcsr_complete_redistribute      55712  8.1    2.085    2.612  434.744  528.634
 kpoint_density_transform            30  7.0    0.143    0.170  517.281  518.973
 copy_fm_to_dbcsr                 15360  8.0    0.093    0.113  418.300  511.741
 transform_dmat                    7680  8.0   93.790  506.063   93.790  506.063
 qs_ks_update_qs_env                 30  5.0    0.000    0.000   25.525  101.193
 rebuild_ks_matrix                   30  6.0    0.000    0.000   19.251   94.919
 qs_ks_build_kohn_sham_matrix        30  7.0    0.223    0.241   19.251   94.919
 sum_up_and_integrate                30  8.0    0.000    0.000   17.754   93.221
 integrate_v_rspace                  30  9.0    0.236    1.256   17.753   93.220
 grid_integrate_task_list            30 10.0   17.128   91.781   17.128   91.781
 transfer_rs2pw                     126  8.0    0.002    0.002   71.291   87.668
 transfer_rs2pw_500                  33  8.9    0.034    0.040   71.250   87.626
 mp_sendrecv_dv                    1890 10.0   71.246   87.624   71.246   87.624
 qs_rho_update_rho_low               31  5.0    0.000    0.000   81.393   81.466
 calculate_rho_elec                  31  6.0    0.027    0.123   81.393   81.466
 density_rs2pw                       31  7.0    0.001    0.001   66.226   81.394
 grid_collocate_task_list            31  7.0   15.138   80.738   15.138   80.738
 copy_dbcsr_to_fm                 40352  6.7    0.440    0.502   28.564   29.146
 write_kpoints_restart               30  5.0    0.054    0.066   10.030   10.030
 cp_fm_start_copy_general         46672  7.3    0.934    1.272    9.060    9.311
 dbcsr_dot                       271201  8.0    1.472    3.423    7.592    7.948
 qs_energies_init_hamiltonians        1  3.0    0.000    0.000    7.706    7.706
 mp_sum_d                        271857  9.0    6.189    7.227    6.189    7.227
 build_core_hamiltonian_matrix        1  4.0    0.016    0.016    1.437    6.549
 cp_dbcsr_alloc_block_from_nbl    31822  5.0    1.096    5.523    1.306    6.521
 qs_env_update_s_mstruct              1  4.0    0.000    0.000    5.361    6.384
 calculate_rho_core                   1  5.0    0.000    0.002    5.119    6.338
 evaluate_core_matrix_traces         30  6.0    0.000    0.000    6.274    6.274
 calculate_ptrace_kp                 60  7.0    0.200    0.205    6.274    6.274
 mp_allgather_i                   93344  8.3    5.947    6.236    5.947    6.236
 cp_cfm_geeig_canon                 517  6.8    0.040    0.041    6.145    6.230
 mp_alltoall_d11v                382128  9.3    5.434    6.153    5.434    6.153
 dbcsr_finalize                  200060  7.7    0.821    0.968    5.313    5.779
 self_consistency_check              30  5.0    0.192    0.198    5.371    5.737
 cp_cfm_heevd                      1034  7.8    0.002    0.002    5.423    5.501
 cp_cfm_heevd_base                 1034  8.8    5.422    5.499    5.422    5.499
 cp_sm_mix                       135600  6.0    0.536    1.573    4.899    5.378
 mp_cart_sub                      80707  8.7    5.133    5.163    5.133    5.163
 mp_max_d                        135602  7.0    4.033    4.760    4.033    4.760
 init_scf_run                         1  3.0    0.000    0.000    4.163    4.511
 scf_env_initial_rho_setup            1  4.0    0.000    0.000    4.163    4.511
 dbcsr_create_new                486142  7.6    3.026    4.059    3.326    4.413
 cp_fm_write_unformatted           9040  6.0    2.706    3.942    2.887    4.363
 mp_alltoall_i11v                238800  8.9    3.816    4.178    3.816    4.178
 hybrid_alltoall_any              71664  8.4    0.298    0.324    3.429    3.983
 dbcsr_merge_all                  55712 10.1    2.110    2.542    3.153    3.532
 build_core_ppnl                      1  5.0    0.581    2.937    0.581    2.937
 dbcsr_copy                      291080  6.6    1.636    2.004    2.326    2.870
 mp_cart_create                   40359  8.7    2.775    2.866    2.775    2.866
 mixing_allocate                      1  3.0    0.026    0.026    0.440    1.944
 calculate_first_density_matrix       1  5.0    0.003    0.003    1.536    1.884
 calculate_atomic_block_dm            1  6.0    0.001    0.001    1.524    1.875
 dbcsr_set                       385465  7.1    0.336    0.355    0.719    1.818
 kpoint_set_mo_occupation            30  7.0    1.438    1.456    1.576    1.672
 copy_fm_to_dbcsr_bc              15360  9.0    0.210    0.237    0.856    1.646
 mp_bcast_iv                     186712  8.3    1.449    1.616    1.449    1.616
 dbcsr_iterator_start            761547  8.6    1.293    1.356    1.487    1.533
 dbcsr_zero                      385465  8.1    0.383    1.463    0.383    1.463
 dbcsr_work_create               127376  8.7    0.787    0.830    1.252    1.413
 build_overlap_matrix_low             1  5.0    0.086    0.341    0.288    1.291
 build_kinetic_matrix_low             1  5.0    0.087    0.347    0.287    1.282
 mp_send_dv                        9040  7.0    0.155    1.192    0.155    1.192
 dbcsr_reserve_blocks             47182  7.6    0.269    1.054    0.288    1.094
 dbcsr_data_new                 1416799  9.5    0.808    1.058    0.808    1.058
 calculate_ecore_overlap              1  4.0    0.000    0.000    0.846    1.042
 dbcsr_work_destroy_all          127376  9.7    0.617    0.633    0.962    1.016
 dbcsr_iterator_stop             761547  8.6    0.820    0.843    0.981    1.007
 copy_dbcsr_to_fm_bc              40352  7.7    0.419    0.447    0.944    0.980
 qs_env_rebuild_rho                   1  5.0    0.000    0.000    0.220    0.969
 qs_rho_rebuild                       1  6.0    0.013    0.013    0.219    0.969
 dbcsr_data_release             2321674  9.8    0.817    0.963    0.817    0.963
 tree_to_linear_d                 55712 11.1    0.810    0.956    0.810    0.956
 mp_sum_iv                           24  5.3    0.751    0.925    0.751    0.925
 qs_scf_ensure_work_matrices          1  3.0    0.000    0.000    0.751    0.925
 dbcsr_destroy                   214942  7.4    0.353    0.389    0.688    0.783
 kpoint_density_matrices             30  7.0    0.014    0.015    0.500    0.692
 parallel_gemm_fm                  1920  8.0    0.002    0.002    0.474    0.665
 parallel_gemm_fm_gemm             1920  9.0    0.002    0.002    0.473    0.664
 cp_fm_gemm                        1920 10.0    0.471    0.662    0.471    0.662
 cp_cfm_gemm                       1551  7.8    0.648    0.657    0.648    0.657
 cp_fm_finish_copy_general        17428  7.9    0.545    0.567    0.573    0.613
 fft_wrap_pw1pw2                    545 10.0    0.004    0.005    0.492    0.572
 fft_wrap_pw1pw2_500                362 11.3    0.013    0.013    0.454    0.535
 fft3d_ps                           545 12.0    0.076    0.087    0.448    0.529
 mp_bcast_im                      93344  8.3    0.473    0.507    0.473    0.507
 quick_finalize                   71664  9.4    0.194    0.260    0.330    0.472
 potential_pw2rs                     30 10.0    0.001    0.001    0.389    0.468
 mp_alltoall_z22v                   545 14.0    0.337    0.424    0.337    0.424
 mp_comm_free                    121100  8.7    0.384    0.421    0.384    0.421
 mp_recv_dv                       27120  7.0    0.026    0.421    0.026    0.421
 dbcsr_copy_into_existing         19880  9.1    0.138    0.260    0.249    0.379
 yz_to_x                            214 13.1    0.007    0.008    0.282    0.367
 mp_waitall_1                    191531  8.4    0.163    0.353    0.163    0.353
 dbcsr_iterator_seek             761547  9.6    0.195    0.253    0.195    0.253
 dbcsr_make_index_exist          486142  8.6    0.208    0.248    0.208    0.248
 mp_sum_dm3                          30  8.0    0.138    0.221    0.138    0.221
 dbcsr_sort_indices              174558 10.7    0.095    0.190    0.095    0.190
 -------------------------------------------------------------------------------

 The number of warnings for this run is : 1
 
 -------------------------------------------------------------------------------
  **** **** ******  **  PROGRAM ENDED AT                 2025-08-05 19:35:31.712
 ***** ** ***  *** **   PROGRAM RAN ON                              i01r11c05s08
 **    ****   ******    PROGRAM RAN BY                                   di38fab
 ***** **    ** ** **   PROGRAM PROCESS ID                                110624
  **** **  *******  **  PROGRAM STOPPED IN /hppfs/scratch/04/di38fab/09_GTH/Delt
                                           a_Set/Zn/aug-TZVP-MOLOPT-GTH-tier-2/8
                                           x8x8
