 DBCSR| CPU Multiplication driver                                           BLAS (U)
 DBCSR| Multrec recursion limit                                              512 (U)
 DBCSR| Multiplication stack size                                           1000 (D)
 DBCSR| Maximum elements for images                                    UNLIMITED (U)
 DBCSR| Multiplicative factor virtual images                                   1 (U)
 DBCSR| Use multiplication densification                                       T (D)
 DBCSR| Multiplication size stacks                                             3 (U)
 DBCSR| Use memory pool for CPU allocation                                     F (U)
 DBCSR| Number of 3D layers                                               SINGLE (U)
 DBCSR| Use MPI memory allocation                                              F (U)
 DBCSR| Use RMA algorithm                                                      F (U)
 DBCSR| Use Communication thread                                               T (U)
 DBCSR| Communication thread load                                             45 (D)
 DBCSR| MPI: My process id                                                     0
 DBCSR| MPI: Number of processes                                               8
 DBCSR| OMP: Current number of threads                                        12
 DBCSR| OMP: Max number of threads                                            12
 DBCSR| Split modifier for TAS multiplication algorithm                  1.0E+00 (U)


  **** **** ******  **  PROGRAM STARTED AT               2025-08-05 04:28:04.695
 ***** ** ***  *** **   PROGRAM STARTED ON                          i04r08c01s04
 **    ****   ******    PROGRAM STARTED BY                               di38fab
 ***** **    ** ** **   PROGRAM PROCESS ID                               2387315
  **** **  *******  **  PROGRAM STARTED IN /hppfs/scratch/04/di38fab/09_GTH/Delt
                                           a_Set/I/aug-DZVP-MOLOPT-GTH-tier-2-SR
                                           /8x8x8

 CP2K| version string:                 CP2K version 2025.1 (Development Version)
 CP2K| source code revision number:                                  git:3130539
 CP2K| cp2kflags: omp libint fftw3 libxc parallel scalapack max_contr=4         
 CP2K| is freely available from                            https://www.cp2k.org/
 CP2K| Program compiled at                         Tue Jun  3 16:14:32 CEST 2025
 CP2K| Program compiled on                                               login01
 CP2K| Program compiled for                                        Supermuc-foss
 CP2K| Data directory path                  /hppfs/work/pn36zo/di38fab/cp2k/data
 CP2K| Input file name                                                    GW.inp

 GLOBAL| Force Environment number                                              1
 GLOBAL| Basis set file name            /hppfs/scratch/04/di38fab/09_GTH/BASIS_A
 GLOBAL| Potential file name            /hppfs/work/pn36zo/di38fab/cp2k/data/GTH
 GLOBAL| MM Potential file name                                     MM_POTENTIAL
 GLOBAL| Coordinate file name                                              I.cif
 GLOBAL| Method name                                                        CP2K
 GLOBAL| Project name                                                       WSe2
 GLOBAL| Run type                                                         ENERGY
 GLOBAL| FFT library                                                       FFTW3
 GLOBAL| Diagonalization library                                       ScaLAPACK
 GLOBAL| Cholesky decomposition library                                ScaLAPACK
 GLOBAL| DGEMM library                                                      BLAS
 GLOBAL| Orthonormality check for eigenvectors                          DISABLED
 GLOBAL| Matrix multiplication library                                 ScaLAPACK
 GLOBAL| All-to-all communication in single precision                          F
 GLOBAL| FFTs using library dependent lengths                                  F
 GLOBAL| Grid backend                                                       AUTO
 GLOBAL| Global print level                                               MEDIUM
 GLOBAL| MPI I/O enabled                                                       T
 GLOBAL| Total number of message passing processes                             8
 GLOBAL| Number of threads for this process                                   12
 GLOBAL| This output is from process                                           0
 GLOBAL| OpenMP stack size per thread (OMP_STACKSIZE)                    default
 GLOBAL| CPU model name             Intel(R) Xeon(R) Platinum 8174 CPU @ 3.10GHz

 MEMORY| system memory details [Kb]
 MEMORY|                        rank 0           min           max       average
 MEMORY| MemTotal             98436660      98436660      98436708      98436684
 MEMORY| MemFree              84577880      84577880      86176780      85377330
 MEMORY| Buffers                     0             0             0             0
 MEMORY| Cached                2352080       2327732       2352080       2339906
 MEMORY| Slab                  1281712       1000836       1281712       1141274
 MEMORY| SReclaimable           280776        223200        280776        251988
 MEMORY| MemLikelyFree        87210736      87210736      88727712      87969224


 *** Fundamental physical constants (SI units) ***

 *** Literature: B. J. Mohr and B. N. Taylor,
 ***             CODATA recommended values of the fundamental physical
 ***             constants: 2006, Web Version 5.1
 ***             http://physics.nist.gov/constants

 Speed of light in vacuum [m/s]                             2.99792458000000E+08
 Magnetic constant or permeability of vacuum [N/A**2]       1.25663706143592E-06
 Electric constant or permittivity of vacuum [F/m]          8.85418781762039E-12
 Planck constant (h) [J*s]                                  6.62606896000000E-34
 Planck constant (h-bar) [J*s]                              1.05457162825177E-34
 Elementary charge [C]                                      1.60217648700000E-19
 Electron mass [kg]                                         9.10938215000000E-31
 Electron g factor [ ]                                     -2.00231930436220E+00
 Proton mass [kg]                                           1.67262163700000E-27
 Fine-structure constant                                    7.29735253760000E-03
 Rydberg constant [1/m]                                     1.09737315685270E+07
 Avogadro constant [1/mol]                                  6.02214179000000E+23
 Boltzmann constant [J/K]                                   1.38065040000000E-23
 Atomic mass unit [kg]                                      1.66053878200000E-27
 Bohr radius [m]                                            5.29177208590000E-11

 *** Conversion factors ***

 [u] -> [a.u.]                                              1.82288848426455E+03
 [Angstrom] -> [Bohr] = [a.u.]                              1.88972613288564E+00
 [a.u.] = [Bohr] -> [Angstrom]                              5.29177208590000E-01
 [a.u.] -> [s]                                              2.41888432650478E-17
 [a.u.] -> [fs]                                             2.41888432650478E-02
 [a.u.] -> [J]                                              4.35974393937059E-18
 [a.u.] -> [N]                                              8.23872205491840E-08
 [a.u.] -> [K]                                              3.15774647902944E+05
 [a.u.] -> [kJ/mol]                                         2.62549961709828E+03
 [a.u.] -> [kcal/mol]                                       6.27509468713739E+02
 [a.u.] -> [Pa]                                             2.94210107994716E+13
 [a.u.] -> [bar]                                            2.94210107994716E+08
 [a.u.] -> [atm]                                            2.90362800883016E+08
 [a.u.] -> [eV]                                             2.72113838565563E+01
 [a.u.] -> [Hz]                                             6.57968392072181E+15
 [a.u.] -> [1/cm] (wave numbers)                            2.19474631370540E+05
 [a.u./Bohr**2] -> [1/cm]                                   5.14048714338585E+03
 

 CELL_TOP| Volume [angstrom^3]:                                       397.795816
 CELL_TOP| Vector a [angstrom     8.577     0.000     0.000   |a| =     8.577010
 CELL_TOP| Vector b [angstrom     0.000     4.554     0.000   |b| =     4.554220
 CELL_TOP| Vector c [angstrom     0.000     0.000    10.184   |c| =    10.183810
 CELL_TOP| Angle (b,c), alpha [degree]:                                90.000000
 CELL_TOP| Angle (a,c), beta  [degree]:                                90.000000
 CELL_TOP| Angle (a,b), gamma [degree]:                                90.000000
 CELL_TOP| Numerically orthorhombic:                                         YES
 CELL_TOP| Periodicity                                                       XYZ

 CELL_CIF| Volume [angstrom^3]:                                       397.795816
 CELL_CIF| Vector a [angstrom     8.577     0.000     0.000   |a| =     8.577010
 CELL_CIF| Vector b [angstrom     0.000     4.554     0.000   |b| =     4.554220
 CELL_CIF| Vector c [angstrom     0.000     0.000    10.184   |c| =    10.183810
 CELL_CIF| Angle (b,c), alpha [degree]:                                90.000000
 CELL_CIF| Angle (a,c), beta  [degree]:                                90.000000
 CELL_CIF| Angle (a,b), gamma [degree]:                                90.000000
 CELL_CIF| Numerically orthorhombic:                                         YES
 CELL_CIF| Periodicity                                                       XYZ

 GENERATE|  Preliminary Number of Bonds generated:                             0
 GENERATE|  Achieved consistency in connectivity generation.

 CELL| Volume [angstrom^3]:                                           397.795816
 CELL| Vector a [angstrom]:       8.577     0.000     0.000   |a| =     8.577010
 CELL| Vector b [angstrom]:       0.000     4.554     0.000   |b| =     4.554220
 CELL| Vector c [angstrom]:       0.000     0.000    10.184   |c| =    10.183810
 CELL| Angle (b,c), alpha [degree]:                                    90.000000
 CELL| Angle (a,c), beta  [degree]:                                    90.000000
 CELL| Angle (a,b), gamma [degree]:                                    90.000000
 CELL| Numerically orthorhombic:                                             YES
 CELL| Periodicity                                                           XYZ

 CELL_REF| Volume [angstrom^3]:                                       397.795816
 CELL_REF| Vector a [angstrom     8.577     0.000     0.000   |a| =     8.577010
 CELL_REF| Vector b [angstrom     0.000     4.554     0.000   |b| =     4.554220
 CELL_REF| Vector c [angstrom     0.000     0.000    10.184   |c| =    10.183810
 CELL_REF| Angle (b,c), alpha [degree]:                                90.000000
 CELL_REF| Angle (a,c), beta  [degree]:                                90.000000
 CELL_REF| Angle (a,b), gamma [degree]:                                90.000000
 CELL_REF| Numerically orthorhombic:                                         YES
 CELL_REF| Periodicity                                                       XYZ

 *** WARNING in cryssym.F:180 :: Symmetry library SPGLIB not available ***


 *******************************************************************************
                                    Kpoints
 *******************************************************************************
 BRILLOUIN| K-point scheme                                        Monkhorst-Pack
 BRILLOUIN| K-Point grid                                             8    8    8
 BRILLOUIN| Accuracy in Symmetry determination                      0.100000E-05
 BRILLOUIN| K-Point point group symmetrization                               OFF
 BRILLOUIN| Wavefunction type                                            COMPLEX
 BRILLOUIN| List of Kpoints [2 Pi/Bohr]                                      256
 BRILLOUIN| Number           Weight            X              Y              Z
 BRILLOUIN|     1           0.00391       -0.43750       -0.43750       -0.43750
 BRILLOUIN|     2           0.00391       -0.43750       -0.43750       -0.31250
 BRILLOUIN|     3           0.00391       -0.43750       -0.43750       -0.18750
 BRILLOUIN|     4           0.00391       -0.43750       -0.43750       -0.06250
 BRILLOUIN|     5           0.00391       -0.43750       -0.43750        0.06250
 BRILLOUIN|     6           0.00391       -0.43750       -0.43750        0.18750
 BRILLOUIN|     7           0.00391       -0.43750       -0.43750        0.31250
 BRILLOUIN|     8           0.00391       -0.43750       -0.43750        0.43750
 BRILLOUIN|     9           0.00391       -0.43750       -0.31250       -0.43750
 BRILLOUIN|    10           0.00391       -0.43750       -0.31250       -0.31250
 BRILLOUIN|    11           0.00391       -0.43750       -0.31250       -0.18750
 BRILLOUIN|    12           0.00391       -0.43750       -0.31250       -0.06250
 BRILLOUIN|    13           0.00391       -0.43750       -0.31250        0.06250
 BRILLOUIN|    14           0.00391       -0.43750       -0.31250        0.18750
 BRILLOUIN|    15           0.00391       -0.43750       -0.31250        0.31250
 BRILLOUIN|    16           0.00391       -0.43750       -0.31250        0.43750
 BRILLOUIN|    17           0.00391       -0.43750       -0.18750       -0.43750
 BRILLOUIN|    18           0.00391       -0.43750       -0.18750       -0.31250
 BRILLOUIN|    19           0.00391       -0.43750       -0.18750       -0.18750
 BRILLOUIN|    20           0.00391       -0.43750       -0.18750       -0.06250
 BRILLOUIN|    21           0.00391       -0.43750       -0.18750        0.06250
 BRILLOUIN|    22           0.00391       -0.43750       -0.18750        0.18750
 BRILLOUIN|    23           0.00391       -0.43750       -0.18750        0.31250
 BRILLOUIN|    24           0.00391       -0.43750       -0.18750        0.43750
 BRILLOUIN|    25           0.00391       -0.43750       -0.06250       -0.43750
 BRILLOUIN|    26           0.00391       -0.43750       -0.06250       -0.31250
 BRILLOUIN|    27           0.00391       -0.43750       -0.06250       -0.18750
 BRILLOUIN|    28           0.00391       -0.43750       -0.06250       -0.06250
 BRILLOUIN|    29           0.00391       -0.43750       -0.06250        0.06250
 BRILLOUIN|    30           0.00391       -0.43750       -0.06250        0.18750
 BRILLOUIN|    31           0.00391       -0.43750       -0.06250        0.31250
 BRILLOUIN|    32           0.00391       -0.43750       -0.06250        0.43750
 BRILLOUIN|    33           0.00391       -0.43750        0.06250       -0.43750
 BRILLOUIN|    34           0.00391       -0.43750        0.06250       -0.31250
 BRILLOUIN|    35           0.00391       -0.43750        0.06250       -0.18750
 BRILLOUIN|    36           0.00391       -0.43750        0.06250       -0.06250
 BRILLOUIN|    37           0.00391       -0.43750        0.06250        0.06250
 BRILLOUIN|    38           0.00391       -0.43750        0.06250        0.18750
 BRILLOUIN|    39           0.00391       -0.43750        0.06250        0.31250
 BRILLOUIN|    40           0.00391       -0.43750        0.06250        0.43750
 BRILLOUIN|    41           0.00391       -0.43750        0.18750       -0.43750
 BRILLOUIN|    42           0.00391       -0.43750        0.18750       -0.31250
 BRILLOUIN|    43           0.00391       -0.43750        0.18750       -0.18750
 BRILLOUIN|    44           0.00391       -0.43750        0.18750       -0.06250
 BRILLOUIN|    45           0.00391       -0.43750        0.18750        0.06250
 BRILLOUIN|    46           0.00391       -0.43750        0.18750        0.18750
 BRILLOUIN|    47           0.00391       -0.43750        0.18750        0.31250
 BRILLOUIN|    48           0.00391       -0.43750        0.18750        0.43750
 BRILLOUIN|    49           0.00391       -0.43750        0.31250       -0.43750
 BRILLOUIN|    50           0.00391       -0.43750        0.31250       -0.31250
 BRILLOUIN|    51           0.00391       -0.43750        0.31250       -0.18750
 BRILLOUIN|    52           0.00391       -0.43750        0.31250       -0.06250
 BRILLOUIN|    53           0.00391       -0.43750        0.31250        0.06250
 BRILLOUIN|    54           0.00391       -0.43750        0.31250        0.18750
 BRILLOUIN|    55           0.00391       -0.43750        0.31250        0.31250
 BRILLOUIN|    56           0.00391       -0.43750        0.31250        0.43750
 BRILLOUIN|    57           0.00391       -0.43750        0.43750       -0.43750
 BRILLOUIN|    58           0.00391       -0.43750        0.43750       -0.31250
 BRILLOUIN|    59           0.00391       -0.43750        0.43750       -0.18750
 BRILLOUIN|    60           0.00391       -0.43750        0.43750       -0.06250
 BRILLOUIN|    61           0.00391       -0.43750        0.43750        0.06250
 BRILLOUIN|    62           0.00391       -0.43750        0.43750        0.18750
 BRILLOUIN|    63           0.00391       -0.43750        0.43750        0.31250
 BRILLOUIN|    64           0.00391       -0.43750        0.43750        0.43750
 BRILLOUIN|    65           0.00391       -0.31250       -0.43750       -0.43750
 BRILLOUIN|    66           0.00391       -0.31250       -0.43750       -0.31250
 BRILLOUIN|    67           0.00391       -0.31250       -0.43750       -0.18750
 BRILLOUIN|    68           0.00391       -0.31250       -0.43750       -0.06250
 BRILLOUIN|    69           0.00391       -0.31250       -0.43750        0.06250
 BRILLOUIN|    70           0.00391       -0.31250       -0.43750        0.18750
 BRILLOUIN|    71           0.00391       -0.31250       -0.43750        0.31250
 BRILLOUIN|    72           0.00391       -0.31250       -0.43750        0.43750
 BRILLOUIN|    73           0.00391       -0.31250       -0.31250       -0.43750
 BRILLOUIN|    74           0.00391       -0.31250       -0.31250       -0.31250
 BRILLOUIN|    75           0.00391       -0.31250       -0.31250       -0.18750
 BRILLOUIN|    76           0.00391       -0.31250       -0.31250       -0.06250
 BRILLOUIN|    77           0.00391       -0.31250       -0.31250        0.06250
 BRILLOUIN|    78           0.00391       -0.31250       -0.31250        0.18750
 BRILLOUIN|    79           0.00391       -0.31250       -0.31250        0.31250
 BRILLOUIN|    80           0.00391       -0.31250       -0.31250        0.43750
 BRILLOUIN|    81           0.00391       -0.31250       -0.18750       -0.43750
 BRILLOUIN|    82           0.00391       -0.31250       -0.18750       -0.31250
 BRILLOUIN|    83           0.00391       -0.31250       -0.18750       -0.18750
 BRILLOUIN|    84           0.00391       -0.31250       -0.18750       -0.06250
 BRILLOUIN|    85           0.00391       -0.31250       -0.18750        0.06250
 BRILLOUIN|    86           0.00391       -0.31250       -0.18750        0.18750
 BRILLOUIN|    87           0.00391       -0.31250       -0.18750        0.31250
 BRILLOUIN|    88           0.00391       -0.31250       -0.18750        0.43750
 BRILLOUIN|    89           0.00391       -0.31250       -0.06250       -0.43750
 BRILLOUIN|    90           0.00391       -0.31250       -0.06250       -0.31250
 BRILLOUIN|    91           0.00391       -0.31250       -0.06250       -0.18750
 BRILLOUIN|    92           0.00391       -0.31250       -0.06250       -0.06250
 BRILLOUIN|    93           0.00391       -0.31250       -0.06250        0.06250
 BRILLOUIN|    94           0.00391       -0.31250       -0.06250        0.18750
 BRILLOUIN|    95           0.00391       -0.31250       -0.06250        0.31250
 BRILLOUIN|    96           0.00391       -0.31250       -0.06250        0.43750
 BRILLOUIN|    97           0.00391       -0.31250        0.06250       -0.43750
 BRILLOUIN|    98           0.00391       -0.31250        0.06250       -0.31250
 BRILLOUIN|    99           0.00391       -0.31250        0.06250       -0.18750
 BRILLOUIN|   100           0.00391       -0.31250        0.06250       -0.06250
 BRILLOUIN|   101           0.00391       -0.31250        0.06250        0.06250
 BRILLOUIN|   102           0.00391       -0.31250        0.06250        0.18750
 BRILLOUIN|   103           0.00391       -0.31250        0.06250        0.31250
 BRILLOUIN|   104           0.00391       -0.31250        0.06250        0.43750
 BRILLOUIN|   105           0.00391       -0.31250        0.18750       -0.43750
 BRILLOUIN|   106           0.00391       -0.31250        0.18750       -0.31250
 BRILLOUIN|   107           0.00391       -0.31250        0.18750       -0.18750
 BRILLOUIN|   108           0.00391       -0.31250        0.18750       -0.06250
 BRILLOUIN|   109           0.00391       -0.31250        0.18750        0.06250
 BRILLOUIN|   110           0.00391       -0.31250        0.18750        0.18750
 BRILLOUIN|   111           0.00391       -0.31250        0.18750        0.31250
 BRILLOUIN|   112           0.00391       -0.31250        0.18750        0.43750
 BRILLOUIN|   113           0.00391       -0.31250        0.31250       -0.43750
 BRILLOUIN|   114           0.00391       -0.31250        0.31250       -0.31250
 BRILLOUIN|   115           0.00391       -0.31250        0.31250       -0.18750
 BRILLOUIN|   116           0.00391       -0.31250        0.31250       -0.06250
 BRILLOUIN|   117           0.00391       -0.31250        0.31250        0.06250
 BRILLOUIN|   118           0.00391       -0.31250        0.31250        0.18750
 BRILLOUIN|   119           0.00391       -0.31250        0.31250        0.31250
 BRILLOUIN|   120           0.00391       -0.31250        0.31250        0.43750
 BRILLOUIN|   121           0.00391       -0.31250        0.43750       -0.43750
 BRILLOUIN|   122           0.00391       -0.31250        0.43750       -0.31250
 BRILLOUIN|   123           0.00391       -0.31250        0.43750       -0.18750
 BRILLOUIN|   124           0.00391       -0.31250        0.43750       -0.06250
 BRILLOUIN|   125           0.00391       -0.31250        0.43750        0.06250
 BRILLOUIN|   126           0.00391       -0.31250        0.43750        0.18750
 BRILLOUIN|   127           0.00391       -0.31250        0.43750        0.31250
 BRILLOUIN|   128           0.00391       -0.31250        0.43750        0.43750
 BRILLOUIN|   129           0.00391       -0.18750       -0.43750       -0.43750
 BRILLOUIN|   130           0.00391       -0.18750       -0.43750       -0.31250
 BRILLOUIN|   131           0.00391       -0.18750       -0.43750       -0.18750
 BRILLOUIN|   132           0.00391       -0.18750       -0.43750       -0.06250
 BRILLOUIN|   133           0.00391       -0.18750       -0.43750        0.06250
 BRILLOUIN|   134           0.00391       -0.18750       -0.43750        0.18750
 BRILLOUIN|   135           0.00391       -0.18750       -0.43750        0.31250
 BRILLOUIN|   136           0.00391       -0.18750       -0.43750        0.43750
 BRILLOUIN|   137           0.00391       -0.18750       -0.31250       -0.43750
 BRILLOUIN|   138           0.00391       -0.18750       -0.31250       -0.31250
 BRILLOUIN|   139           0.00391       -0.18750       -0.31250       -0.18750
 BRILLOUIN|   140           0.00391       -0.18750       -0.31250       -0.06250
 BRILLOUIN|   141           0.00391       -0.18750       -0.31250        0.06250
 BRILLOUIN|   142           0.00391       -0.18750       -0.31250        0.18750
 BRILLOUIN|   143           0.00391       -0.18750       -0.31250        0.31250
 BRILLOUIN|   144           0.00391       -0.18750       -0.31250        0.43750
 BRILLOUIN|   145           0.00391       -0.18750       -0.18750       -0.43750
 BRILLOUIN|   146           0.00391       -0.18750       -0.18750       -0.31250
 BRILLOUIN|   147           0.00391       -0.18750       -0.18750       -0.18750
 BRILLOUIN|   148           0.00391       -0.18750       -0.18750       -0.06250
 BRILLOUIN|   149           0.00391       -0.18750       -0.18750        0.06250
 BRILLOUIN|   150           0.00391       -0.18750       -0.18750        0.18750
 BRILLOUIN|   151           0.00391       -0.18750       -0.18750        0.31250
 BRILLOUIN|   152           0.00391       -0.18750       -0.18750        0.43750
 BRILLOUIN|   153           0.00391       -0.18750       -0.06250       -0.43750
 BRILLOUIN|   154           0.00391       -0.18750       -0.06250       -0.31250
 BRILLOUIN|   155           0.00391       -0.18750       -0.06250       -0.18750
 BRILLOUIN|   156           0.00391       -0.18750       -0.06250       -0.06250
 BRILLOUIN|   157           0.00391       -0.18750       -0.06250        0.06250
 BRILLOUIN|   158           0.00391       -0.18750       -0.06250        0.18750
 BRILLOUIN|   159           0.00391       -0.18750       -0.06250        0.31250
 BRILLOUIN|   160           0.00391       -0.18750       -0.06250        0.43750
 BRILLOUIN|   161           0.00391       -0.18750        0.06250       -0.43750
 BRILLOUIN|   162           0.00391       -0.18750        0.06250       -0.31250
 BRILLOUIN|   163           0.00391       -0.18750        0.06250       -0.18750
 BRILLOUIN|   164           0.00391       -0.18750        0.06250       -0.06250
 BRILLOUIN|   165           0.00391       -0.18750        0.06250        0.06250
 BRILLOUIN|   166           0.00391       -0.18750        0.06250        0.18750
 BRILLOUIN|   167           0.00391       -0.18750        0.06250        0.31250
 BRILLOUIN|   168           0.00391       -0.18750        0.06250        0.43750
 BRILLOUIN|   169           0.00391       -0.18750        0.18750       -0.43750
 BRILLOUIN|   170           0.00391       -0.18750        0.18750       -0.31250
 BRILLOUIN|   171           0.00391       -0.18750        0.18750       -0.18750
 BRILLOUIN|   172           0.00391       -0.18750        0.18750       -0.06250
 BRILLOUIN|   173           0.00391       -0.18750        0.18750        0.06250
 BRILLOUIN|   174           0.00391       -0.18750        0.18750        0.18750
 BRILLOUIN|   175           0.00391       -0.18750        0.18750        0.31250
 BRILLOUIN|   176           0.00391       -0.18750        0.18750        0.43750
 BRILLOUIN|   177           0.00391       -0.18750        0.31250       -0.43750
 BRILLOUIN|   178           0.00391       -0.18750        0.31250       -0.31250
 BRILLOUIN|   179           0.00391       -0.18750        0.31250       -0.18750
 BRILLOUIN|   180           0.00391       -0.18750        0.31250       -0.06250
 BRILLOUIN|   181           0.00391       -0.18750        0.31250        0.06250
 BRILLOUIN|   182           0.00391       -0.18750        0.31250        0.18750
 BRILLOUIN|   183           0.00391       -0.18750        0.31250        0.31250
 BRILLOUIN|   184           0.00391       -0.18750        0.31250        0.43750
 BRILLOUIN|   185           0.00391       -0.18750        0.43750       -0.43750
 BRILLOUIN|   186           0.00391       -0.18750        0.43750       -0.31250
 BRILLOUIN|   187           0.00391       -0.18750        0.43750       -0.18750
 BRILLOUIN|   188           0.00391       -0.18750        0.43750       -0.06250
 BRILLOUIN|   189           0.00391       -0.18750        0.43750        0.06250
 BRILLOUIN|   190           0.00391       -0.18750        0.43750        0.18750
 BRILLOUIN|   191           0.00391       -0.18750        0.43750        0.31250
 BRILLOUIN|   192           0.00391       -0.18750        0.43750        0.43750
 BRILLOUIN|   193           0.00391       -0.06250       -0.43750       -0.43750
 BRILLOUIN|   194           0.00391       -0.06250       -0.43750       -0.31250
 BRILLOUIN|   195           0.00391       -0.06250       -0.43750       -0.18750
 BRILLOUIN|   196           0.00391       -0.06250       -0.43750       -0.06250
 BRILLOUIN|   197           0.00391       -0.06250       -0.43750        0.06250
 BRILLOUIN|   198           0.00391       -0.06250       -0.43750        0.18750
 BRILLOUIN|   199           0.00391       -0.06250       -0.43750        0.31250
 BRILLOUIN|   200           0.00391       -0.06250       -0.43750        0.43750
 BRILLOUIN|   201           0.00391       -0.06250       -0.31250       -0.43750
 BRILLOUIN|   202           0.00391       -0.06250       -0.31250       -0.31250
 BRILLOUIN|   203           0.00391       -0.06250       -0.31250       -0.18750
 BRILLOUIN|   204           0.00391       -0.06250       -0.31250       -0.06250
 BRILLOUIN|   205           0.00391       -0.06250       -0.31250        0.06250
 BRILLOUIN|   206           0.00391       -0.06250       -0.31250        0.18750
 BRILLOUIN|   207           0.00391       -0.06250       -0.31250        0.31250
 BRILLOUIN|   208           0.00391       -0.06250       -0.31250        0.43750
 BRILLOUIN|   209           0.00391       -0.06250       -0.18750       -0.43750
 BRILLOUIN|   210           0.00391       -0.06250       -0.18750       -0.31250
 BRILLOUIN|   211           0.00391       -0.06250       -0.18750       -0.18750
 BRILLOUIN|   212           0.00391       -0.06250       -0.18750       -0.06250
 BRILLOUIN|   213           0.00391       -0.06250       -0.18750        0.06250
 BRILLOUIN|   214           0.00391       -0.06250       -0.18750        0.18750
 BRILLOUIN|   215           0.00391       -0.06250       -0.18750        0.31250
 BRILLOUIN|   216           0.00391       -0.06250       -0.18750        0.43750
 BRILLOUIN|   217           0.00391       -0.06250       -0.06250       -0.43750
 BRILLOUIN|   218           0.00391       -0.06250       -0.06250       -0.31250
 BRILLOUIN|   219           0.00391       -0.06250       -0.06250       -0.18750
 BRILLOUIN|   220           0.00391       -0.06250       -0.06250       -0.06250
 BRILLOUIN|   221           0.00391       -0.06250       -0.06250        0.06250
 BRILLOUIN|   222           0.00391       -0.06250       -0.06250        0.18750
 BRILLOUIN|   223           0.00391       -0.06250       -0.06250        0.31250
 BRILLOUIN|   224           0.00391       -0.06250       -0.06250        0.43750
 BRILLOUIN|   225           0.00391       -0.06250        0.06250       -0.43750
 BRILLOUIN|   226           0.00391       -0.06250        0.06250       -0.31250
 BRILLOUIN|   227           0.00391       -0.06250        0.06250       -0.18750
 BRILLOUIN|   228           0.00391       -0.06250        0.06250       -0.06250
 BRILLOUIN|   229           0.00391       -0.06250        0.06250        0.06250
 BRILLOUIN|   230           0.00391       -0.06250        0.06250        0.18750
 BRILLOUIN|   231           0.00391       -0.06250        0.06250        0.31250
 BRILLOUIN|   232           0.00391       -0.06250        0.06250        0.43750
 BRILLOUIN|   233           0.00391       -0.06250        0.18750       -0.43750
 BRILLOUIN|   234           0.00391       -0.06250        0.18750       -0.31250
 BRILLOUIN|   235           0.00391       -0.06250        0.18750       -0.18750
 BRILLOUIN|   236           0.00391       -0.06250        0.18750       -0.06250
 BRILLOUIN|   237           0.00391       -0.06250        0.18750        0.06250
 BRILLOUIN|   238           0.00391       -0.06250        0.18750        0.18750
 BRILLOUIN|   239           0.00391       -0.06250        0.18750        0.31250
 BRILLOUIN|   240           0.00391       -0.06250        0.18750        0.43750
 BRILLOUIN|   241           0.00391       -0.06250        0.31250       -0.43750
 BRILLOUIN|   242           0.00391       -0.06250        0.31250       -0.31250
 BRILLOUIN|   243           0.00391       -0.06250        0.31250       -0.18750
 BRILLOUIN|   244           0.00391       -0.06250        0.31250       -0.06250
 BRILLOUIN|   245           0.00391       -0.06250        0.31250        0.06250
 BRILLOUIN|   246           0.00391       -0.06250        0.31250        0.18750
 BRILLOUIN|   247           0.00391       -0.06250        0.31250        0.31250
 BRILLOUIN|   248           0.00391       -0.06250        0.31250        0.43750
 BRILLOUIN|   249           0.00391       -0.06250        0.43750       -0.43750
 BRILLOUIN|   250           0.00391       -0.06250        0.43750       -0.31250
 BRILLOUIN|   251           0.00391       -0.06250        0.43750       -0.18750
 BRILLOUIN|   252           0.00391       -0.06250        0.43750       -0.06250
 BRILLOUIN|   253           0.00391       -0.06250        0.43750        0.06250
 BRILLOUIN|   254           0.00391       -0.06250        0.43750        0.18750
 BRILLOUIN|   255           0.00391       -0.06250        0.43750        0.31250
 BRILLOUIN|   256           0.00391       -0.06250        0.43750        0.43750
 *******************************************************************************

 *******************************************************************************
 *******************************************************************************
 **                                                                           **
 **     #####                         ##              ##                      **
 **    ##   ##            ##          ##              ##                      **
 **   ##     ##                       ##            ######                    **
 **   ##     ##  ##   ##  ##   #####  ##  ##   ####   ##    #####    #####    **
 **   ##     ##  ##   ##  ##  ##      ## ##   ##      ##   ##   ##  ##   ##   **
 **   ##  ## ##  ##   ##  ##  ##      ####     ###    ##   ######   ######    **
 **    ##  ###   ##   ##  ##  ##      ## ##      ##   ##   ##       ##        **
 **     #######   #####   ##   #####  ##  ##  ####    ##    #####   ##        **
 **           ##                                                    ##        **
 **                                                                           **
 **                                                ... make the atoms dance   **
 **                                                                           **
 **            Copyright (C) by CP2K developers group (2000-2025)             **
 **                      J. Chem. Phys. 152, 194103 (2020)                    **
 **                                                                           **
 *******************************************************************************

 DFT| Spin restricted Kohn-Sham (RKS) calculation                            RKS
 DFT| Multiplicity                                                             1
 DFT| Number of spin states                                                    1
 DFT| Charge                                                                   0
 DFT| Self-interaction correction (SIC)                                       NO
 DFT| Cutoffs: density                                              1.000000E-10
 DFT|          gradient                                             1.000000E-10
 DFT|          tau                                                  1.000000E-10
 DFT|          cutoff_smoothing_range                               0.000000E+00
 DFT| XC density smoothing                                                  NONE
 DFT| XC derivatives                                                          PW

 FUNCTIONAL| PBE:
 FUNCTIONAL| J.P.Perdew, K.Burke, M.Ernzerhof, Phys. Rev. Letter, vol. 77, n 18,
 FUNCTIONAL|  pp. 3865-3868, (1996) {spin unpolarized}                          


 QS| Method:                                                                 GPW
 QS| Density plane wave grid type                        NON-SPHERICAL FULLSPACE
 QS| Number of grid levels:                                                    4
 QS| Density cutoff [a.u.]:                                                500.0
 QS| Multi grid cutoff [a.u.]: 1) grid level                               500.0
 QS|                           2) grid level                               166.7
 QS|                           3) grid level                                55.6
 QS|                           4) grid level                                18.5
 QS| Grid level progression factor:                                          3.0
 QS| Relative density cutoff [a.u.]:                                        50.0
 QS| Interaction thresholds: eps_pgf_orb:                                1.0E-16
 QS|                         eps_filter_matrix:                          0.0E+00
 QS|                         eps_core_charge:                            1.0E-18
 QS|                         eps_rho_gspace:                             1.0E-16
 QS|                         eps_rho_rspace:                             1.0E-16
 QS|                         eps_gvg_rspace:                             1.0E-08
 QS|                         eps_ppl:                                    1.0E-02
 QS|                         eps_ppnl:                                   1.0E-10


 ATOMIC KIND INFORMATION

  1. Atomic kind: I                                     Number of atoms:       8

     Orbital Basis Set                             aug-DZVP-MOLOPT-GTH-tier-2-SR

       Number of orbital shell sets:                                           1
       Number of orbital shells:                                               9
       Number of primitive Cartesian functions:                                6
       Number of Cartesian basis functions:                                   34
       Number of spherical basis functions:                                   29
       Norm type:                                                              2

       Normalised Cartesian orbitals:

                        Set   Shell   Orbital            Exponent    Coefficient

                          1       1    2s                0.083015       0.018311
                                                         0.129293       0.000000
                                                         0.201369       0.106470
                                                         0.367159       0.255165
                                                         0.828886      -0.032154
                                                         0.966173      -0.369082

                          1       2    3s                0.083015       0.146292
                                                         0.129293       0.000000
                                                         0.201369      -0.294034
                                                         0.367159       0.177969
                                                         0.828886      -0.158631
                                                         0.966173       0.683205

                          1       3    4s                0.083015       0.179199
                                                         0.129293      -0.532564
                                                         0.201369       0.060000
                                                         0.367159       0.433702
                                                         0.828886       0.152444
                                                         0.966173       0.179071

                          1       4    3px               0.083015       0.016495
                                                         0.129293       0.000000
                                                         0.201369       0.101262
                                                         0.367159       0.107862
                                                         0.828886       0.783765
                                                         0.966173      -1.009678
                          1       4    3py               0.083015       0.016495
                                                         0.129293       0.000000
                                                         0.201369       0.101262
                                                         0.367159       0.107862
                                                         0.828886       0.783765
                                                         0.966173      -1.009678
                          1       4    3pz               0.083015       0.016495
                                                         0.129293       0.000000
                                                         0.201369       0.101262
                                                         0.367159       0.107862
                                                         0.828886       0.783765
                                                         0.966173      -1.009678

                          1       5    4px               0.083015       0.074319
                                                         0.129293       0.000000
                                                         0.201369      -0.016515
                                                         0.367159      -0.104560
                                                         0.828886      -0.244536
                                                         0.966173       0.359095
                          1       5    4py               0.083015       0.074319
                                                         0.129293       0.000000
                                                         0.201369      -0.016515
                                                         0.367159      -0.104560
                                                         0.828886      -0.244536
                                                         0.966173       0.359095
                          1       5    4pz               0.083015       0.074319
                                                         0.129293       0.000000
                                                         0.201369      -0.016515
                                                         0.367159      -0.104560
                                                         0.828886      -0.244536
                                                         0.966173       0.359095

                          1       6    5px               0.083015      -0.031835
                                                         0.129293       0.004228
                                                         0.201369       0.003515
                                                         0.367159       0.209242
                                                         0.828886       0.218593
                                                         0.966173       0.578639
                          1       6    5py               0.083015      -0.031835
                                                         0.129293       0.004228
                                                         0.201369       0.003515
                                                         0.367159       0.209242
                                                         0.828886       0.218593
                                                         0.966173       0.578639
                          1       6    5pz               0.083015      -0.031835
                                                         0.129293       0.004228
                                                         0.201369       0.003515
                                                         0.367159       0.209242
                                                         0.828886       0.218593
                                                         0.966173       0.578639

                          1       7    4dx2              0.083015      -0.003796
                                                         0.129293       0.000000
                                                         0.201369      -0.050939
                                                         0.367159      -0.113356
                                                         0.828886      -0.290637
                                                         0.966173       0.425303
                          1       7    4dxy              0.083015      -0.006576
                                                         0.129293       0.000000
                                                         0.201369      -0.088229
                                                         0.367159      -0.196338
                                                         0.828886      -0.503398
                                                         0.966173       0.736647
                          1       7    4dxz              0.083015      -0.006576
                                                         0.129293       0.000000
                                                         0.201369      -0.088229
                                                         0.367159      -0.196338
                                                         0.828886      -0.503398
                                                         0.966173       0.736647
                          1       7    4dy2              0.083015      -0.003796
                                                         0.129293       0.000000
                                                         0.201369      -0.050939
                                                         0.367159      -0.113356
                                                         0.828886      -0.290637
                                                         0.966173       0.425303
                          1       7    4dyz              0.083015      -0.006576
                                                         0.129293       0.000000
                                                         0.201369      -0.088229
                                                         0.367159      -0.196338
                                                         0.828886      -0.503398
                                                         0.966173       0.736647
                          1       7    4dz2              0.083015      -0.003796
                                                         0.129293       0.000000
                                                         0.201369      -0.050939
                                                         0.367159      -0.113356
                                                         0.828886      -0.290637
                                                         0.966173       0.425303

                          1       8    5dx2              0.083015       0.021745
                                                         0.129293      -0.001429
                                                         0.201369       0.007813
                                                         0.367159      -0.044058
                                                         0.828886       0.023109
                                                         0.966173       0.006116
                          1       8    5dxy              0.083015       0.037663
                                                         0.129293      -0.002475
                                                         0.201369       0.013532
                                                         0.367159      -0.076311
                                                         0.828886       0.040026
                                                         0.966173       0.010592
                          1       8    5dxz              0.083015       0.037663
                                                         0.129293      -0.002475
                                                         0.201369       0.013532
                                                         0.367159      -0.076311
                                                         0.828886       0.040026
                                                         0.966173       0.010592
                          1       8    5dy2              0.083015       0.021745
                                                         0.129293      -0.001429
                                                         0.201369       0.007813
                                                         0.367159      -0.044058
                                                         0.828886       0.023109
                                                         0.966173       0.006116
                          1       8    5dyz              0.083015       0.037663
                                                         0.129293      -0.002475
                                                         0.201369       0.013532
                                                         0.367159      -0.076311
                                                         0.828886       0.040026
                                                         0.966173       0.010592
                          1       8    5dz2              0.083015       0.021745
                                                         0.129293      -0.001429
                                                         0.201369       0.007813
                                                         0.367159      -0.044058
                                                         0.828886       0.023109
                                                         0.966173       0.006116

                          1       9    5fx3              0.083015      -0.000953
                                                         0.129293       0.002417
                                                         0.201369       0.031470
                                                         0.367159       0.019607
                                                         0.828886       0.126931
                                                         0.966173       0.025814
                          1       9    5fx2y             0.083015      -0.002132
                                                         0.129293       0.005405
                                                         0.201369       0.070370
                                                         0.367159       0.043844
                                                         0.828886       0.283827
                                                         0.966173       0.057722
                          1       9    5fx2z             0.083015      -0.002132
                                                         0.129293       0.005405
                                                         0.201369       0.070370
                                                         0.367159       0.043844
                                                         0.828886       0.283827
                                                         0.966173       0.057722
                          1       9    5fxy2             0.083015      -0.002132
                                                         0.129293       0.005405
                                                         0.201369       0.070370
                                                         0.367159       0.043844
                                                         0.828886       0.283827
                                                         0.966173       0.057722
                          1       9    5fxyz             0.083015      -0.003692
                                                         0.129293       0.009362
                                                         0.201369       0.121884
                                                         0.367159       0.075939
                                                         0.828886       0.491603
                                                         0.966173       0.099977
                          1       9    5fxz2             0.083015      -0.002132
                                                         0.129293       0.005405
                                                         0.201369       0.070370
                                                         0.367159       0.043844
                                                         0.828886       0.283827
                                                         0.966173       0.057722
                          1       9    5fy3              0.083015      -0.000953
                                                         0.129293       0.002417
                                                         0.201369       0.031470
                                                         0.367159       0.019607
                                                         0.828886       0.126931
                                                         0.966173       0.025814
                          1       9    5fy2z             0.083015      -0.002132
                                                         0.129293       0.005405
                                                         0.201369       0.070370
                                                         0.367159       0.043844
                                                         0.828886       0.283827
                                                         0.966173       0.057722
                          1       9    5fyz2             0.083015      -0.002132
                                                         0.129293       0.005405
                                                         0.201369       0.070370
                                                         0.367159       0.043844
                                                         0.828886       0.283827
                                                         0.966173       0.057722
                          1       9    5fz3              0.083015      -0.000953
                                                         0.129293       0.002417
                                                         0.201369       0.031470
                                                         0.367159       0.019607
                                                         0.828886       0.126931
                                                         0.966173       0.025814

       Atomic covalent radius [Angstrom]:                                  1.330

       Atomic van der Waals radius [Angstrom]:                             1.980

     GTH Potential information for                                       GTH-PBE

       Description:                       Goedecker-Teter-Hutter pseudopotential
                                           Goedecker et al., PRB 54, 1703 (1996)
                                          Hartwigsen et al., PRB 58, 3641 (1998)
                                                      Krack, TCA 114, 145 (2005)

       Gaussian exponent of the core charge distribution:               1.594388
       Electronic configuration (s p d ...):                               2   5

       Parameters of the local part of the GTH pseudopotential:

                          rloc        C1          C2          C3          C4
                        0.560000    8.207102

       Parameters of the non-local part of the GTH (SOC) pseudopotential:

                   l      r(l)      h(i,j,l)
                                    k(i,j,l)
                   0    0.531928    2.308146    1.003909   -0.959156
                                    1.003909   -2.856109    2.476530
                                   -0.959156    2.476530   -1.965685
                   1    0.589182    0.906482    0.425071
                                    0.425071   -0.502950
                                    0.275693   -0.106307
                                   -0.106307    0.125784
                   2    0.739721    0.479195
                                    0.012901


 MOLECULE KIND INFORMATION


 All atoms are their own molecule, skipping detailed information


 TOTAL NUMBERS AND MAXIMUM NUMBERS

  Total number of            - Atomic kinds:                                   1
                             - Atoms:                                          8
                             - Shell sets:                                     8
                             - Shells:                                        72
                             - Primitive Cartesian functions:                 48
                             - Cartesian basis functions:                    272
                             - Spherical basis functions:                    232

  Maximum angular momentum of- Orbital basis functions:                        3
                             - Local part of the GTH pseudopotential:          0
                             - Non-local part of the GTH pseudopotential:      4


 MODULE QUICKSTEP: ATOMIC COORDINATES IN ANGSTROM

   Atom Kind Element         X             Y             Z       Z(eff)     Mass
      1    1 I    53      0.000000      1.658192      8.947190   7.0000 126.9045
      2    1 I    53      0.000000      0.618918      3.855285   7.0000 126.9045
      3    1 I    53      0.000000      3.935302      6.328525   7.0000 126.9045
      4    1 I    53      0.000000      2.896028      1.236620   7.0000 126.9045
      5    1 I    53      4.288505      3.935302      8.947190   7.0000 126.9045
      6    1 I    53      4.288505      2.896028      3.855285   7.0000 126.9045
      7    1 I    53      4.288505      1.658192      6.328525   7.0000 126.9045
      8    1 I    53      4.288505      0.618918      1.236620   7.0000 126.9045



 SCF PARAMETERS         Density guess:                                    ATOMIC
                        --------------------------------------------------------
                        max_scf:                                             500
                        max_scf_history:                                       0
                        max_diis:                                              4
                        --------------------------------------------------------
                        eps_scf:                                        1.00E-09
                        eps_scf_history:                                0.00E+00
                        eps_diis:                                       1.00E-01
                        eps_eigval:                                     1.00E-05
                        --------------------------------------------------------
                        level_shift [a.u.]:                             0.000000
                        added MOs                                       204    0
                        --------------------------------------------------------
                        Mixing method:                            BROYDEN_MIXING
                                                charge density mixing in g-space
                        --------------------------------------------------------
                        No outer SCF

 PW_GRID| Information for grid number                                          1
 PW_GRID| Grid distributed over                                     8 processors
 PW_GRID| Real space group dimensions                                     8    1
 PW_GRID| the grid is blocked:                                                NO
 PW_GRID| Cutoff [a.u.]                                                    500.0
 PW_GRID| spherical cutoff:                                                   NO
 PW_GRID|   Bounds   1            -90      89                Points:         180
 PW_GRID|   Bounds   2            -45      44                Points:          90
 PW_GRID|   Bounds   3           -100      99                Points:         200
 PW_GRID| Volume element (a.u.^3)  0.8285E-03     Volume (a.u.^3)      2684.4593
 PW_GRID| Grid span                                                    FULLSPACE
 PW_GRID|   Distribution                         Average         Max         Min
 PW_GRID|   G-Vectors                           405000.0      405000      405000
 PW_GRID|   G-Rays                                2250.0        2250        2250
 PW_GRID|   Real Space Points                   405000.0      414000      396000

 PW_GRID| Information for grid number                                          2
 PW_GRID| Number of the reference grid                                         1
 PW_GRID| Grid distributed over                                     8 processors
 PW_GRID| Real space group dimensions                                     8    1
 PW_GRID| the grid is blocked:                                                NO
 PW_GRID| Cutoff [a.u.]                                                    166.7
 PW_GRID| spherical cutoff:                                                   NO
 PW_GRID|   Bounds   1            -48      47                Points:          96
 PW_GRID|   Bounds   2            -27      26                Points:          54
 PW_GRID|   Bounds   3            -60      59                Points:         120
 PW_GRID| Volume element (a.u.^3)  0.4315E-02     Volume (a.u.^3)      2684.4593
 PW_GRID| Grid span                                                    FULLSPACE
 PW_GRID|   Distribution                         Average         Max         Min
 PW_GRID|   G-Vectors                            77760.0       77952       77664
 PW_GRID|   G-Rays                                 810.0         812         809
 PW_GRID|   Real Space Points                    77760.0       77760       77760

 PW_GRID| Information for grid number                                          3
 PW_GRID| Number of the reference grid                                         1
 PW_GRID| Grid distributed over                                     8 processors
 PW_GRID| Real space group dimensions                                     8    1
 PW_GRID| the grid is blocked:                                                NO
 PW_GRID| Cutoff [a.u.]                                                     55.6
 PW_GRID| spherical cutoff:                                                   NO
 PW_GRID|   Bounds   1            -30      29                Points:          60
 PW_GRID|   Bounds   2            -15      14                Points:          30
 PW_GRID|   Bounds   3            -36      35                Points:          72
 PW_GRID| Volume element (a.u.^3)  0.2071E-01     Volume (a.u.^3)      2684.4593
 PW_GRID| Grid span                                                    FULLSPACE
 PW_GRID|   Distribution                         Average         Max         Min
 PW_GRID|   G-Vectors                            16200.0       16320       16080
 PW_GRID|   G-Rays                                 270.0         272         268
 PW_GRID|   Real Space Points                    16200.0       17280       15120

 PW_GRID| Information for grid number                                          4
 PW_GRID| Number of the reference grid                                         1
 PW_GRID| Grid distributed over                                     8 processors
 PW_GRID| Real space group dimensions                                     8    1
 PW_GRID| the grid is blocked:                                                NO
 PW_GRID| Cutoff [a.u.]                                                     18.5
 PW_GRID| spherical cutoff:                                                   NO
 PW_GRID|   Bounds   1            -16      15                Points:          32
 PW_GRID|   Bounds   2             -9       8                Points:          18
 PW_GRID|   Bounds   3            -20      19                Points:          40
 PW_GRID| Volume element (a.u.^3)  0.1165         Volume (a.u.^3)      2684.4593
 PW_GRID| Grid span                                                    FULLSPACE
 PW_GRID|   Distribution                         Average         Max         Min
 PW_GRID|   G-Vectors                             2880.0        2944        2784
 PW_GRID|   G-Rays                                  90.0          92          87
 PW_GRID|   Real Space Points                     2880.0        2880        2880

 POISSON| Solver                                                        PERIODIC
 POISSON| Periodicity                                                        XYZ

 RS_GRID| Information for grid number                                          1
 RS_GRID|   Bounds   1            -90      89                Points:         180
 RS_GRID|   Bounds   2            -45      44                Points:          90
 RS_GRID|   Bounds   3           -100      99                Points:         200
 RS_GRID| Real space fully replicated
 RS_GRID| Group size                                                           1

 RS_GRID| Information for grid number                                          2
 RS_GRID|   Bounds   1            -48      47                Points:          96
 RS_GRID|   Bounds   2            -27      26                Points:          54
 RS_GRID|   Bounds   3            -60      59                Points:         120
 RS_GRID| Real space fully replicated
 RS_GRID| Group size                                                           1

 RS_GRID| Information for grid number                                          3
 RS_GRID|   Bounds   1            -30      29                Points:          60
 RS_GRID|   Bounds   2            -15      14                Points:          30
 RS_GRID|   Bounds   3            -36      35                Points:          72
 RS_GRID| Real space fully replicated
 RS_GRID| Group size                                                           1

 RS_GRID| Information for grid number                                          4
 RS_GRID|   Bounds   1            -16      15                Points:          32
 RS_GRID|   Bounds   2             -9       8                Points:          18
 RS_GRID|   Bounds   3            -20      19                Points:          40
 RS_GRID| Real space fully replicated
 RS_GRID| Group size                                                           1

 Number of electrons:                                                         56
 Number of occupied orbitals:                                                 28
 Number of molecular orbitals:                                               232

 Number of orbital functions:                                                232
 Number of independent orbital functions:                                    232

 Extrapolation method: initial_guess

 Atomic guess: The first density matrix is obtained in terms of atomic orbitals
               and electronic configurations assigned to each atomic kind

 Guess for atomic kind: I

 Electronic structure
    Total number of core electrons                                         46.00
    Total number of valence electrons                                       7.00
    Total number of electrons                                              53.00
    Multiplicity                                                   not specified
    S   [  2.00  2.00  2.00  2.00] 2.00
    P   [  6.00  6.00  6.00] 5.00
    D   [ 10.00 10.00]


 *******************************************************************************
                  Iteration          Convergence                     Energy [au]
 *******************************************************************************
                          1        0.740454                     -11.094963851008
                          2        0.479330                     -11.214856458376
                          3        0.255051E-01                 -11.285483960613
                          4        0.520055E-03                 -11.285729188788
                          5        0.109584E-04                 -11.285729250336
                          6        0.563296E-07                 -11.285729250377

 Energy components [Hartree]           Total Energy ::          -11.285729250377
                                        Band Energy ::           -2.430469039491
                                     Kinetic Energy ::            3.257842718068
                                   Potential Energy ::          -14.543571968445
                                      Virial (-V/T) ::            4.464172529811
                                        Core Energy ::          -18.653888395145
                                          XC Energy ::           -2.139559304906
                                     Coulomb Energy ::            9.507718449674
                       Total Pseudopotential Energy ::          -21.990300095435
                       Local Pseudopotential Energy ::          -22.620196630718
                    Nonlocal Pseudopotential Energy ::            0.629896535284
                                        Confinement ::            0.785689822219

 Orbital energies  State     L     Occupation   Energy[a.u.]          Energy[eV]

                       1     0          2.000      -0.616667          -16.780356

                       1     1          5.000      -0.239427           -6.515143


 Total Electron Density at R=0:                                         0.000655
 Re-scaling the density matrix to get the right number of electrons
                  # Electrons              Trace(P)               Scaling factor
                           56                56.000                        1.000


 SCF WAVEFUNCTION OPTIMIZATION

  Step     Update method      Time    Convergence         Total energy    Change
  ------------------------------------------------------------------------------
     1 NoMix/Diag. 0.50E-01    4.7     0.56866332       -91.9937243372 -9.20E+01
     2 Broy./Diag. 0.50E-01    4.7     0.00065514       -92.3539474828 -3.60E-01
     3 Broy./Diag. 0.50E-01    4.7     0.01976240       -92.1218136494  2.32E-01
     4 Broy./Diag. 0.50E-01    4.7     0.00016924       -92.0255103383  9.63E-02
     5 Broy./Diag. 0.50E-01    4.7     0.00405676       -91.8887959555  1.37E-01
     6 Broy./Diag. 0.50E-01    4.7     0.00010325       -91.8099245557  7.89E-02
     7 Broy./Diag. 0.50E-01    4.8     0.00214777       -91.7812837825  2.86E-02
     8 Broy./Diag. 0.50E-01    4.7     0.00004675       -91.7560382270  2.52E-02
     9 Broy./Diag. 0.50E-01    4.7     0.00062118       -91.7586154527 -2.58E-03
    10 Broy./Diag. 0.50E-01    4.7     0.00001407       -91.7562001224  2.42E-03
    11 Broy./Diag. 0.50E-01    4.7     0.00017203       -91.7552339211  9.66E-04
    12 Broy./Diag. 0.50E-01    4.7     0.00001148       -91.7547661894  4.68E-04
    13 Broy./Diag. 0.50E-01    4.7     0.00002478       -91.7542109257  5.55E-04
    14 Broy./Diag. 0.50E-01    4.7     0.00001534       -91.7537261821  4.85E-04
    15 Broy./Diag. 0.50E-01    4.7     0.00000142       -91.7536256249  1.01E-04
    16 Broy./Diag. 0.50E-01    4.7     0.00001070       -91.7536802029 -5.46E-05
    17 Broy./Diag. 0.50E-01    4.7     0.00000191       -91.7537608625 -8.07E-05
    18 Broy./Diag. 0.50E-01    4.7     0.00000779       -91.7539312459 -1.70E-04
    19 Broy./Diag. 0.50E-01    4.8     0.00000033       -91.7540098576 -7.86E-05
    20 Broy./Diag. 0.50E-01    4.7     0.00000508       -91.7541790147 -1.69E-04
    21 Broy./Diag. 0.50E-01    4.7     0.00000006       -91.7542647718 -8.58E-05
    22 Broy./Diag. 0.50E-01    4.7     0.00000042       -91.7542759234 -1.12E-05
    23 Broy./Diag. 0.50E-01    4.7     0.00000010       -91.7542805864 -4.66E-06
    24 Broy./Diag. 0.50E-01    4.7     0.00000024       -91.7542891284 -8.54E-06
    25 Broy./Diag. 0.50E-01    4.7     0.00000002       -91.7542912893 -2.16E-06
    26 Broy./Diag. 0.50E-01    4.7     0.00000019       -91.7542933334 -2.04E-06
    27 Broy./Diag. 0.50E-01    4.7     0.00000006       -91.7542941669 -8.33E-07
    28 Broy./Diag. 0.50E-01    4.7     0.00000012       -91.7542935271  6.40E-07
    29 Broy./Diag. 0.50E-01    4.7     8.5251E-09       -91.7542930792  4.48E-07
    30 Broy./Diag. 0.50E-01    4.7     0.00000003       -91.7542925119  5.67E-07
    31 Broy./Diag. 0.50E-01    4.7     0.00000003       -91.7542913848  1.13E-06
    32 Broy./Diag. 0.50E-01    4.7     0.00000005       -91.7542897057  1.68E-06
    33 Broy./Diag. 0.50E-01    4.7     9.0294E-09       -91.7542892801  4.26E-07
    34 Broy./Diag. 0.50E-01    4.7     0.00000002       -91.7542898108 -5.31E-07
    35 Broy./Diag. 0.50E-01    4.7     6.7433E-09       -91.7542902745 -4.64E-07
    36 Broy./Diag. 0.50E-01    4.7     0.00000002       -91.7542909479 -6.73E-07
    37 Broy./Diag. 0.50E-01    4.7     2.6680E-09       -91.7542912830 -3.35E-07
    38 Broy./Diag. 0.50E-01    4.7     4.6001E-09       -91.7542914757 -1.93E-07
    39 Broy./Diag. 0.50E-01    4.7     1.0171E-09       -91.7542914951 -1.93E-08
    40 Broy./Diag. 0.50E-01    4.7     3.9058E-09       -91.7542914133  8.18E-08
    41 Broy./Diag. 0.50E-01    4.8     6.5960E-10       -91.7542913730  4.03E-08

  *** SCF run converged in    41 steps ***


  Electronic density on regular grids:        -56.0000000000       -0.0000000000
  Core density on regular grids:               56.0000000000        0.0000000000
  Total charge density on r-space grids:       -0.0000000000
  Total charge density g-space grids:          -0.0000000000

  Overlap energy of the core charge distribution:               0.00000000154846
  Self energy of the core charge distribution:               -197.46635424171470
  Core Hamiltonian energy:                                     39.20714140457412
  Hartree energy:                                              84.43394961233042
  Exchange-correlation energy:                                -17.92902814972025

  Total energy:                                               -91.75429137298192

 !-----------------------------------------------------------------------------!
                     Mulliken Population Analysis

 #  Atom  Element  Kind  Atomic population                           Net charge
       1     I        1          7.000000                              0.000000
       2     I        1          7.000000                              0.000000
       3     I        1          7.000000                             -0.000000
       4     I        1          7.000000                             -0.000000
       5     I        1          7.000000                              0.000000
       6     I        1          7.000000                              0.000000
       7     I        1          7.000000                             -0.000000
       8     I        1          7.000000                             -0.000000
 # Total charge                             56.000000                 -0.000000

 !-----------------------------------------------------------------------------!

 !-----------------------------------------------------------------------------!
                           Hirshfeld Charges

  #Atom  Element  Kind  Ref Charge     Population                    Net charge
      1       I      1       7.000          7.000                        -0.000
      2       I      1       7.000          7.000                        -0.000
      3       I      1       7.000          7.000                        -0.000
      4       I      1       7.000          7.000                         0.000
      5       I      1       7.000          7.000                        -0.000
      6       I      1       7.000          7.000                         0.000
      7       I      1       7.000          7.000                         0.000
      8       I      1       7.000          7.000                         0.000

  Total Charge                                                           -0.000
 !-----------------------------------------------------------------------------!

 KPOINTS| Band Structure Calculation
 KPOINTS| Number of k-point sets                                               1
 KPOINTS| Number of added MOs/bands                                           -1
 KPOINTS| Number of k-points in set    1                                     148
 KPOINTS| In units of b-vector [2pi/Bohr]
 KPOINTS| Special point     1 not specifi     0.000000     0.000000     0.000000
 KPOINTS| Special point     2 not specifi     0.500000     0.500000     0.000000
 KPOINTS| Special point     3 not specifi     0.320485     0.679515     0.000000
 KPOINTS| Special point     4 not specifi     0.000000     0.000000     0.000000
 KPOINTS| Time for k-point line                                            2.560

 ENERGY| Total FORCE_EVAL ( QS ) energy [hartree]            -91.754291372981925

 -------------------------------------------------------------------------------
 -                                                                             -
 -                                DBCSR STATISTICS                             -
 -                                                                             -
 -------------------------------------------------------------------------------
 COUNTER                                    TOTAL       BLAS       SMM       ACC
 flops inhomo. stacks                           0       0.0%      0.0%      0.0%
 flops total                         0.000000E+00       0.0%      0.0%      0.0%
 flops max/rank                      0.000000E+00       0.0%      0.0%      0.0%
 matmuls inhomo. stacks                         0       0.0%      0.0%      0.0%
 matmuls total                                  0       0.0%      0.0%      0.0%
 number of processed stacks                     0       0.0%      0.0%      0.0%
 average stack size                                     0.0       0.0       0.0
 marketing flops                     0.000000E+00
 -------------------------------------------------------------------------------
 -                                                                             -
 -                      DBCSR MESSAGE PASSING PERFORMANCE                      -
 -                                                                             -
 -------------------------------------------------------------------------------
 ROUTINE             CALLS      AVE VOLUME [Bytes]
 MP_Bcast                1                     12.
 MP_Allreduce           19                     21.
 MP_Alltoall        880024                  27492.
 -------------------------------------------------------------------------------

 -------------------------------------------------------------------------------
 -                                                                             -
 -                                DBM STATISTICS                               -
 -                                                                             -
 -------------------------------------------------------------------------------
    M  x    N  x    K                                          COUNT     PERCENT
 -------------------------------------------------------------------------------

 -------------------------------------------------------------------------------
 -                                                                             -
 -                                GRID STATISTICS                              -
 -                                                                             -
 -------------------------------------------------------------------------------
 LP    KERNEL             BACKEND                              COUNT     PERCENT
 6     collocate ortho    CPU                                1076040      50.60%
 6     integrate ortho    CPU                                1050420      49.40%
 0     collocate general  CPU                                     16       0.00%
 0     integrate general  CPU                                      8       0.00%
[...]
 MP_SendRecv          1190                1050760.
 MP_ISendRecv         1155                1037708.
 MP_Wait            263447
 MP_comm_split           4
 MP_ISend           278924                  12278.
 MP_IRecv           445568                   7696.
 -------------------------------------------------------------------------------


 -------------------------------------------------------------------------------
 -                                                                             -
 -                           R E F E R E N C E S                               -
 -                                                                             -
 -------------------------------------------------------------------------------
 
 CP2K version 2025.1 (Development Version), the CP2K developers group (2025).
 CP2K is freely available from https://www.cp2k.org/ .
 
 T. D. Kuehne, M. Iannuzzi, M. Del Ben, V. V. Rybkin, P. Seewald, F. Stein, T. 
 Laino, R. Z. Khaliullin, O. Schuett, F. Schiffmann, D. Golze, J. Wilhelm, S. 
 Chulkov, M. H. Bani-Hashemian, V. Weber, U. Borstnik, M. Taillefumier, A. S. 
 Jakobovits, A. Lazzaro, H. Pabst, T. Mueller, R. Schade, M. Guidon, S. 
 Andermatt, N. Holmberg, G. K. Schenter, A. Hehn, A. Bussy, F. Belleflamme, G. 
 Tabacchi, A. Gloess, M. Lass, I. Bethune, C. J. Mundy, C. Plessl, M. Watkins, 
 J. VandeVondele, M. Krack, J. Hutter.
 J. Chem. Phys. 152, 194103 (2020).
 CP2K: An electronic structure and molecular dynamics software package - 
 Quickstep: Efficient and accurate electronic structure calculations.
 https://doi.org/10.1063/5.0007045

 O. Schuett, P. Messmer, J. Hutter, J. VandeVondele.
 Electronic Structure Calculations on Graphics Processing Units, 173-190 (2016).
 GPU-Accelerated Sparse Matrix-Matrix Multiplication for Linear Scaling Density 
 Functional Theory.
 https://doi.org/10.1002/9781118670712.ch8

 J. Hutter, M. Iannuzzi, F. Schiffmann, J. VandeVondele.
 WIREs Comput Mol Sci. 4, 15-25 (2014).
 CP2K: atomistic simulations of condensed matter systems.
 https://doi.org/10.1002/wcms.1159

 U. Borstnik, J. VandeVondele, V. Weber, J. Hutter.
 Parallel Comput. 40, 47-58 (2014).
 Sparse matrix multiplication: The distributed block-compressed sparse row 
 library.
 https://doi.org/10.1016/j.parco.2014.03.012

 J. VandeVondele, J. Hutter.
 J. Chem. Phys. 127, 114105 (2007).
 Gaussian basis sets for accurate calculations on molecular systems in gas and 
 condensed phases.
 https://doi.org/10.1063/1.2770708

 J. VandeVondele, M. Krack, F. Mohamed, M. Parrinello, T. Chassaing, J. Hutter.
 Comput. Phys. Commun. 167, 103-128 (2005).
 QUICKSTEP: Fast and accurate density functional calculations using a mixed 
 Gaussian and plane waves approach.
 https://doi.org/10.1016/j.cpc.2004.12.014

 M. Krack.
 Theor. Chem. Acc. 114, 145-152 (2005).
 Pseudopotentials for H to Kr optimized for gradient-corrected 
 exchange-correlation functionals.
 https://doi.org/10.1007/s00214-005-0655-y

 M. Frigo, S. G. Johnson.
 Proc. IEEE 93, 216-231 (2005).
 The design and implementation of FFTW3.
 https://doi.org/10.1109/JPROC.2004.840301

 C. Hartwigsen, S. Goedecker, J. Hutter.
 Phys. Rev. B 58, 3641-3662 (1998).
 Relativistic separable dual-space Gaussian pseudopotentials from H to Rn.
 https://doi.org/10.1103/PhysRevB.58.3641

 G. Lippert, J. Hutter, M. Parrinello.
 Mol. Phys. 92, 477-487 (1997).
 A hybrid Gaussian and plane wave density functional scheme.
 https://doi.org/10.1080/002689797170220

 S. Goedecker, M. Teter, J. Hutter.
 Phys. Rev. B 54, 1703-1710 (1996).
 Separable dual-space Gaussian pseudopotentials.
 https://doi.org/10.1103/PhysRevB.54.1703

 J. P. Perdew, K. Burke, M. Ernzerhof.
 Phys. Rev. Lett. 77, 3865-3868 (1996).
 Generalized gradient approximation made simple.
 https://doi.org/10.1103/PhysRevLett.77.3865


 -------------------------------------------------------------------------------
 -                                                                             -
 -                                T I M I N G                                  -
 -                                                                             -
 -------------------------------------------------------------------------------
 SUBROUTINE                       CALLS  ASD         SELF TIME        TOTAL TIME
                                MAXIMUM       AVERAGE  MAXIMUM  AVERAGE  MAXIMUM
 CP2K                                 1  1.0    0.026    0.030  198.992  198.992
 qs_energies                          1  2.0    0.035    0.133  198.584  198.643
 scf_env_do_scf                       1  3.0    0.000    0.000  195.362  195.364
 scf_env_do_scf_inner_loop           41  4.0    0.011    0.013  195.362  195.363
 do_general_diag_kp                  42  5.9    0.284    0.298  176.322  177.680
 qs_scf_new_mos_kp                   41  5.0    0.000    0.000  173.913  175.303
 rskp_transform                   21288  7.0   40.574   45.415   40.574   45.415
 kpoint_density_transform            41  7.0    0.095    0.100   44.134   44.224
 dbcsr_desymmetrize_deep          85926  7.5    2.307    2.498   19.615   34.632
 dbcsr_complete_redistribute      64342  8.3    4.257    4.472   27.212   33.991
 mp_alltoall_i22                 150268  8.8   11.076   32.717   11.076   32.717
 cp_cfm_geeig                      1349  6.9    0.017    0.021   31.902   32.061
 copy_dbcsr_to_fm                 43350  6.9    0.509    0.546   26.897   27.250
 cp_cfm_heevd                      1349  7.9    0.003    0.003   22.739   22.848
 cp_cfm_heevd_base                 1349  8.9   22.736   22.846   22.736   22.846
 cp_fm_start_copy_general         63568  7.3    4.276    4.672   22.657   22.783
 transform_dmat                   10496  8.0   19.511   21.963   19.511   21.963
 copy_fm_to_dbcsr                 20992  8.0    0.136    0.141   10.605   17.054
 mp_allgather_i                  127136  8.3   15.758   16.082   15.758   16.082
 mp_alltoall_d11v                450804  9.4   10.155   11.022   10.155   11.022
 qs_ks_update_qs_env                 41  5.0    0.000    0.000   10.147   10.758
 rebuild_ks_matrix                   41  6.0    0.000    0.000    9.693   10.304
 qs_ks_build_kohn_sham_matrix        41  7.0    0.022    0.022    9.693   10.304
 qs_rho_update_rho_low               42  5.0    0.000    0.000    6.835    6.840
 calculate_rho_elec                  42  6.0    0.131    0.135    6.835    6.840
 hybrid_alltoall_any              85926  8.5    0.375    0.392    5.904    6.541
 sum_up_and_integrate                41  8.0    0.001    0.001    5.741    6.355
 integrate_v_rspace                  41  9.0    0.038    0.059    5.735    6.350
 cp_cfm_triangular_multiply        4047  7.9    6.216    6.296    6.216    6.296
 dbcsr_finalize                  154892  8.7    0.784    0.850    5.939    6.262
 grid_integrate_task_list            41 10.0    4.382    4.972    4.382    4.972
 grid_collocate_task_list            42  7.0    4.354    4.783    4.354    4.783
 kpoint_density_matrices             41  7.0    0.079    0.083    4.379    4.440
 cp_fm_finish_copy_general        26388  7.8    4.297    4.332    4.356    4.389
 fft_wrap_pw1pw2                    743 10.0    0.012    0.014    4.198    4.250
 parallel_gemm_fm                  5248  8.0    0.007    0.007    4.162    4.217
 parallel_gemm_fm_gemm             5248  9.0    0.007    0.008    4.155    4.210
 cp_fm_gemm                        5248 10.0    4.149    4.204    4.149    4.204
 fft_wrap_pw1pw2_500                494 11.3    0.333    0.347    3.974    4.032
 mp_alltoall_i11v                278952  9.0    3.226    3.754    3.226    3.754
 mp_cart_sub                      86702  8.9    3.659    3.686    3.659    3.686
 dbcsr_merge_all                  64342 10.3    1.616    1.884    3.386    3.632
 density_rs2pw                       42  7.0    0.002    0.002    2.339    3.312
 fft3d_ps                           743 12.0    1.576    1.589    3.207    3.279
 qs_vxc_create                       41  8.0    0.001    0.001    3.199    3.207
 xc_vxc_pw_create                    41  9.0    0.127    0.130    3.199    3.206
 gspace_mixing                       40  5.0    0.115    0.117    3.004    3.004
 transfer_rs2pw                     170  8.0    0.002    0.003    1.582    2.609
 broyden_mixing                      40  6.0    2.459    2.514    2.523    2.539
 mp_cart_create                   43357  8.9    2.370    2.415    2.370    2.415
 transfer_rs2pw_500                  44  8.9    0.474    0.531    1.350    2.390
 xc_pw_derive                       246 11.0    0.001    0.002    2.056    2.081
 mp_sendrecv_dv                    1190 10.0    1.012    1.980    1.012    1.980
 mp_bcast_iv                     254298  8.3    1.533    1.753    1.533    1.753
 xc_rho_set_and_dset_create          41 10.0    0.060    0.064    1.723    1.746
 dbcsr_work_create               150268  8.8    0.935    0.965    1.464    1.523
 dbcsr_create_new                237863  8.3    1.146    1.199    1.385    1.452
 mp_alltoall_z22v                   743 14.0    1.366    1.431    1.366    1.431
 cp_cfm_triangular_invert          1349  7.9    1.396    1.408    1.396    1.408
 cp_cfm_cholesky_decompose         1349  7.9    1.366    1.384    1.366    1.384
 xc_pw_divergence                    41 10.0    0.001    0.001    1.332    1.354
 potential_pw2rs                     41 10.0    0.006    0.006    1.315    1.319
 copy_dbcsr_to_fm_bc              43350  7.9    0.779    0.789    1.286    1.298
 write_kpoints_restart               41  5.0    0.004    0.007    1.248    1.249
 dbcsr_work_destroy_all          150268  9.8    0.710    0.718    1.185    1.197
 copy_fm_to_dbcsr_bc              20992  9.0    0.367    0.387    1.162    1.197
 tree_to_linear_d                 64342 11.3    1.067    1.101    1.067    1.101
 dbcsr_iterator_start            439373  9.1    0.888    0.911    1.044    1.068
 dbcsr_copy                       42406  7.7    0.163    0.168    0.942    1.035
 x_to_yz                            410 13.2    0.157    0.164    0.966    1.003
 dbcsr_data_new                 1610800  9.7    0.940    0.997    0.940    0.997
 dbcsr_data_release             2222025 10.2    0.969    0.982    0.969    0.982
 transfer_pw2rs                     165 11.0    0.002    0.002    0.914    0.915
 mp_waitall_1                    263447  8.3    0.571    0.859    0.571    0.859
 dbcsr_copy_into_existing         21250 10.0    0.617    0.703    0.742    0.831
 dbcsr_destroy                   216707  8.3    0.379    0.391    0.749    0.787
 cp_fm_write_unformatted            774  6.0    0.250    0.672    0.324    0.749
 kpoint_set_mo_occupation            41  7.0    0.132    0.133    0.422    0.710
 transfer_pw2rs_500                  42 11.9    0.335    0.340    0.685    0.695
 yz_to_x                            333 12.8    0.100    0.106    0.657    0.688
 dbcsr_iterator_stop             439373  9.1    0.528    0.535    0.627    0.634
 xc_functional_eval                  41 11.0    0.000    0.001    0.562    0.584
 pbe_lda_eval                        41 12.0    0.562    0.583    0.562    0.583
 mp_sum_dm3                          41  8.0    0.290    0.579    0.290    0.579
 mp_bcast_im                     127136  8.3    0.468    0.532    0.468    0.532
 quick_finalize                   85926  9.5    0.296    0.308    0.516    0.531
 mp_isend_dv                      64160  8.3    0.436    0.508    0.436    0.508
 dbcsr_data_copy_aa2              64342 11.3    0.405    0.477    0.405    0.477
 cp_cfm_scale_and_add_fm           5396  6.9    0.450    0.461    0.450    0.461
 evaluate_core_matrix_traces         41  6.0    0.000    0.000    0.453    0.454
 calculate_ptrace_kp                 82  7.0    0.016    0.017    0.453    0.454
 dbcsr_dot                        21157  8.0    0.245    0.265    0.440    0.448
 mp_comm_free                    130093  8.9    0.392    0.438    0.392    0.438
 pw_scatter_p                       410 12.2    0.384    0.396    0.384    0.396
 dbcsr_set                       129787  8.1    0.140    0.144    0.357    0.382
 self_consistency_check              41  5.0    0.016    0.017    0.301    0.327
 dbcsr_reserve_blocks             23046 10.6    0.248    0.263    0.271    0.286
 dbcsr_reserve_all_blocks         20992 10.0    0.038    0.040    0.261    0.274
 cp_sm_mix                        10578  6.0    0.116    0.127    0.232    0.271
 pw_poisson_solve                    41  8.0    0.001    0.001    0.263    0.265
 dbcsr_sort_indices              173314 10.9    0.255    0.262    0.255    0.262
 mp_sum_d                         21907  8.8    0.189    0.261    0.189    0.261
 init_scf_run                         1  3.0    0.000    0.000    0.251    0.261
 scf_env_initial_rho_setup            1  4.0    0.000    0.000    0.251    0.261
 mp_send_dv                         774  7.0    0.064    0.256    0.064    0.256
 cp_cfm_to_fm                      1349  6.9    0.235    0.241    0.235    0.241
 dbcsr_zero                      129787  9.1    0.217    0.241    0.217    0.241
 qs_energies_init_hamiltonians        1  3.0    0.000    0.000    0.215    0.215
 mp_isendrecv_dv                   1155 13.0    0.098    0.206    0.098    0.206
 transfer_rs2pw_170                  42  9.0    0.077    0.083    0.178    0.194
 transfer_pw2rs_170                  41 12.0    0.073    0.079    0.173    0.187
 mp_sum_dv                          336  3.5    0.094    0.183    0.094    0.183
 cp_cfm_to_cfm_columns             1349  7.9    0.167    0.172    0.167    0.172
 dbcsr_make_index_exist          237863  9.3    0.150    0.172    0.150    0.172
 pw_integral_ab_c1d_c1d_gs           41  9.0    0.163    0.165    0.166    0.167
 dbcsr_iterator_seek             439373 10.1    0.156    0.167    0.156    0.167
 fft_wrap_pw1pw2_170                 83 10.5    0.013    0.016    0.157    0.165
 mp_max_d                         10580  7.0    0.092    0.161    0.092    0.161
 pw_gather_p                        333 11.8    0.152    0.160    0.152    0.160
 scf_post_calculation_gpw             1  3.0    0.000    0.000    0.151    0.151
 write_available_results              1  4.0    0.000    0.000    0.150    0.151
 write_mo_free_results                1  5.0    0.033    0.063    0.150    0.150
 merge_index                      64342 11.3    0.132    0.147    0.132    0.147
 pw_derive                          369 11.3    0.129    0.140    0.129    0.140
 cp_fm_to_fm_matrix                2624  8.0    0.135    0.139    0.135    0.139
 build_core_hamiltonian_matrix        1  4.0    0.001    0.001    0.129    0.138
 qs_init_subsys                       1  2.0    0.002    0.002    0.136    0.137
 qs_env_setup                         1  3.0    0.000    0.000    0.133    0.134
 qs_env_rebuild_pw_env                2  3.5    0.000    0.000    0.133    0.133
 pw_env_rebuild                       1  5.0    0.000    0.001    0.132    0.133
 mp_irecv_iv                     254272  8.3    0.016    0.128    0.016    0.128
 pw_grid_setup                        4  6.0    0.000    0.000    0.122    0.123
 pw_grid_setup_internal               4  7.0    0.003    0.003    0.122    0.123
 restraint_control                    1  2.0    0.000    0.000    0.060    0.119
 mp_sum_i                             4  2.8    0.060    0.119    0.060    0.119
 cp_dbcsr_alloc_block_from_nbl     2054  5.3    0.058    0.064    0.106    0.117
 pw_copy                            615 10.5    0.108    0.112    0.108    0.112
 cp_fm_cleanup_copy_general       45200  7.0    0.071    0.073    0.106    0.108
 dbcsr_switch_data_area           85926 10.5    0.077    0.078    0.101    0.103
 qs_env_update_s_mstruct              1  4.0    0.000    0.000    0.079    0.102
 pw_grid_sort                         4  8.0    0.059    0.060    0.091    0.092
 parser_read_line                  7431  4.1    0.002    0.003    0.087    0.089
 mp_isend_iv                     143176  8.3    0.025    0.088    0.025    0.088
 parser_read_line_low                25  6.1    0.009    0.034    0.085    0.086
 mp_sum_dm                           40  7.0    0.046    0.086    0.046    0.086
 calculate_rho_core                   1  5.0    0.005    0.005    0.054    0.083
 broadcast_input_information         25  7.1    0.027    0.030    0.076    0.081
 mp_recv_dv                        2322  7.0    0.010    0.077    0.010    0.077
 dbcsr_distribution_new           64344  8.6    0.062    0.075    0.062    0.075
 pw_poisson_set                      42  8.9    0.001    0.001    0.071    0.073
 calculate_hirshfeld_normalizat       1  6.0    0.015    0.016    0.055    0.073
 cp_fm_create                       464  4.1    0.069    0.071    0.069    0.071
 dbcsr_get_data_size_used        150268  9.8    0.067    0.068    0.067    0.068
 create_qs_kind_set                   1  2.0    0.000    0.000    0.068    0.068
 read_qs_kind                         1  3.0    0.036    0.038    0.068    0.068
 mp_irecv_im2                    127136  8.3    0.008    0.062    0.008    0.062
 topology_control                     1  2.0    0.000    0.000    0.062    0.062
 dbcsr_make_dbcsr_index          173314 10.9    0.054    0.057    0.054    0.057
 pw_copy_from_array                 410 12.2    0.048    0.053    0.048    0.053
 mixing_init                          1  5.0    0.050    0.051    0.051    0.051
 pw_copy_to_array                   333 11.8    0.047    0.050    0.047    0.050
 kpoint_initialize_mos                2  2.5    0.000    0.001    0.046    0.048
 pw_axpy                            414  9.3    0.045    0.048    0.045    0.048
 transfer_pw2rs_60                   41 12.0    0.017    0.017    0.044    0.047
 hirshfeld_integration                1  6.0    0.023    0.029    0.045    0.045
 transfer_rs2pw_60                   42  9.0    0.014    0.015    0.041    0.044
 fft_wrap_pw1pw2_60                  83 10.5    0.003    0.003    0.041    0.043
 read_cell_cif                        2  4.5    0.002    0.005    0.042    0.043
 mp_irecv_dv                      64160  8.3    0.040    0.042    0.040    0.042
 mp_isend_im2                     71588  8.3    0.011    0.040    0.011    0.040
 coordinate_control                   1  3.0    0.001    0.001    0.037    0.037
 coordinate_control_READ_COORDI       1  4.0    0.000    0.000    0.036    0.037
 read_coordinate_cif                  1  5.0    0.002    0.002    0.036    0.037
 mixing_allocate                      1  3.0    0.002    0.002    0.033    0.036
 mp_bcast_i_src                     100  8.1    0.029    0.034    0.029    0.034
 build_core_ppnl                      1  5.0    0.026    0.034    0.026    0.034
 sort_shells                          4  9.0    0.032    0.033    0.032    0.033
 build_core_ppl                       1  5.0    0.027    0.030    0.027    0.030
 pw_zero                            206 10.4    0.027    0.030    0.027    0.030
 build_overlap_matrix_low             1  5.0    0.011    0.012    0.027    0.029
 mulliken_population_analysis         1  6.0    0.003    0.004    0.016    0.028
 build_kinetic_matrix_low             1  5.0    0.009    0.010    0.024    0.026
 mp_bcast_am_src                     25  8.1    0.015    0.016    0.020    0.021
 -------------------------------------------------------------------------------

 The number of warnings for this run is : 1
 
 -------------------------------------------------------------------------------
  **** **** ******  **  PROGRAM ENDED AT                 2025-08-05 04:31:23.998
 ***** ** ***  *** **   PROGRAM RAN ON                              i04r08c01s04
 **    ****   ******    PROGRAM RAN BY                                   di38fab
 ***** **    ** ** **   PROGRAM PROCESS ID                               2387315
  **** **  *******  **  PROGRAM STOPPED IN /hppfs/scratch/04/di38fab/09_GTH/Delt
                                           a_Set/I/aug-DZVP-MOLOPT-GTH-tier-2-SR
                                           /8x8x8
