 DBCSR| CPU Multiplication driver                                           BLAS (U)
 DBCSR| Multrec recursion limit                                              512 (U)
 DBCSR| Multiplication stack size                                           1000 (D)
 DBCSR| Maximum elements for images                                    UNLIMITED (U)
 DBCSR| Multiplicative factor virtual images                                   1 (U)
 DBCSR| Use multiplication densification                                       T (D)
 DBCSR| Multiplication size stacks                                             3 (U)
 DBCSR| Use memory pool for CPU allocation                                     F (U)
 DBCSR| Number of 3D layers                                               SINGLE (U)
 DBCSR| Use MPI memory allocation                                              F (U)
 DBCSR| Use RMA algorithm                                                      F (U)
 DBCSR| Use Communication thread                                               T (U)
 DBCSR| Communication thread load                                             45 (D)
 DBCSR| MPI: My process id                                                     0
 DBCSR| MPI: Number of processes                                              16
 DBCSR| OMP: Current number of threads                                        12
 DBCSR| OMP: Max number of threads                                            12
 DBCSR| Split modifier for TAS multiplication algorithm                  1.0E+00 (U)


  **** **** ******  **  PROGRAM STARTED AT               2025-08-05 21:25:40.603
 ***** ** ***  *** **   PROGRAM STARTED ON                          i04r01c05s01
 **    ****   ******    PROGRAM STARTED BY                               di38fab
 ***** **    ** ** **   PROGRAM PROCESS ID                               2882313
  **** **  *******  **  PROGRAM STARTED IN /hppfs/scratch/04/di38fab/09_GTH/Delt
                                           a_Set/Ca/aug-TZVP-MOLOPT-GTH-tier-1-S
                                           R/8x8x8

 CP2K| version string:                 CP2K version 2025.1 (Development Version)
 CP2K| source code revision number:                                  git:3130539
 CP2K| cp2kflags: omp libint fftw3 libxc parallel scalapack max_contr=4         
 CP2K| is freely available from                            https://www.cp2k.org/
 CP2K| Program compiled at                         Tue Jun  3 16:14:32 CEST 2025
 CP2K| Program compiled on                                               login01
 CP2K| Program compiled for                                        Supermuc-foss
 CP2K| Data directory path                  /hppfs/work/pn36zo/di38fab/cp2k/data
 CP2K| Input file name                                                    GW.inp

 GLOBAL| Force Environment number                                              1
 GLOBAL| Basis set file name            /hppfs/scratch/04/di38fab/09_GTH/BASIS_A
 GLOBAL| Potential file name            /hppfs/work/pn36zo/di38fab/cp2k/data/GTH
 GLOBAL| MM Potential file name                                     MM_POTENTIAL
 GLOBAL| Coordinate file name                                             Ca.cif
 GLOBAL| Method name                                                        CP2K
 GLOBAL| Project name                                                       WSe2
 GLOBAL| Run type                                                         ENERGY
 GLOBAL| FFT library                                                       FFTW3
 GLOBAL| Diagonalization library                                       ScaLAPACK
 GLOBAL| Cholesky decomposition library                                ScaLAPACK
 GLOBAL| DGEMM library                                                      BLAS
 GLOBAL| Orthonormality check for eigenvectors                          DISABLED
 GLOBAL| Matrix multiplication library                                 ScaLAPACK
 GLOBAL| All-to-all communication in single precision                          F
 GLOBAL| FFTs using library dependent lengths                                  F
 GLOBAL| Grid backend                                                       AUTO
 GLOBAL| Global print level                                               MEDIUM
 GLOBAL| MPI I/O enabled                                                       T
 GLOBAL| Total number of message passing processes                            16
 GLOBAL| Number of threads for this process                                   12
 GLOBAL| This output is from process                                           0
 GLOBAL| OpenMP stack size per thread (OMP_STACKSIZE)                    default
 GLOBAL| CPU model name             Intel(R) Xeon(R) Platinum 8174 CPU @ 3.10GHz

 MEMORY| system memory details [Kb]
 MEMORY|                        rank 0           min           max       average
 MEMORY| MemTotal             98436660      98436660      98436664      98436662
 MEMORY| MemFree              84529888      84450964      84804436      84597126
 MEMORY| Buffers                     0             0             0             0
 MEMORY| Cached                2387448       2375484       2411732       2394723
 MEMORY| Slab                  1300100       1294816       1305264       1299071
 MEMORY| SReclaimable           286368        283404        288944        286617
 MEMORY| MemLikelyFree        87203704      87150448      87463324      87278466


 *** Fundamental physical constants (SI units) ***

 *** Literature: B. J. Mohr and B. N. Taylor,
 ***             CODATA recommended values of the fundamental physical
 ***             constants: 2006, Web Version 5.1
 ***             http://physics.nist.gov/constants

 Speed of light in vacuum [m/s]                             2.99792458000000E+08
 Magnetic constant or permeability of vacuum [N/A**2]       1.25663706143592E-06
 Electric constant or permittivity of vacuum [F/m]          8.85418781762039E-12
 Planck constant (h) [J*s]                                  6.62606896000000E-34
 Planck constant (h-bar) [J*s]                              1.05457162825177E-34
 Elementary charge [C]                                      1.60217648700000E-19
 Electron mass [kg]                                         9.10938215000000E-31
 Electron g factor [ ]                                     -2.00231930436220E+00
 Proton mass [kg]                                           1.67262163700000E-27
 Fine-structure constant                                    7.29735253760000E-03
 Rydberg constant [1/m]                                     1.09737315685270E+07
 Avogadro constant [1/mol]                                  6.02214179000000E+23
 Boltzmann constant [J/K]                                   1.38065040000000E-23
 Atomic mass unit [kg]                                      1.66053878200000E-27
 Bohr radius [m]                                            5.29177208590000E-11

 *** Conversion factors ***

 [u] -> [a.u.]                                              1.82288848426455E+03
 [Angstrom] -> [Bohr] = [a.u.]                              1.88972613288564E+00
 [a.u.] = [Bohr] -> [Angstrom]                              5.29177208590000E-01
 [a.u.] -> [s]                                              2.41888432650478E-17
 [a.u.] -> [fs]                                             2.41888432650478E-02
 [a.u.] -> [J]                                              4.35974393937059E-18
 [a.u.] -> [N]                                              8.23872205491840E-08
 [a.u.] -> [K]                                              3.15774647902944E+05
 [a.u.] -> [kJ/mol]                                         2.62549961709828E+03
 [a.u.] -> [kcal/mol]                                       6.27509468713739E+02
 [a.u.] -> [Pa]                                             2.94210107994716E+13
 [a.u.] -> [bar]                                            2.94210107994716E+08
 [a.u.] -> [atm]                                            2.90362800883016E+08
 [a.u.] -> [eV]                                             2.72113838565563E+01
 [a.u.] -> [Hz]                                             6.57968392072181E+15
 [a.u.] -> [1/cm] (wave numbers)                            2.19474631370540E+05
 [a.u./Bohr**2] -> [1/cm]                                   5.14048714338585E+03
 

 CELL_TOP| Volume [angstrom^3]:                                       168.660489
 CELL_TOP| Vector a [angstrom     5.525     0.000     0.000   |a| =     5.525070
 CELL_TOP| Vector b [angstrom     0.000     5.525     0.000   |b| =     5.525070
 CELL_TOP| Vector c [angstrom     0.000     0.000     5.525   |c| =     5.525070
 CELL_TOP| Angle (b,c), alpha [degree]:                                90.000000
 CELL_TOP| Angle (a,c), beta  [degree]:                                90.000000
 CELL_TOP| Angle (a,b), gamma [degree]:                                90.000000
 CELL_TOP| Numerically orthorhombic:                                         YES
 CELL_TOP| Periodicity                                                       XYZ

 CELL_CIF| Volume [angstrom^3]:                                       168.660489
 CELL_CIF| Vector a [angstrom     5.525     0.000     0.000   |a| =     5.525070
 CELL_CIF| Vector b [angstrom     0.000     5.525     0.000   |b| =     5.525070
 CELL_CIF| Vector c [angstrom     0.000     0.000     5.525   |c| =     5.525070
 CELL_CIF| Angle (b,c), alpha [degree]:                                90.000000
 CELL_CIF| Angle (a,c), beta  [degree]:                                90.000000
 CELL_CIF| Angle (a,b), gamma [degree]:                                90.000000
 CELL_CIF| Numerically orthorhombic:                                         YES
 CELL_CIF| Periodicity                                                       XYZ

 GENERATE|  Preliminary Number of Bonds generated:                             0
 GENERATE|  Achieved consistency in connectivity generation.

 CELL| Volume [angstrom^3]:                                           168.660489
 CELL| Vector a [angstrom]:       5.525     0.000     0.000   |a| =     5.525070
 CELL| Vector b [angstrom]:       0.000     5.525     0.000   |b| =     5.525070
 CELL| Vector c [angstrom]:       0.000     0.000     5.525   |c| =     5.525070
 CELL| Angle (b,c), alpha [degree]:                                    90.000000
 CELL| Angle (a,c), beta  [degree]:                                    90.000000
 CELL| Angle (a,b), gamma [degree]:                                    90.000000
 CELL| Numerically orthorhombic:                                             YES
 CELL| Periodicity                                                           XYZ

 CELL_REF| Volume [angstrom^3]:                                       168.660489
 CELL_REF| Vector a [angstrom     5.525     0.000     0.000   |a| =     5.525070
 CELL_REF| Vector b [angstrom     0.000     5.525     0.000   |b| =     5.525070
 CELL_REF| Vector c [angstrom     0.000     0.000     5.525   |c| =     5.525070
 CELL_REF| Angle (b,c), alpha [degree]:                                90.000000
 CELL_REF| Angle (a,c), beta  [degree]:                                90.000000
 CELL_REF| Angle (a,b), gamma [degree]:                                90.000000
 CELL_REF| Numerically orthorhombic:                                         YES
 CELL_REF| Periodicity                                                       XYZ

 *** WARNING in cryssym.F:180 :: Symmetry library SPGLIB not available ***


 *******************************************************************************
                                    Kpoints
 *******************************************************************************
 BRILLOUIN| K-point scheme                                        Monkhorst-Pack
 BRILLOUIN| K-Point grid                                             8    8    8
 BRILLOUIN| Accuracy in Symmetry determination                      0.100000E-05
 BRILLOUIN| K-Point point group symmetrization                               OFF
 BRILLOUIN| Wavefunction type                                            COMPLEX
 BRILLOUIN| List of Kpoints [2 Pi/Bohr]                                      256
 BRILLOUIN| Number           Weight            X              Y              Z
 BRILLOUIN|     1           0.00391       -0.43750       -0.43750       -0.43750
 BRILLOUIN|     2           0.00391       -0.43750       -0.43750       -0.31250
 BRILLOUIN|     3           0.00391       -0.43750       -0.43750       -0.18750
 BRILLOUIN|     4           0.00391       -0.43750       -0.43750       -0.06250
 BRILLOUIN|     5           0.00391       -0.43750       -0.43750        0.06250
 BRILLOUIN|     6           0.00391       -0.43750       -0.43750        0.18750
 BRILLOUIN|     7           0.00391       -0.43750       -0.43750        0.31250
 BRILLOUIN|     8           0.00391       -0.43750       -0.43750        0.43750
 BRILLOUIN|     9           0.00391       -0.43750       -0.31250       -0.43750
 BRILLOUIN|    10           0.00391       -0.43750       -0.31250       -0.31250
 BRILLOUIN|    11           0.00391       -0.43750       -0.31250       -0.18750
 BRILLOUIN|    12           0.00391       -0.43750       -0.31250       -0.06250
 BRILLOUIN|    13           0.00391       -0.43750       -0.31250        0.06250
 BRILLOUIN|    14           0.00391       -0.43750       -0.31250        0.18750
 BRILLOUIN|    15           0.00391       -0.43750       -0.31250        0.31250
 BRILLOUIN|    16           0.00391       -0.43750       -0.31250        0.43750
 BRILLOUIN|    17           0.00391       -0.43750       -0.18750       -0.43750
 BRILLOUIN|    18           0.00391       -0.43750       -0.18750       -0.31250
 BRILLOUIN|    19           0.00391       -0.43750       -0.18750       -0.18750
 BRILLOUIN|    20           0.00391       -0.43750       -0.18750       -0.06250
 BRILLOUIN|    21           0.00391       -0.43750       -0.18750        0.06250
 BRILLOUIN|    22           0.00391       -0.43750       -0.18750        0.18750
 BRILLOUIN|    23           0.00391       -0.43750       -0.18750        0.31250
 BRILLOUIN|    24           0.00391       -0.43750       -0.18750        0.43750
 BRILLOUIN|    25           0.00391       -0.43750       -0.06250       -0.43750
 BRILLOUIN|    26           0.00391       -0.43750       -0.06250       -0.31250
 BRILLOUIN|    27           0.00391       -0.43750       -0.06250       -0.18750
 BRILLOUIN|    28           0.00391       -0.43750       -0.06250       -0.06250
 BRILLOUIN|    29           0.00391       -0.43750       -0.06250        0.06250
 BRILLOUIN|    30           0.00391       -0.43750       -0.06250        0.18750
 BRILLOUIN|    31           0.00391       -0.43750       -0.06250        0.31250
 BRILLOUIN|    32           0.00391       -0.43750       -0.06250        0.43750
 BRILLOUIN|    33           0.00391       -0.43750        0.06250       -0.43750
 BRILLOUIN|    34           0.00391       -0.43750        0.06250       -0.31250
 BRILLOUIN|    35           0.00391       -0.43750        0.06250       -0.18750
 BRILLOUIN|    36           0.00391       -0.43750        0.06250       -0.06250
 BRILLOUIN|    37           0.00391       -0.43750        0.06250        0.06250
 BRILLOUIN|    38           0.00391       -0.43750        0.06250        0.18750
 BRILLOUIN|    39           0.00391       -0.43750        0.06250        0.31250
 BRILLOUIN|    40           0.00391       -0.43750        0.06250        0.43750
 BRILLOUIN|    41           0.00391       -0.43750        0.18750       -0.43750
 BRILLOUIN|    42           0.00391       -0.43750        0.18750       -0.31250
 BRILLOUIN|    43           0.00391       -0.43750        0.18750       -0.18750
 BRILLOUIN|    44           0.00391       -0.43750        0.18750       -0.06250
 BRILLOUIN|    45           0.00391       -0.43750        0.18750        0.06250
 BRILLOUIN|    46           0.00391       -0.43750        0.18750        0.18750
 BRILLOUIN|    47           0.00391       -0.43750        0.18750        0.31250
 BRILLOUIN|    48           0.00391       -0.43750        0.18750        0.43750
 BRILLOUIN|    49           0.00391       -0.43750        0.31250       -0.43750
 BRILLOUIN|    50           0.00391       -0.43750        0.31250       -0.31250
 BRILLOUIN|    51           0.00391       -0.43750        0.31250       -0.18750
 BRILLOUIN|    52           0.00391       -0.43750        0.31250       -0.06250
 BRILLOUIN|    53           0.00391       -0.43750        0.31250        0.06250
 BRILLOUIN|    54           0.00391       -0.43750        0.31250        0.18750
 BRILLOUIN|    55           0.00391       -0.43750        0.31250        0.31250
 BRILLOUIN|    56           0.00391       -0.43750        0.31250        0.43750
 BRILLOUIN|    57           0.00391       -0.43750        0.43750       -0.43750
 BRILLOUIN|    58           0.00391       -0.43750        0.43750       -0.31250
 BRILLOUIN|    59           0.00391       -0.43750        0.43750       -0.18750
 BRILLOUIN|    60           0.00391       -0.43750        0.43750       -0.06250
 BRILLOUIN|    61           0.00391       -0.43750        0.43750        0.06250
 BRILLOUIN|    62           0.00391       -0.43750        0.43750        0.18750
 BRILLOUIN|    63           0.00391       -0.43750        0.43750        0.31250
 BRILLOUIN|    64           0.00391       -0.43750        0.43750        0.43750
 BRILLOUIN|    65           0.00391       -0.31250       -0.43750       -0.43750
 BRILLOUIN|    66           0.00391       -0.31250       -0.43750       -0.31250
 BRILLOUIN|    67           0.00391       -0.31250       -0.43750       -0.18750
 BRILLOUIN|    68           0.00391       -0.31250       -0.43750       -0.06250
 BRILLOUIN|    69           0.00391       -0.31250       -0.43750        0.06250
 BRILLOUIN|    70           0.00391       -0.31250       -0.43750        0.18750
 BRILLOUIN|    71           0.00391       -0.31250       -0.43750        0.31250
 BRILLOUIN|    72           0.00391       -0.31250       -0.43750        0.43750
 BRILLOUIN|    73           0.00391       -0.31250       -0.31250       -0.43750
 BRILLOUIN|    74           0.00391       -0.31250       -0.31250       -0.31250
 BRILLOUIN|    75           0.00391       -0.31250       -0.31250       -0.18750
 BRILLOUIN|    76           0.00391       -0.31250       -0.31250       -0.06250
 BRILLOUIN|    77           0.00391       -0.31250       -0.31250        0.06250
 BRILLOUIN|    78           0.00391       -0.31250       -0.31250        0.18750
 BRILLOUIN|    79           0.00391       -0.31250       -0.31250        0.31250
 BRILLOUIN|    80           0.00391       -0.31250       -0.31250        0.43750
 BRILLOUIN|    81           0.00391       -0.31250       -0.18750       -0.43750
 BRILLOUIN|    82           0.00391       -0.31250       -0.18750       -0.31250
 BRILLOUIN|    83           0.00391       -0.31250       -0.18750       -0.18750
 BRILLOUIN|    84           0.00391       -0.31250       -0.18750       -0.06250
 BRILLOUIN|    85           0.00391       -0.31250       -0.18750        0.06250
 BRILLOUIN|    86           0.00391       -0.31250       -0.18750        0.18750
 BRILLOUIN|    87           0.00391       -0.31250       -0.18750        0.31250
 BRILLOUIN|    88           0.00391       -0.31250       -0.18750        0.43750
 BRILLOUIN|    89           0.00391       -0.31250       -0.06250       -0.43750
 BRILLOUIN|    90           0.00391       -0.31250       -0.06250       -0.31250
 BRILLOUIN|    91           0.00391       -0.31250       -0.06250       -0.18750
 BRILLOUIN|    92           0.00391       -0.31250       -0.06250       -0.06250
 BRILLOUIN|    93           0.00391       -0.31250       -0.06250        0.06250
 BRILLOUIN|    94           0.00391       -0.31250       -0.06250        0.18750
 BRILLOUIN|    95           0.00391       -0.31250       -0.06250        0.31250
 BRILLOUIN|    96           0.00391       -0.31250       -0.06250        0.43750
 BRILLOUIN|    97           0.00391       -0.31250        0.06250       -0.43750
 BRILLOUIN|    98           0.00391       -0.31250        0.06250       -0.31250
 BRILLOUIN|    99           0.00391       -0.31250        0.06250       -0.18750
 BRILLOUIN|   100           0.00391       -0.31250        0.06250       -0.06250
 BRILLOUIN|   101           0.00391       -0.31250        0.06250        0.06250
 BRILLOUIN|   102           0.00391       -0.31250        0.06250        0.18750
 BRILLOUIN|   103           0.00391       -0.31250        0.06250        0.31250
 BRILLOUIN|   104           0.00391       -0.31250        0.06250        0.43750
 BRILLOUIN|   105           0.00391       -0.31250        0.18750       -0.43750
 BRILLOUIN|   106           0.00391       -0.31250        0.18750       -0.31250
 BRILLOUIN|   107           0.00391       -0.31250        0.18750       -0.18750
 BRILLOUIN|   108           0.00391       -0.31250        0.18750       -0.06250
 BRILLOUIN|   109           0.00391       -0.31250        0.18750        0.06250
 BRILLOUIN|   110           0.00391       -0.31250        0.18750        0.18750
 BRILLOUIN|   111           0.00391       -0.31250        0.18750        0.31250
 BRILLOUIN|   112           0.00391       -0.31250        0.18750        0.43750
 BRILLOUIN|   113           0.00391       -0.31250        0.31250       -0.43750
 BRILLOUIN|   114           0.00391       -0.31250        0.31250       -0.31250
 BRILLOUIN|   115           0.00391       -0.31250        0.31250       -0.18750
 BRILLOUIN|   116           0.00391       -0.31250        0.31250       -0.06250
 BRILLOUIN|   117           0.00391       -0.31250        0.31250        0.06250
 BRILLOUIN|   118           0.00391       -0.31250        0.31250        0.18750
 BRILLOUIN|   119           0.00391       -0.31250        0.31250        0.31250
 BRILLOUIN|   120           0.00391       -0.31250        0.31250        0.43750
 BRILLOUIN|   121           0.00391       -0.31250        0.43750       -0.43750
 BRILLOUIN|   122           0.00391       -0.31250        0.43750       -0.31250
 BRILLOUIN|   123           0.00391       -0.31250        0.43750       -0.18750
 BRILLOUIN|   124           0.00391       -0.31250        0.43750       -0.06250
 BRILLOUIN|   125           0.00391       -0.31250        0.43750        0.06250
 BRILLOUIN|   126           0.00391       -0.31250        0.43750        0.18750
 BRILLOUIN|   127           0.00391       -0.31250        0.43750        0.31250
 BRILLOUIN|   128           0.00391       -0.31250        0.43750        0.43750
 BRILLOUIN|   129           0.00391       -0.18750       -0.43750       -0.43750
 BRILLOUIN|   130           0.00391       -0.18750       -0.43750       -0.31250
 BRILLOUIN|   131           0.00391       -0.18750       -0.43750       -0.18750
 BRILLOUIN|   132           0.00391       -0.18750       -0.43750       -0.06250
 BRILLOUIN|   133           0.00391       -0.18750       -0.43750        0.06250
 BRILLOUIN|   134           0.00391       -0.18750       -0.43750        0.18750
 BRILLOUIN|   135           0.00391       -0.18750       -0.43750        0.31250
 BRILLOUIN|   136           0.00391       -0.18750       -0.43750        0.43750
 BRILLOUIN|   137           0.00391       -0.18750       -0.31250       -0.43750
 BRILLOUIN|   138           0.00391       -0.18750       -0.31250       -0.31250
 BRILLOUIN|   139           0.00391       -0.18750       -0.31250       -0.18750
 BRILLOUIN|   140           0.00391       -0.18750       -0.31250       -0.06250
 BRILLOUIN|   141           0.00391       -0.18750       -0.31250        0.06250
 BRILLOUIN|   142           0.00391       -0.18750       -0.31250        0.18750
 BRILLOUIN|   143           0.00391       -0.18750       -0.31250        0.31250
 BRILLOUIN|   144           0.00391       -0.18750       -0.31250        0.43750
 BRILLOUIN|   145           0.00391       -0.18750       -0.18750       -0.43750
 BRILLOUIN|   146           0.00391       -0.18750       -0.18750       -0.31250
 BRILLOUIN|   147           0.00391       -0.18750       -0.18750       -0.18750
 BRILLOUIN|   148           0.00391       -0.18750       -0.18750       -0.06250
 BRILLOUIN|   149           0.00391       -0.18750       -0.18750        0.06250
 BRILLOUIN|   150           0.00391       -0.18750       -0.18750        0.18750
 BRILLOUIN|   151           0.00391       -0.18750       -0.18750        0.31250
 BRILLOUIN|   152           0.00391       -0.18750       -0.18750        0.43750
 BRILLOUIN|   153           0.00391       -0.18750       -0.06250       -0.43750
 BRILLOUIN|   154           0.00391       -0.18750       -0.06250       -0.31250
 BRILLOUIN|   155           0.00391       -0.18750       -0.06250       -0.18750
 BRILLOUIN|   156           0.00391       -0.18750       -0.06250       -0.06250
 BRILLOUIN|   157           0.00391       -0.18750       -0.06250        0.06250
 BRILLOUIN|   158           0.00391       -0.18750       -0.06250        0.18750
 BRILLOUIN|   159           0.00391       -0.18750       -0.06250        0.31250
 BRILLOUIN|   160           0.00391       -0.18750       -0.06250        0.43750
 BRILLOUIN|   161           0.00391       -0.18750        0.06250       -0.43750
 BRILLOUIN|   162           0.00391       -0.18750        0.06250       -0.31250
 BRILLOUIN|   163           0.00391       -0.18750        0.06250       -0.18750
 BRILLOUIN|   164           0.00391       -0.18750        0.06250       -0.06250
 BRILLOUIN|   165           0.00391       -0.18750        0.06250        0.06250
 BRILLOUIN|   166           0.00391       -0.18750        0.06250        0.18750
 BRILLOUIN|   167           0.00391       -0.18750        0.06250        0.31250
 BRILLOUIN|   168           0.00391       -0.18750        0.06250        0.43750
 BRILLOUIN|   169           0.00391       -0.18750        0.18750       -0.43750
 BRILLOUIN|   170           0.00391       -0.18750        0.18750       -0.31250
 BRILLOUIN|   171           0.00391       -0.18750        0.18750       -0.18750
 BRILLOUIN|   172           0.00391       -0.18750        0.18750       -0.06250
 BRILLOUIN|   173           0.00391       -0.18750        0.18750        0.06250
 BRILLOUIN|   174           0.00391       -0.18750        0.18750        0.18750
 BRILLOUIN|   175           0.00391       -0.18750        0.18750        0.31250
 BRILLOUIN|   176           0.00391       -0.18750        0.18750        0.43750
 BRILLOUIN|   177           0.00391       -0.18750        0.31250       -0.43750
 BRILLOUIN|   178           0.00391       -0.18750        0.31250       -0.31250
 BRILLOUIN|   179           0.00391       -0.18750        0.31250       -0.18750
 BRILLOUIN|   180           0.00391       -0.18750        0.31250       -0.06250
 BRILLOUIN|   181           0.00391       -0.18750        0.31250        0.06250
 BRILLOUIN|   182           0.00391       -0.18750        0.31250        0.18750
 BRILLOUIN|   183           0.00391       -0.18750        0.31250        0.31250
 BRILLOUIN|   184           0.00391       -0.18750        0.31250        0.43750
 BRILLOUIN|   185           0.00391       -0.18750        0.43750       -0.43750
 BRILLOUIN|   186           0.00391       -0.18750        0.43750       -0.31250
 BRILLOUIN|   187           0.00391       -0.18750        0.43750       -0.18750
 BRILLOUIN|   188           0.00391       -0.18750        0.43750       -0.06250
 BRILLOUIN|   189           0.00391       -0.18750        0.43750        0.06250
 BRILLOUIN|   190           0.00391       -0.18750        0.43750        0.18750
 BRILLOUIN|   191           0.00391       -0.18750        0.43750        0.31250
 BRILLOUIN|   192           0.00391       -0.18750        0.43750        0.43750
 BRILLOUIN|   193           0.00391       -0.06250       -0.43750       -0.43750
 BRILLOUIN|   194           0.00391       -0.06250       -0.43750       -0.31250
 BRILLOUIN|   195           0.00391       -0.06250       -0.43750       -0.18750
 BRILLOUIN|   196           0.00391       -0.06250       -0.43750       -0.06250
 BRILLOUIN|   197           0.00391       -0.06250       -0.43750        0.06250
 BRILLOUIN|   198           0.00391       -0.06250       -0.43750        0.18750
 BRILLOUIN|   199           0.00391       -0.06250       -0.43750        0.31250
 BRILLOUIN|   200           0.00391       -0.06250       -0.43750        0.43750
 BRILLOUIN|   201           0.00391       -0.06250       -0.31250       -0.43750
 BRILLOUIN|   202           0.00391       -0.06250       -0.31250       -0.31250
 BRILLOUIN|   203           0.00391       -0.06250       -0.31250       -0.18750
 BRILLOUIN|   204           0.00391       -0.06250       -0.31250       -0.06250
 BRILLOUIN|   205           0.00391       -0.06250       -0.31250        0.06250
 BRILLOUIN|   206           0.00391       -0.06250       -0.31250        0.18750
 BRILLOUIN|   207           0.00391       -0.06250       -0.31250        0.31250
 BRILLOUIN|   208           0.00391       -0.06250       -0.31250        0.43750
 BRILLOUIN|   209           0.00391       -0.06250       -0.18750       -0.43750
 BRILLOUIN|   210           0.00391       -0.06250       -0.18750       -0.31250
 BRILLOUIN|   211           0.00391       -0.06250       -0.18750       -0.18750
 BRILLOUIN|   212           0.00391       -0.06250       -0.18750       -0.06250
 BRILLOUIN|   213           0.00391       -0.06250       -0.18750        0.06250
 BRILLOUIN|   214           0.00391       -0.06250       -0.18750        0.18750
 BRILLOUIN|   215           0.00391       -0.06250       -0.18750        0.31250
 BRILLOUIN|   216           0.00391       -0.06250       -0.18750        0.43750
 BRILLOUIN|   217           0.00391       -0.06250       -0.06250       -0.43750
 BRILLOUIN|   218           0.00391       -0.06250       -0.06250       -0.31250
 BRILLOUIN|   219           0.00391       -0.06250       -0.06250       -0.18750
 BRILLOUIN|   220           0.00391       -0.06250       -0.06250       -0.06250
 BRILLOUIN|   221           0.00391       -0.06250       -0.06250        0.06250
 BRILLOUIN|   222           0.00391       -0.06250       -0.06250        0.18750
 BRILLOUIN|   223           0.00391       -0.06250       -0.06250        0.31250
 BRILLOUIN|   224           0.00391       -0.06250       -0.06250        0.43750
 BRILLOUIN|   225           0.00391       -0.06250        0.06250       -0.43750
 BRILLOUIN|   226           0.00391       -0.06250        0.06250       -0.31250
 BRILLOUIN|   227           0.00391       -0.06250        0.06250       -0.18750
 BRILLOUIN|   228           0.00391       -0.06250        0.06250       -0.06250
 BRILLOUIN|   229           0.00391       -0.06250        0.06250        0.06250
 BRILLOUIN|   230           0.00391       -0.06250        0.06250        0.18750
 BRILLOUIN|   231           0.00391       -0.06250        0.06250        0.31250
 BRILLOUIN|   232           0.00391       -0.06250        0.06250        0.43750
 BRILLOUIN|   233           0.00391       -0.06250        0.18750       -0.43750
 BRILLOUIN|   234           0.00391       -0.06250        0.18750       -0.31250
 BRILLOUIN|   235           0.00391       -0.06250        0.18750       -0.18750
 BRILLOUIN|   236           0.00391       -0.06250        0.18750       -0.06250
 BRILLOUIN|   237           0.00391       -0.06250        0.18750        0.06250
 BRILLOUIN|   238           0.00391       -0.06250        0.18750        0.18750
 BRILLOUIN|   239           0.00391       -0.06250        0.18750        0.31250
 BRILLOUIN|   240           0.00391       -0.06250        0.18750        0.43750
 BRILLOUIN|   241           0.00391       -0.06250        0.31250       -0.43750
 BRILLOUIN|   242           0.00391       -0.06250        0.31250       -0.31250
 BRILLOUIN|   243           0.00391       -0.06250        0.31250       -0.18750
 BRILLOUIN|   244           0.00391       -0.06250        0.31250       -0.06250
 BRILLOUIN|   245           0.00391       -0.06250        0.31250        0.06250
 BRILLOUIN|   246           0.00391       -0.06250        0.31250        0.18750
 BRILLOUIN|   247           0.00391       -0.06250        0.31250        0.31250
 BRILLOUIN|   248           0.00391       -0.06250        0.31250        0.43750
 BRILLOUIN|   249           0.00391       -0.06250        0.43750       -0.43750
 BRILLOUIN|   250           0.00391       -0.06250        0.43750       -0.31250
 BRILLOUIN|   251           0.00391       -0.06250        0.43750       -0.18750
 BRILLOUIN|   252           0.00391       -0.06250        0.43750       -0.06250
 BRILLOUIN|   253           0.00391       -0.06250        0.43750        0.06250
 BRILLOUIN|   254           0.00391       -0.06250        0.43750        0.18750
 BRILLOUIN|   255           0.00391       -0.06250        0.43750        0.31250
 BRILLOUIN|   256           0.00391       -0.06250        0.43750        0.43750
 *******************************************************************************

 *******************************************************************************
 *******************************************************************************
 **                                                                           **
 **     #####                         ##              ##                      **
 **    ##   ##            ##          ##              ##                      **
 **   ##     ##                       ##            ######                    **
 **   ##     ##  ##   ##  ##   #####  ##  ##   ####   ##    #####    #####    **
 **   ##     ##  ##   ##  ##  ##      ## ##   ##      ##   ##   ##  ##   ##   **
 **   ##  ## ##  ##   ##  ##  ##      ####     ###    ##   ######   ######    **
 **    ##  ###   ##   ##  ##  ##      ## ##      ##   ##   ##       ##        **
 **     #######   #####   ##   #####  ##  ##  ####    ##    #####   ##        **
 **           ##                                                    ##        **
 **                                                                           **
 **                                                ... make the atoms dance   **
 **                                                                           **
 **            Copyright (C) by CP2K developers group (2000-2025)             **
 **                      J. Chem. Phys. 152, 194103 (2020)                    **
 **                                                                           **
 *******************************************************************************

 DFT| Spin restricted Kohn-Sham (RKS) calculation                            RKS
 DFT| Multiplicity                                                             1
 DFT| Number of spin states                                                    1
 DFT| Charge                                                                   0
 DFT| Self-interaction correction (SIC)                                       NO
 DFT| Cutoffs: density                                              1.000000E-10
 DFT|          gradient                                             1.000000E-10
 DFT|          tau                                                  1.000000E-10
 DFT|          cutoff_smoothing_range                               0.000000E+00
 DFT| XC density smoothing                                                  NONE
 DFT| XC derivatives                                                          PW

 FUNCTIONAL| PBE:
 FUNCTIONAL| J.P.Perdew, K.Burke, M.Ernzerhof, Phys. Rev. Letter, vol. 77, n 18,
 FUNCTIONAL|  pp. 3865-3868, (1996) {spin unpolarized}                          


 QS| Method:                                                                 GPW
 QS| Density plane wave grid type                        NON-SPHERICAL FULLSPACE
 QS| Number of grid levels:                                                    4
 QS| Density cutoff [a.u.]:                                                500.0
 QS| Multi grid cutoff [a.u.]: 1) grid level                               500.0
 QS|                           2) grid level                               166.7
 QS|                           3) grid level                                55.6
 QS|                           4) grid level                                18.5
 QS| Grid level progression factor:                                          3.0
 QS| Relative density cutoff [a.u.]:                                        50.0
 QS| Interaction thresholds: eps_pgf_orb:                                1.0E-16
 QS|                         eps_filter_matrix:                          0.0E+00
 QS|                         eps_core_charge:                            1.0E-18
 QS|                         eps_rho_gspace:                             1.0E-16
 QS|                         eps_rho_rspace:                             1.0E-16
 QS|                         eps_gvg_rspace:                             1.0E-08
 QS|                         eps_ppl:                                    1.0E-02
 QS|                         eps_ppnl:                                   1.0E-10


 ATOMIC KIND INFORMATION

  1. Atomic kind: Ca                                    Number of atoms:       4

     Orbital Basis Set                             aug-TZVP-MOLOPT-GTH-tier-1-SR

       Number of orbital shell sets:                                           1
       Number of orbital shells:                                              12
       Number of primitive Cartesian functions:                                7
       Number of Cartesian basis functions:                                   35
       Number of spherical basis functions:                                   32
       Norm type:                                                              2

       Normalised Cartesian orbitals:

                        Set   Shell   Orbital            Exponent    Coefficient

                          1       1    2s                0.048448       0.035794
                                                         0.090632       0.000000
                                                         0.169547       0.041481
                                                         0.472314      -0.399615
                                                         1.196021      -0.411678
                                                         3.944817       1.750626
                                                         4.585536      -1.066355

                          1       2    3s                0.048448       0.061350
                                                         0.090632       0.000000
                                                         0.169547       0.039560
                                                         0.472314      -0.019242
                                                         1.196021       0.111545
                                                         3.944817      -0.723358
                                                         4.585536       0.519258

                          1       3    4s                0.048448       0.105595
                                                         0.090632       0.000000
                                                         0.169547      -0.509790
                                                         0.472314       0.593158
                                                         1.196021      -0.213659
                                                         3.944817       1.972938
                                                         4.585536      -1.571255

                          1       4    5s                0.048448       0.001138
                                                         0.090632       0.000000
                                                         0.169547       0.014870
                                                         0.472314       0.035706
                                                         1.196021       0.150756
                                                         3.944817       0.766555
                                                         4.585536       0.852023

                          1       5    6s                0.048448      -0.019051
                                                         0.090632      -0.131033
                                                         0.169547       0.048437
                                                         0.472314       0.120177
                                                         1.196021       0.092373
                                                         3.944817       0.000000
                                                         4.585536       0.000000

                          1       6    3px               0.048448      -0.011438
                                                         0.090632       0.000000
                                                         0.169547      -0.036304
                                                         0.472314      -0.190329
                                                         1.196021      -0.665984
                                                         3.944817      -0.970410
                                                         4.585536       1.341992
                          1       6    3py               0.048448      -0.011438
                                                         0.090632       0.000000
                                                         0.169547      -0.036304
                                                         0.472314      -0.190329
                                                         1.196021      -0.665984
                                                         3.944817      -0.970410
                                                         4.585536       1.341992
                          1       6    3pz               0.048448      -0.011438
                                                         0.090632       0.000000
                                                         0.169547      -0.036304
                                                         0.472314      -0.190329
                                                         1.196021      -0.665984
                                                         3.944817      -0.970410
                                                         4.585536       1.341992

                          1       7    4px               0.048448       0.024445
                                                         0.090632       0.000000
                                                         0.169547       0.037357
                                                         0.472314      -0.234475
                                                         1.196021      -0.663997
                                                         3.944817      -1.233971
                                                         4.585536       1.450863
                          1       7    4py               0.048448       0.024445
                                                         0.090632       0.000000
                                                         0.169547       0.037357
                                                         0.472314      -0.234475
                                                         1.196021      -0.663997
                                                         3.944817      -1.233971
                                                         4.585536       1.450863
                          1       7    4pz               0.048448       0.024445
                                                         0.090632       0.000000
                                                         0.169547       0.037357
                                                         0.472314      -0.234475
                                                         1.196021      -0.663997
                                                         3.944817      -1.233971
                                                         4.585536       1.450863

                          1       8    5px               0.048448      -0.016486
                                                         0.090632       0.000000
                                                         0.169547       0.188861
                                                         0.472314       0.088556
                                                         1.196021      -0.840429
                                                         3.944817       0.176301
                                                         4.585536      -0.939831
                          1       8    5py               0.048448      -0.016486
                                                         0.090632       0.000000
                                                         0.169547       0.188861
                                                         0.472314       0.088556
                                                         1.196021      -0.840429
                                                         3.944817       0.176301
                                                         4.585536      -0.939831
                          1       8    5pz               0.048448      -0.016486
                                                         0.090632       0.000000
                                                         0.169547       0.188861
                                                         0.472314       0.088556
                                                         1.196021      -0.840429
                                                         3.944817       0.176301
                                                         4.585536      -0.939831

                          1       9    6px               0.048448       0.060166
                                                         0.090632      -0.119592
                                                         0.169547       0.120061
                                                         0.472314       0.180171
                                                         1.196021      -0.351687
                                                         3.944817       0.000000
                                                         4.585536       0.000000
                          1       9    6py               0.048448       0.060166
                                                         0.090632      -0.119592
                                                         0.169547       0.120061
                                                         0.472314       0.180171
                                                         1.196021      -0.351687
                                                         3.944817       0.000000
                                                         4.585536       0.000000
                          1       9    6pz               0.048448       0.060166
                                                         0.090632      -0.119592
                                                         0.169547       0.120061
                                                         0.472314       0.180171
                                                         1.196021      -0.351687
                                                         3.944817       0.000000
                                                         4.585536       0.000000

                          1      10    4dx2              0.048448      -0.007580
                                                         0.090632       0.000000
                                                         0.169547      -0.011581
                                                         0.472314       0.123670
                                                         1.196021       0.107067
                                                         3.944817       5.902740
                                                         4.585536      -6.424111
                          1      10    4dxy              0.048448      -0.013128
                                                         0.090632       0.000000
                                                         0.169547      -0.020060
                                                         0.472314       0.214203
                                                         1.196021       0.185445
                                                         3.944817      10.223846
                                                         4.585536     -11.126886
                          1      10    4dxz              0.048448      -0.013128
                                                         0.090632       0.000000
                                                         0.169547      -0.020060
                                                         0.472314       0.214203
                                                         1.196021       0.185445
                                                         3.944817      10.223846
                                                         4.585536     -11.126886
                          1      10    4dy2              0.048448      -0.007580
                                                         0.090632       0.000000
                                                         0.169547      -0.011581
                                                         0.472314       0.123670
                                                         1.196021       0.107067
                                                         3.944817       5.902740
                                                         4.585536      -6.424111
                          1      10    4dyz              0.048448      -0.013128
                                                         0.090632       0.000000
                                                         0.169547      -0.020060
                                                         0.472314       0.214203
                                                         1.196021       0.185445
                                                         3.944817      10.223846
                                                         4.585536     -11.126886
                          1      10    4dz2              0.048448      -0.007580
                                                         0.090632       0.000000
                                                         0.169547      -0.011581
                                                         0.472314       0.123670
                                                         1.196021       0.107067
                                                         3.944817       5.902740
                                                         4.585536      -6.424111

                          1      11    5dx2              0.048448       0.002045
                                                         0.090632       0.000000
                                                         0.169547       0.032521
                                                         0.472314       0.145243
                                                         1.196021       0.555567
                                                         3.944817       6.871566
                                                         4.585536      -6.244965
                          1      11    5dxy              0.048448       0.003541
                                                         0.090632       0.000000
                                                         0.169547       0.056327
                                                         0.472314       0.251568
                                                         1.196021       0.962270
                                                         3.944817      11.901901
                                                         4.585536     -10.816596
                          1      11    5dxz              0.048448       0.003541
                                                         0.090632       0.000000
                                                         0.169547       0.056327
                                                         0.472314       0.251568
                                                         1.196021       0.962270
                                                         3.944817      11.901901
                                                         4.585536     -10.816596
                          1      11    5dy2              0.048448       0.002045
                                                         0.090632       0.000000
                                                         0.169547       0.032521
                                                         0.472314       0.145243
                                                         1.196021       0.555567
                                                         3.944817       6.871566
                                                         4.585536      -6.244965
                          1      11    5dyz              0.048448       0.003541
                                                         0.090632       0.000000
                                                         0.169547       0.056327
                                                         0.472314       0.251568
                                                         1.196021       0.962270
                                                         3.944817      11.901901
                                                         4.585536     -10.816596
                          1      11    5dz2              0.048448       0.002045
                                                         0.090632       0.000000
                                                         0.169547       0.032521
                                                         0.472314       0.145243
                                                         1.196021       0.555567
                                                         3.944817       6.871566
                                                         4.585536      -6.244965

                          1      12    6dx2              0.048448      -0.003667
                                                         0.090632      -0.001434
                                                         0.169547       0.051801
                                                         0.472314       0.219112
                                                         1.196021       0.113053
                                                         3.944817       0.000000
                                                         4.585536       0.000000
                          1      12    6dxy              0.048448      -0.006352
                                                         0.090632      -0.002484
                                                         0.169547       0.089721
                                                         0.472314       0.379514
                                                         1.196021       0.195814
                                                         3.944817       0.000000
                                                         4.585536       0.000000
                          1      12    6dxz              0.048448      -0.006352
                                                         0.090632      -0.002484
                                                         0.169547       0.089721
                                                         0.472314       0.379514
                                                         1.196021       0.195814
                                                         3.944817       0.000000
                                                         4.585536       0.000000
                          1      12    6dy2              0.048448      -0.003667
                                                         0.090632      -0.001434
                                                         0.169547       0.051801
                                                         0.472314       0.219112
                                                         1.196021       0.113053
                                                         3.944817       0.000000
                                                         4.585536       0.000000
                          1      12    6dyz              0.048448      -0.006352
                                                         0.090632      -0.002484
                                                         0.169547       0.089721
                                                         0.472314       0.379514
                                                         1.196021       0.195814
                                                         3.944817       0.000000
                                                         4.585536       0.000000
                          1      12    6dz2              0.048448      -0.003667
                                                         0.090632      -0.001434
                                                         0.169547       0.051801
                                                         0.472314       0.219112
                                                         1.196021       0.113053
                                                         3.944817       0.000000
                                                         4.585536       0.000000

       Atomic covalent radius [Angstrom]:                                  1.740

       Atomic van der Waals radius [Angstrom]:                             2.310

     GTH Potential information for                                       GTH-PBE

       Description:                       Goedecker-Teter-Hutter pseudopotential
                                           Goedecker et al., PRB 54, 1703 (1996)
                                          Hartwigsen et al., PRB 58, 3641 (1998)
                                                      Krack, TCA 114, 145 (2005)

       Gaussian exponent of the core charge distribution:               3.287311
       Electronic configuration (s p d ...):                               4   6

       Parameters of the local part of the GTH pseudopotential:

                          rloc        C1          C2          C3          C4
                        0.390000   -4.167072   -1.583798

       Parameters of the non-local part of the GTH (SOC) pseudopotential:

                   l      r(l)      h(i,j,l)
                                    k(i,j,l)
                   0    0.289356   20.531876   -7.129786
                                   -7.129786    9.204514
                   1    0.327882    5.805605   -0.428753
                                   -0.428753    0.507308
                                    0.159923   -0.199679
                                   -0.199679    0.236263
                   2    0.679617    0.058068
                                    0.000465


 MOLECULE KIND INFORMATION


 All atoms are their own molecule, skipping detailed information


 TOTAL NUMBERS AND MAXIMUM NUMBERS

  Total number of            - Atomic kinds:                                   1
                             - Atoms:                                          4
                             - Shell sets:                                     4
                             - Shells:                                        48
                             - Primitive Cartesian functions:                 28
                             - Cartesian basis functions:                    140
                             - Spherical basis functions:                    128

  Maximum angular momentum of- Orbital basis functions:                        2
                             - Local part of the GTH pseudopotential:          2
                             - Non-local part of the GTH pseudopotential:      3


 MODULE QUICKSTEP: ATOMIC COORDINATES IN ANGSTROM

   Atom Kind Element         X             Y             Z       Z(eff)     Mass
      1    1 Ca   20      0.000000      0.000000      0.000000  10.0000  40.0780
      2    1 Ca   20      0.000000      2.762535      2.762535  10.0000  40.0780
      3    1 Ca   20      2.762535      0.000000      2.762535  10.0000  40.0780
      4    1 Ca   20      2.762535      2.762535      0.000000  10.0000  40.0780



 SCF PARAMETERS         Density guess:                                    ATOMIC
                        --------------------------------------------------------
                        max_scf:                                             500
                        max_scf_history:                                       0
                        max_diis:                                              4
                        --------------------------------------------------------
                        eps_scf:                                        1.00E-09
                        eps_scf_history:                                0.00E+00
                        eps_diis:                                       1.00E-01
                        eps_eigval:                                     1.00E-05
                        --------------------------------------------------------
                        level_shift [a.u.]:                             0.000000
                        added MOs                                       108    0
                        --------------------------------------------------------
                        Mixing method:                            BROYDEN_MIXING
                                                charge density mixing in g-space
                        --------------------------------------------------------
                        Smear method:                                FERMI_DIRAC
                        Electronic temperature [K]:                        300.0
                        Electronic temperature [a.u.]:                  9.50E-04
                        Accuracy threshold:                             1.00E-10
                        --------------------------------------------------------
                        No outer SCF

 PW_GRID| Information for grid number                                          1
 PW_GRID| Grid distributed over                                    16 processors
 PW_GRID| Real space group dimensions                                    16    1
 PW_GRID| the grid is blocked:                                                NO
 PW_GRID| Cutoff [a.u.]                                                    500.0
 PW_GRID| spherical cutoff:                                                   NO
 PW_GRID|   Bounds   1            -54      53                Points:         108
 PW_GRID|   Bounds   2            -54      53                Points:         108
 PW_GRID|   Bounds   3            -54      53                Points:         108
 PW_GRID| Volume element (a.u.^3)  0.9035E-03     Volume (a.u.^3)      1138.1774
 PW_GRID| Grid span                                                    FULLSPACE
 PW_GRID|   Distribution                         Average         Max         Min
 PW_GRID|   G-Vectors                            78732.0       78732       78732
 PW_GRID|   G-Rays                                 729.0         729         729
 PW_GRID|   Real Space Points                    78732.0       81648       69984

 PW_GRID| Information for grid number                                          2
 PW_GRID| Number of the reference grid                                         1
 PW_GRID| Grid distributed over                                    16 processors
 PW_GRID| Real space group dimensions                                    16    1
 PW_GRID| the grid is blocked:                                                NO
 PW_GRID| Cutoff [a.u.]                                                    166.7
 PW_GRID| spherical cutoff:                                                   NO
 PW_GRID|   Bounds   1            -32      31                Points:          64
 PW_GRID|   Bounds   2            -32      31                Points:          64
 PW_GRID|   Bounds   3            -32      31                Points:          64
 PW_GRID| Volume element (a.u.^3)  0.4342E-02     Volume (a.u.^3)      1138.1774
 PW_GRID| Grid span                                                    FULLSPACE
 PW_GRID|   Distribution                         Average         Max         Min
 PW_GRID|   G-Vectors                            16384.0       16448       16320
 PW_GRID|   G-Rays                                 256.0         257         255
 PW_GRID|   Real Space Points                    16384.0       16384       16384

 PW_GRID| Information for grid number                                          3
 PW_GRID| Number of the reference grid                                         1
 PW_GRID| Grid distributed over                                    16 processors
 PW_GRID| Real space group dimensions                                    16    1
 PW_GRID| the grid is blocked:                                                NO
 PW_GRID| Cutoff [a.u.]                                                     55.6
 PW_GRID| spherical cutoff:                                                   NO
 PW_GRID|   Bounds   1            -18      17                Points:          36
 PW_GRID|   Bounds   2            -18      17                Points:          36
 PW_GRID|   Bounds   3            -18      17                Points:          36
 PW_GRID| Volume element (a.u.^3)  0.2440E-01     Volume (a.u.^3)      1138.1774
 PW_GRID| Grid span                                                    FULLSPACE
 PW_GRID|   Distribution                         Average         Max         Min
 PW_GRID|   G-Vectors                             2916.0        2952        2880
 PW_GRID|   G-Rays                                  81.0          82          80
 PW_GRID|   Real Space Points                     2916.0        3888        2592

 PW_GRID| Information for grid number                                          4
 PW_GRID| Number of the reference grid                                         1
 PW_GRID| Grid distributed over                                    16 processors
 PW_GRID| Real space group dimensions                                    16    1
 PW_GRID| the grid is blocked:                                                NO
 PW_GRID| Cutoff [a.u.]                                                     18.5
 PW_GRID| spherical cutoff:                                                   NO
 PW_GRID|   Bounds   1            -12      11                Points:          24
 PW_GRID|   Bounds   2            -12      11                Points:          24
 PW_GRID|   Bounds   3            -12      11                Points:          24
 PW_GRID| Volume element (a.u.^3)  0.8233E-01     Volume (a.u.^3)      1138.1774
 PW_GRID| Grid span                                                    FULLSPACE
 PW_GRID|   Distribution                         Average         Max         Min
 PW_GRID|   G-Vectors                              864.0         912         840
 PW_GRID|   G-Rays                                  36.0          38          35
 PW_GRID|   Real Space Points                      864.0        1152         576

 POISSON| Solver                                                        PERIODIC
 POISSON| Periodicity                                                        XYZ

 RS_GRID| Information for grid number                                          1
 RS_GRID|   Bounds   1            -54      53                Points:         108
 RS_GRID|   Bounds   2            -54      53                Points:         108
 RS_GRID|   Bounds   3            -54      53                Points:         108
 RS_GRID| Real space fully replicated
 RS_GRID| Group size                                                           1

 RS_GRID| Information for grid number                                          2
 RS_GRID|   Bounds   1            -32      31                Points:          64
 RS_GRID|   Bounds   2            -32      31                Points:          64
 RS_GRID|   Bounds   3            -32      31                Points:          64
 RS_GRID| Real space fully replicated
 RS_GRID| Group size                                                           1

 RS_GRID| Information for grid number                                          3
 RS_GRID|   Bounds   1            -18      17                Points:          36
 RS_GRID|   Bounds   2            -18      17                Points:          36
 RS_GRID|   Bounds   3            -18      17                Points:          36
 RS_GRID| Real space fully replicated
 RS_GRID| Group size                                                           1

 RS_GRID| Information for grid number                                          4
 RS_GRID|   Bounds   1            -12      11                Points:          24
 RS_GRID|   Bounds   2            -12      11                Points:          24
 RS_GRID|   Bounds   3            -12      11                Points:          24
 RS_GRID| Real space fully replicated
 RS_GRID| Group size                                                           1

 Number of electrons:                                                         40
 Number of occupied orbitals:                                                 20
 Number of molecular orbitals:                                               128

 Number of orbital functions:                                                128
 Number of independent orbital functions:                                    128

 Extrapolation method: initial_guess

 Atomic guess: The first density matrix is obtained in terms of atomic orbitals
               and electronic configurations assigned to each atomic kind

 Guess for atomic kind: Ca

 Electronic structure
    Total number of core electrons                                         10.00
    Total number of valence electrons                                      10.00
    Total number of electrons                                              20.00
    Multiplicity                                                   not specified
    S   [  2.00  2.00] 2.00  2.00
    P   [  6.00] 6.00


 *******************************************************************************
                  Iteration          Convergence                     Energy [au]
 *******************************************************************************
                          1        0.276247                     -36.439830572245
                          2        0.111040                     -36.451061569111
                          3        0.941502E-02                 -36.453880519141
                          4        0.245137E-04                 -36.453909062298
                          5        0.333057E-06                 -36.453909062456

 Energy components [Hartree]           Total Energy ::          -36.453909062456
                                        Band Energy ::           -9.754623833344
                                     Kinetic Energy ::           13.025901429114
                                   Potential Energy ::          -49.479810491570
                                      Virial (-V/T) ::            3.798570928917
                                        Core Energy ::          -59.833254714435
                                          XC Energy ::           -4.816495611520
                                     Coulomb Energy ::           28.195841263498
                       Total Pseudopotential Energy ::          -72.920826235087
                       Local Pseudopotential Energy ::          -81.161896539863
                    Nonlocal Pseudopotential Energy ::            8.241070304775
                                        Confinement ::            0.616700915393

 Orbital energies  State     L     Occupation   Energy[a.u.]          Energy[eV]

                       1     0          2.000      -1.733386          -47.167837
                       2     0          2.000      -0.109306           -2.974374

                       1     1          6.000      -1.011540          -27.525399


 Total Electron Density at R=0:                                         0.000111
 Re-scaling the density matrix to get the right number of electrons
                  # Electrons              Trace(P)               Scaling factor
                           40                40.000                        1.000


 SCF WAVEFUNCTION OPTIMIZATION

  Step     Update method      Time    Convergence         Total energy    Change
  ------------------------------------------------------------------------------
     1 NoMix/Diag. 0.10E+00    3.8     1.65606184      -147.2290905048 -1.47E+02
     2 Broy./Diag. 0.10E+00    3.8     0.01985531      -146.0047481315  1.22E+00
     3 Broy./Diag. 0.10E+00    3.8     0.17168055      -146.4656544318 -4.61E-01
     4 Broy./Diag. 0.10E+00    3.8     0.00413076      -146.9293750807 -4.64E-01
     5 Broy./Diag. 0.10E+00    3.8     0.01925580      -146.8954832121  3.39E-02
     6 Broy./Diag. 0.10E+00    3.8     0.00143758      -146.8906634415  4.82E-03
     7 Broy./Diag. 0.10E+00    3.8     0.01050483      -146.8890957213  1.57E-03
     8 Broy./Diag. 0.10E+00    3.8     0.00038172      -146.8770579871  1.20E-02
     9 Broy./Diag. 0.10E+00    3.8     0.00332867      -146.8749287665  2.13E-03
    10 Broy./Diag. 0.10E+00    3.8     0.00010115      -146.8715241199  3.40E-03
    11 Broy./Diag. 0.10E+00    3.8     0.00081402      -146.8722387307 -7.15E-04
    12 Broy./Diag. 0.10E+00    3.8     0.00000969      -146.8721436746  9.51E-05
    13 Broy./Diag. 0.10E+00    3.8     0.00008182      -146.8719452467  1.98E-04
    14 Broy./Diag. 0.10E+00    3.8     0.00000115      -146.8718222161  1.23E-04
    15 Broy./Diag. 0.10E+00    3.9     0.00001572      -146.8718104343  1.18E-05
    16 Broy./Diag. 0.10E+00    3.9     0.00000288      -146.8717897574  2.07E-05
    17 Broy./Diag. 0.10E+00    3.8     0.00000190      -146.8717980002 -8.24E-06
    18 Broy./Diag. 0.10E+00    3.8     0.00000260      -146.8718063175 -8.32E-06
    19 Broy./Diag. 0.10E+00    3.8     0.00000038      -146.8718103917 -4.07E-06
    20 Broy./Diag. 0.10E+00    3.8     0.00000074      -146.8718105830 -1.91E-07
    21 Broy./Diag. 0.10E+00    3.8     0.00000008      -146.8718099068  6.76E-07
    22 Broy./Diag. 0.10E+00    3.8     0.00000020      -146.8718094955  4.11E-07
    23 Broy./Diag. 0.10E+00    3.8     0.00000003      -146.8718093067  1.89E-07
    24 Broy./Diag. 0.10E+00    3.8     0.00000003      -146.8718095130 -2.06E-07
    25 Broy./Diag. 0.10E+00    3.8     0.00000003      -146.8718095748 -6.18E-08
    26 Broy./Diag. 0.10E+00    3.9     0.00000002      -146.8718095662  8.60E-09
    27 Broy./Diag. 0.10E+00    3.8     8.0569E-09      -146.8718095147  5.15E-08
    28 Broy./Diag. 0.10E+00    3.8     7.4841E-09      -146.8718094233  9.14E-08
    29 Broy./Diag. 0.10E+00    3.8     7.5817E-09      -146.8718093959  2.74E-08
    30 Broy./Diag. 0.10E+00    3.8     4.9817E-09      -146.8718094092 -1.34E-08
    31 Broy./Diag. 0.10E+00    3.8     5.3677E-09      -146.8718094216 -1.23E-08
    32 Broy./Diag. 0.10E+00    3.8     3.5783E-09      -146.8718094332 -1.17E-08
    33 Broy./Diag. 0.10E+00    3.8     1.3245E-10      -146.8718094371 -3.88E-09

  *** SCF run converged in    33 steps ***


  Electronic density on regular grids:        -40.0000000000        0.0000000000
  Core density on regular grids:               40.0000000000        0.0000000000
  Total charge density on r-space grids:        0.0000000000
  Total charge density g-space grids:           0.0000000000

  Overlap energy of the core charge distribution:               0.00000000000000
  Self energy of the core charge distribution:               -289.32799156295198
  Core Hamiltonian energy:                                     67.65693692650758
  Hartree energy:                                              95.12119360273030
  Exchange-correlation energy:                                -20.32146458347391
  Electronic entropic energy:                                  -0.00048381992669
  Fermi energy:                                                 0.15303403397245

  Total energy:                                              -146.87180943711468

 !-----------------------------------------------------------------------------!
                     Mulliken Population Analysis

 #  Atom  Element  Kind  Atomic population                           Net charge
       1     Ca       1         10.000000                              0.000000
       2     Ca       1         10.000000                             -0.000000
       3     Ca       1         10.000000                              0.000000
       4     Ca       1         10.000000                             -0.000000
 # Total charge                             40.000000                  0.000000

 !-----------------------------------------------------------------------------!

 !-----------------------------------------------------------------------------!
                           Hirshfeld Charges

  #Atom  Element  Kind  Ref Charge     Population                    Net charge
      1       Ca     1      10.000         10.000                         0.000
      2       Ca     1      10.000         10.000                        -0.000
      3       Ca     1      10.000         10.000                         0.000
      4       Ca     1      10.000         10.000                        -0.000

  Total Charge                                                            0.000
 !-----------------------------------------------------------------------------!

 KPOINTS| Band Structure Calculation
 KPOINTS| Number of k-point sets                                               1
 KPOINTS| Number of added MOs/bands                                           -1
 KPOINTS| Number of k-points in set    1                                     148
 KPOINTS| In units of b-vector [2pi/Bohr]
 KPOINTS| Special point     1 not specifi     0.000000     0.000000     0.000000
 KPOINTS| Special point     2 not specifi     0.500000     0.000000     0.500000
 KPOINTS| Special point     3 not specifi     0.625000     0.250000     0.625000
 KPOINTS| Special point     4 not specifi     0.000000     0.000000     0.000000
 KPOINTS| Time for k-point line                                            1.955

 ENERGY| Total FORCE_EVAL ( QS ) energy [hartree]           -146.871809437114678

 -------------------------------------------------------------------------------
 -                                                                             -
 -                                DBCSR STATISTICS                             -
 -                                                                             -
 -------------------------------------------------------------------------------
 COUNTER                                    TOTAL       BLAS       SMM       ACC
 flops inhomo. stacks                           0       0.0%      0.0%      0.0%
 flops total                         0.000000E+00       0.0%      0.0%      0.0%
 flops max/rank                      0.000000E+00       0.0%      0.0%      0.0%
 matmuls inhomo. stacks                         0       0.0%      0.0%      0.0%
 matmuls total                                  0       0.0%      0.0%      0.0%
 number of processed stacks                     0       0.0%      0.0%      0.0%
 average stack size                                     0.0       0.0       0.0
[...]

 ROUTINE             CALLS      AVE VOLUME [Bytes]
 MP_Group                6
 MP_Bcast           307874                   1185.
 MP_Allreduce        90046                    110.
 MP_Sync                 4
 MP_Alltoall           599                3554548.
 MP_SendRecv          2070                 212623.
 MP_ISendRecv         1995                 209505.
 MP_Wait            210431
 MP_comm_split           4
 MP_ISend           215068                   1973.
 MP_IRecv           358960                   1185.
 -------------------------------------------------------------------------------


 -------------------------------------------------------------------------------
 -                                                                             -
 -                           R E F E R E N C E S                               -
 -                                                                             -
 -------------------------------------------------------------------------------
 
 CP2K version 2025.1 (Development Version), the CP2K developers group (2025).
 CP2K is freely available from https://www.cp2k.org/ .
 
 T. D. Kuehne, M. Iannuzzi, M. Del Ben, V. V. Rybkin, P. Seewald, F. Stein, T. 
 Laino, R. Z. Khaliullin, O. Schuett, F. Schiffmann, D. Golze, J. Wilhelm, S. 
 Chulkov, M. H. Bani-Hashemian, V. Weber, U. Borstnik, M. Taillefumier, A. S. 
 Jakobovits, A. Lazzaro, H. Pabst, T. Mueller, R. Schade, M. Guidon, S. 
 Andermatt, N. Holmberg, G. K. Schenter, A. Hehn, A. Bussy, F. Belleflamme, G. 
 Tabacchi, A. Gloess, M. Lass, I. Bethune, C. J. Mundy, C. Plessl, M. Watkins, 
 J. VandeVondele, M. Krack, J. Hutter.
 J. Chem. Phys. 152, 194103 (2020).
 CP2K: An electronic structure and molecular dynamics software package - 
 Quickstep: Efficient and accurate electronic structure calculations.
 https://doi.org/10.1063/5.0007045

 O. Schuett, P. Messmer, J. Hutter, J. VandeVondele.
 Electronic Structure Calculations on Graphics Processing Units, 173-190 (2016).
 GPU-Accelerated Sparse Matrix-Matrix Multiplication for Linear Scaling Density 
 Functional Theory.
 https://doi.org/10.1002/9781118670712.ch8

 J. Hutter, M. Iannuzzi, F. Schiffmann, J. VandeVondele.
 WIREs Comput Mol Sci. 4, 15-25 (2014).
 CP2K: atomistic simulations of condensed matter systems.
 https://doi.org/10.1002/wcms.1159

 U. Borstnik, J. VandeVondele, V. Weber, J. Hutter.
 Parallel Comput. 40, 47-58 (2014).
 Sparse matrix multiplication: The distributed block-compressed sparse row 
 library.
 https://doi.org/10.1016/j.parco.2014.03.012

 J. VandeVondele, J. Hutter.
 J. Chem. Phys. 127, 114105 (2007).
 Gaussian basis sets for accurate calculations on molecular systems in gas and 
 condensed phases.
 https://doi.org/10.1063/1.2770708

 J. VandeVondele, M. Krack, F. Mohamed, M. Parrinello, T. Chassaing, J. Hutter.
 Comput. Phys. Commun. 167, 103-128 (2005).
 QUICKSTEP: Fast and accurate density functional calculations using a mixed 
 Gaussian and plane waves approach.
 https://doi.org/10.1016/j.cpc.2004.12.014

 M. Krack.
 Theor. Chem. Acc. 114, 145-152 (2005).
 Pseudopotentials for H to Kr optimized for gradient-corrected 
 exchange-correlation functionals.
 https://doi.org/10.1007/s00214-005-0655-y

 M. Frigo, S. G. Johnson.
 Proc. IEEE 93, 216-231 (2005).
 The design and implementation of FFTW3.
 https://doi.org/10.1109/JPROC.2004.840301

 C. Hartwigsen, S. Goedecker, J. Hutter.
 Phys. Rev. B 58, 3641-3662 (1998).
 Relativistic separable dual-space Gaussian pseudopotentials from H to Rn.
 https://doi.org/10.1103/PhysRevB.58.3641

 G. Lippert, J. Hutter, M. Parrinello.
 Mol. Phys. 92, 477-487 (1997).
 A hybrid Gaussian and plane wave density functional scheme.
 https://doi.org/10.1080/002689797170220

 S. Goedecker, M. Teter, J. Hutter.
 Phys. Rev. B 54, 1703-1710 (1996).
 Separable dual-space Gaussian pseudopotentials.
 https://doi.org/10.1103/PhysRevB.54.1703

 J. P. Perdew, K. Burke, M. Ernzerhof.
 Phys. Rev. Lett. 77, 3865-3868 (1996).
 Generalized gradient approximation made simple.
 https://doi.org/10.1103/PhysRevLett.77.3865


 -------------------------------------------------------------------------------
 -                                                                             -
 -                                T I M I N G                                  -
 -                                                                             -
 -------------------------------------------------------------------------------
 SUBROUTINE                       CALLS  ASD         SELF TIME        TOTAL TIME
                                MAXIMUM       AVERAGE  MAXIMUM  AVERAGE  MAXIMUM
 CP2K                                 1  1.0    0.012    0.016  130.487  130.488
 qs_energies                          1  2.0    0.006    0.049  130.258  130.292
 scf_env_do_scf                       1  3.0    0.000    0.000  127.613  127.613
 scf_env_do_scf_inner_loop           33  4.0    0.027    0.030  127.613  127.613
 do_general_diag_kp                  34  5.9    0.201    0.225  118.836  120.889
 qs_scf_new_mos_kp                   33  5.0    0.000    0.000  116.979  118.986
 mp_alltoall_i22                 123640  8.8   34.018   77.600   34.018   77.600
 dbcsr_desymmetrize_deep          70564  7.4    1.147    1.249   30.092   60.146
 rskp_transform                   17192  6.9   27.535   46.634   27.535   46.634
 dbcsr_complete_redistribute      53076  8.3    1.964    2.172   27.673   41.026
 kpoint_density_transform            33  7.0    0.083    0.094   32.067   32.180
 copy_fm_to_dbcsr                 16896  8.0    0.104    0.115   14.349   27.344
 transform_dmat                    8448  8.0   13.003   22.045   13.003   22.045
 copy_dbcsr_to_fm                 36180  6.9    0.399    0.447   21.304   21.652
 cp_fm_start_copy_general         51280  7.3    0.989    1.350    8.894    9.056
 cp_cfm_geeig_canon                 565  6.8    0.006    0.007    6.057    6.255
 mp_allgather_i                  102560  8.3    5.683    5.890    5.683    5.890
 qs_ks_update_qs_env                 33  5.0    0.000    0.000    4.480    5.738
 cp_cfm_heevd                      1130  7.8    0.002    0.002    5.393    5.588
 cp_cfm_heevd_base                 1130  8.8    5.391    5.586    5.391    5.586
 dbcsr_finalize                  138408  8.5    0.633    0.688    4.424    4.865
 rebuild_ks_matrix                   33  6.0    0.000    0.000    3.436    4.694
 qs_ks_build_kohn_sham_matrix        33  7.0    0.052    0.054    3.436    4.694
 mp_alltoall_d11v                370920  9.4    3.912    4.180    3.912    4.180
 mp_cart_sub                      72362  8.9    4.100    4.146    4.100    4.146
 sum_up_and_integrate                33  8.0    0.000    0.000    2.582    3.834
 integrate_v_rspace                  33  9.0    0.041    0.071    2.581    3.833
 grid_integrate_task_list            33 10.0    2.019    3.255    2.019    3.255
 qs_rho_update_rho_low               34  5.0    0.000    0.000    2.964    2.991
 calculate_rho_elec                  34  6.0    0.028    0.036    2.964    2.991
 transfer_rs2pw                     138  8.0    0.002    0.002    1.401    2.759
 dbcsr_merge_all                  53076 10.3    1.322    1.619    2.391    2.748
 mp_alltoall_i11v                229792  9.0    2.620    2.717    2.620    2.717
 density_rs2pw                       34  7.0    0.001    0.001    1.411    2.648
 transfer_rs2pw_500                  36  8.9    0.134    0.141    1.280    2.645
 hybrid_alltoall_any              70564  8.4    0.295    0.323    2.456    2.622
 mp_sendrecv_dv                    2070 10.0    1.226    2.588    1.226    2.588
 mp_cart_create                   36187  8.9    2.270    2.377    2.270    2.377
 grid_collocate_task_list            34  7.0    1.521    2.326    1.521    2.326
 write_kpoints_restart               33  5.0    0.006    0.010    2.004    2.005
 kpoint_set_mo_occupation            33  7.0    1.509    1.553    1.737    1.858
 mp_bcast_iv                     205144  8.3    1.500    1.620    1.500    1.620
 dbcsr_work_create               123640  8.8    0.761    0.798    1.257    1.330
 dbcsr_create_new                242505  8.1    0.974    1.053    1.200    1.296
 dbcsr_dot                        59269  8.0    0.306    0.371    1.029    1.074
 dbcsr_iterator_start            425747  8.9    0.818    0.880    0.974    1.052
 evaluate_core_matrix_traces         33  6.0    0.000    0.000    1.043    1.043
 calculate_ptrace_kp                 66  7.0    0.044    0.046    1.043    1.043
 cp_fm_write_unformatted           1796  6.0    0.493    0.911    0.537    0.990
 dbcsr_data_new                 1332810  9.7    0.905    0.981    0.905    0.981
 dbcsr_work_destroy_all          123640  9.8    0.594    0.603    0.924    0.947
 tree_to_linear_d                 53076 11.3    0.850    0.898    0.850    0.898
 copy_fm_to_dbcsr_bc              16896  9.0    0.232    0.260    0.781    0.853
 copy_dbcsr_to_fm_bc              36180  7.9    0.367    0.402    0.800    0.837
 dbcsr_copy                       77062  7.0    0.368    0.411    0.728    0.821
 dbcsr_data_release             1899685 10.1    0.764    0.812    0.764    0.812
 mp_sum_d                         59955  8.9    0.597    0.769    0.597    0.769
 kpoint_density_matrices             33  7.0    0.015    0.016    0.662    0.752
 parallel_gemm_fm                  2112  8.0    0.002    0.002    0.635    0.724
 parallel_gemm_fm_gemm             2112  9.0    0.002    0.002    0.633    0.722
 cp_fm_gemm                        2112 10.0    0.631    0.720    0.631    0.720
 fft_wrap_pw1pw2                    599 10.0    0.005    0.005    0.672    0.693
 dbcsr_destroy                   183237  8.1    0.315    0.330    0.622    0.666
 self_consistency_check              33  5.0    0.042    0.044    0.610    0.662
 dbcsr_iterator_stop             425747  8.9    0.517    0.533    0.623    0.645
 cp_fm_finish_copy_general        19156  7.9    0.574    0.593    0.609    0.639
 fft_wrap_pw1pw2_500                398 11.3    0.051    0.052    0.609    0.632
 cp_cfm_gemm                       1695  7.8    0.624    0.631    0.624    0.631
 cp_sm_mix                        29634  6.0    0.113    0.145    0.512    0.583
 fft3d_ps                           599 12.0    0.245    0.257    0.534    0.557
 potential_pw2rs                     33 10.0    0.002    0.002    0.521    0.545
 mp_waitall_1                    210431  8.4    0.280    0.500    0.280    0.500
 qs_vxc_create                       33  8.0    0.000    0.001    0.473    0.477
 xc_vxc_pw_create                    33  9.0    0.021    0.022    0.473    0.476
 mp_bcast_im                     102560  8.3    0.445    0.457    0.445    0.457
 mp_max_d                         29636  7.0    0.330    0.446    0.330    0.446
 quick_finalize                   70564  9.4    0.227    0.238    0.426    0.443
 transfer_pw2rs                     133 11.0    0.001    0.001    0.431    0.432
 gspace_mixing                       32  5.0    0.018    0.019    0.427    0.427
 mp_comm_free                    108583  8.9    0.352    0.400    0.352    0.400
 broyden_mixing                      32  6.0    0.342    0.353    0.353    0.357
 qs_energies_init_hamiltonians        1  3.0    0.000    0.000    0.349    0.349
 mp_sum_dm3                          33  8.0    0.228    0.336    0.228    0.336
 transfer_pw2rs_500                  34 11.9    0.173    0.185    0.313    0.319
 mp_send_dv                        1796  7.0    0.040    0.317    0.040    0.317
 dbcsr_copy_into_existing         17794  9.8    0.159    0.204    0.261    0.311
 xc_pw_derive                       198 11.0    0.001    0.001    0.292    0.307
 dbcsr_set                       152249  7.7    0.145    0.156    0.243    0.289
 mp_alltoall_z22v                   599 14.0    0.232    0.283    0.232    0.283
 cp_dbcsr_alloc_block_from_nbl     6486  5.1    0.134    0.214    0.175    0.275
 build_core_hamiltonian_matrix        1  4.0    0.003    0.004    0.175    0.264
 xc_rho_set_and_dset_create          33 10.0    0.011    0.012    0.253    0.260
 qs_env_update_s_mstruct              1  4.0    0.000    0.000    0.145    0.235
 calculate_rho_core                   1  5.0    0.001    0.002    0.109    0.225
 init_scf_run                         1  3.0    0.000    0.000    0.168    0.211
 scf_env_initial_rho_setup            1  4.0    0.000    0.000    0.168    0.211
 xc_pw_divergence                    33 10.0    0.000    0.000    0.193    0.205
 mp_isend_dv                      51280  8.3    0.167    0.178    0.167    0.178
 dbcsr_iterator_seek             425747  9.9    0.156    0.172    0.156    0.172
 dbcsr_reserve_blocks             23382  9.6    0.117    0.143    0.138    0.167
 yz_to_x                            269 12.8    0.017    0.019    0.128    0.165
 x_to_yz                            330 13.2    0.034    0.036    0.155    0.165
 dbcsr_sort_indices              147022 10.8    0.146    0.163    0.146    0.163
 dbcsr_make_index_exist          242505  9.1    0.141    0.163    0.141    0.163
 dbcsr_reserve_all_blocks         16896 10.0    0.027    0.032    0.127    0.140
 dbcsr_zero                      152249  8.7    0.098    0.134    0.098    0.134
 merge_index                      53076 11.3    0.102    0.125    0.102    0.125
 mp_sum_dv                          328  3.4    0.083    0.124    0.083    0.124
 transfer_rs2pw_170                  34  9.0    0.032    0.033    0.093    0.109
 dbcsr_switch_data_area           70564 10.4    0.071    0.075    0.100    0.105
 mp_irecv_iv                     205120  8.3    0.006    0.101    0.006    0.101
 xc_functional_eval                  33 11.0    0.000    0.000    0.091    0.097
 pbe_lda_eval                        33 12.0    0.091    0.097    0.091    0.097
 transfer_pw2rs_170                  33 12.0    0.043    0.046    0.086    0.092
 mixing_allocate                      1  3.0    0.005    0.005    0.062    0.091
 mp_isendrecv_dv                   1995 13.0    0.041    0.090    0.041    0.090
 scf_post_calculation_gpw             1  3.0    0.000    0.000    0.087    0.087
 write_available_results              1  4.0    0.000    0.000    0.087    0.087
 write_mo_free_results                1  5.0    0.001    0.001    0.087    0.087
 parser_read_line                  5226  4.1    0.002    0.002    0.079    0.081
 parser_read_line_low                23  6.2    0.006    0.030    0.077    0.079
 mp_recv_dv                        5388  7.0    0.005    0.079    0.005    0.079
 cp_fm_cleanup_copy_general       35440  7.0    0.052    0.054    0.075    0.078
 calculate_first_density_matrix       1  5.0    0.001    0.001    0.035    0.078
 calculate_atomic_block_dm            1  6.0    0.001    0.001    0.033    0.077
 broadcast_input_information         23  7.2    0.025    0.028    0.071    0.075
 build_core_ppnl                      1  5.0    0.042    0.075    0.042    0.075
 mp_isend_iv                     109192  8.3    0.009    0.067    0.009    0.067
 topology_control                     1  2.0    0.000    0.000    0.060    0.060
 dbcsr_make_dbcsr_index          147022 10.8    0.052    0.057    0.052    0.057
 build_overlap_matrix_low             1  5.0    0.010    0.013    0.038    0.056
 dbcsr_distribution_new           53078  8.6    0.046    0.056    0.046    0.056
 build_kinetic_matrix_low             1  5.0    0.009    0.012    0.036    0.055
 dbcsr_get_data_size_used        123640  9.8    0.050    0.054    0.050    0.054
 dbcsr_data_copy_aa2              53076 11.1    0.039    0.052    0.039    0.052
 create_qs_kind_set                   1  2.0    0.000    0.000    0.051    0.052
 read_qs_kind                         1  3.0    0.026    0.028    0.051    0.052
 qs_env_rebuild_rho                   1  5.0    0.000    0.000    0.031    0.052
 qs_rho_rebuild                       1  6.0    0.003    0.003    0.031    0.052
 cp_cfm_scale_and_add_fm           2260  6.8    0.051    0.052    0.051    0.052
 mp_irecv_im2                    102560  8.3    0.003    0.051    0.003    0.051
 calculate_ecore_overlap              1  4.0    0.000    0.000    0.023    0.051
 pw_scatter_p                       330 12.2    0.045    0.046    0.045    0.046
 restraint_control                    1  2.0    0.000    0.000    0.034    0.046
 mp_sum_i                             4  2.8    0.034    0.046    0.034    0.046
 qs_init_subsys                       1  2.0    0.001    0.002    0.045    0.045
 pw_poisson_solve                    33  8.0    0.000    0.000    0.044    0.044
 qs_env_setup                         1  3.0    0.000    0.000    0.042    0.042
 hirshfeld_integration                1  6.0    0.008    0.033    0.042    0.042
 qs_env_rebuild_pw_env                2  3.5    0.000    0.000    0.041    0.042
 pw_env_rebuild                       1  5.0    0.000    0.001    0.041    0.042
 read_cell_cif                        2  4.5    0.002    0.006    0.040    0.041
 mp_sum_iv                           24  5.3    0.019    0.041    0.019    0.041
 qs_scf_ensure_work_matrices          1  3.0    0.000    0.000    0.019    0.041
 coordinate_control                   1  3.0    0.001    0.002    0.038    0.039
 coordinate_control_READ_COORDI       1  4.0    0.000    0.000    0.037    0.038
 read_coordinate_cif                  1  5.0    0.002    0.003    0.037    0.038
 fft_wrap_pw1pw2_170                 67 10.5    0.003    0.003    0.035    0.037
 calculate_hirshfeld_normalizat       1  6.0    0.006    0.025    0.035    0.037
 mp_bcast_i_src                      92  8.2    0.031    0.035    0.031    0.035
 mp_isend_im2                     54596  8.3    0.004    0.032    0.004    0.032
 mp_irecv_dv                      51280  8.3    0.029    0.031    0.029    0.031
 pw_grid_setup                        4  6.0    0.000    0.000    0.028    0.028
 pw_integral_ab_c1d_c1d_gs           33  9.0    0.026    0.027    0.028    0.028
 pw_grid_setup_internal               4  7.0    0.001    0.001    0.028    0.028
 build_core_ppl                       1  5.0    0.014    0.028    0.014    0.028
 pw_gather_p                        269 11.8    0.023    0.023    0.023    0.023
 mp_bcast_am_src                     23  8.2    0.013    0.014    0.015    0.023
 transfer_pw2rs_60                   33 12.0    0.008    0.008    0.022    0.023
 cp_cfm_to_fm                       565  6.8    0.021    0.022    0.021    0.022
 mp_comm_size                     60355  9.0    0.015    0.019    0.015    0.019
 transfer_rs2pw_60                   34  9.0    0.005    0.005    0.017    0.019
 cp_cfm_column_scale                565  7.8    0.018    0.018    0.018    0.018
 pw_copy                            495 10.5    0.017    0.018    0.017    0.018
 mixing_init                          1  5.0    0.015    0.016    0.016    0.016
 cp_cfm_zscale                      565  7.8    0.016    0.016    0.016    0.016
 mp_sum_dm                           32  7.0    0.007    0.016    0.007    0.016
 pw_grid_sort                         4  8.0    0.010    0.011    0.015    0.016
 fft_wrap_pw1pw2_60                  67 10.5    0.001    0.001    0.014    0.015
 mp_comm_rank                     60355  9.0    0.014    0.015    0.014    0.015
 -------------------------------------------------------------------------------

 The number of warnings for this run is : 1
 
 -------------------------------------------------------------------------------
  **** **** ******  **  PROGRAM ENDED AT                 2025-08-05 21:27:51.540
 ***** ** ***  *** **   PROGRAM RAN ON                              i04r01c05s01
 **    ****   ******    PROGRAM RAN BY                                   di38fab
 ***** **    ** ** **   PROGRAM PROCESS ID                               2882313
  **** **  *******  **  PROGRAM STOPPED IN /hppfs/scratch/04/di38fab/09_GTH/Delt
                                           a_Set/Ca/aug-TZVP-MOLOPT-GTH-tier-1-S
                                           R/8x8x8
