Al                                      
   1.00000000000000     
     4.040210    0.000000    0.000000
     0.000000    4.040210    0.000000
     0.000000    0.000000    4.040210
   Al
     4
Direct
  0.000000  0.000000  0.000000
  0.000000  0.500000  0.500000
  0.500000  0.000000  0.500000
  0.500000  0.500000  0.000000
 
   36   36   36
 -.55316     -.53154E-01  1.3790      3.5388      6.0951      8.6363      10.759      12.173      12.775      12.660    
  12.060      11.207      10.294      9.4550      8.7593      8.2296      7.8645      7.6531      7.5843      7.6531    
  7.8645      8.2296      8.7593      9.4550      10.294      11.207      12.060      12.660      12.775      12.173    
  10.759      8.6363      6.0951      3.5388      1.3790     -.53154E-01 -.53154E-01 0.43878      1.8451      3.9587    
  6.4493      8.9122      10.955      12.299      12.849      12.704      12.093      11.240      10.333      9.5022    
  8.8143      8.2909      7.9302      7.7212      7.6531      7.7212      7.9302      8.2909      8.8143      9.5022    
  10.333      11.240      12.093      12.704      12.849      12.299      10.955      8.9122      6.4493      3.9587    
  1.8451     0.43878      1.3790      1.8451      3.1708      5.1445      7.4415      9.6778      11.493      12.640    
  13.048      12.824      12.185      11.336      10.450      9.6453      8.9822      8.4785      8.1314      7.9302    
  7.8645      7.9302      8.1314      8.4785      8.9822      9.6453      10.450      11.336      12.185      12.824    
  13.048      12.640      11.493      9.6778      7.4415      5.1445      3.1708      1.8451      3.5388      3.9587    
  5.1445      6.8865      8.8757      10.763      12.236      13.097      13.306      12.982      12.316      11.486    
  10.644      9.8886      9.2700      8.8014      8.4785      8.2909      8.2296      8.2909      8.4785      8.8014    
  9.2700      9.8886      10.644      11.486      12.316      12.982      13.306      13.097      12.236      10.763    
  8.8757      6.8865      5.1445      3.9587      6.0951      6.4493      7.4415      8.8757      10.473      11.933    
  13.003      13.542      13.546      13.135      12.466      11.685      10.917      10.239      9.6870      9.2700    
  8.9822      8.8143      8.7593      8.8143      8.9822      9.2700      9.6870      10.239      10.917      11.685    
  12.466      13.135      13.546      13.542      13.003      11.933      10.473      8.8757      7.4415      6.4493    
  8.6363      8.9122      9.6778      10.763      11.933      12.946      13.618      13.861      13.704      13.251    
  12.621      11.931      11.273      10.701      10.239      9.8886      9.6453      9.5022      9.4550      9.5022    
  9.6453      9.8886      10.239      10.701      11.273      11.931      12.621      13.251      13.704      13.861    
  13.618      12.946      11.933      10.763      9.6778      8.9122      10.759      10.955      11.493      12.236    
  13.003      13.618      13.959      13.989      13.751      13.318      12.781      12.226      11.712      11.273    
  10.917      10.644      10.450      10.333      10.294      10.333      10.450      10.644      10.917      11.273    
  11.712      12.226      12.781      13.318      13.751      13.989      13.959      13.618      13.003      12.236    
  11.493      10.955      12.173      12.299      12.640      13.097      13.542      13.861      13.989      13.921    
  13.686      13.342      12.953      12.570      12.226      11.931      11.685      11.486      11.336      11.240    
  11.207      11.240      11.336      11.486      11.685      11.931      12.226      12.570      12.953      13.342    
  13.686      13.921      13.989      13.861      13.542      13.097      12.640      12.299      12.775      12.849    
  13.048      13.306      13.546      13.704      13.751      13.686      13.538      13.345      13.143      12.953    
  12.781      12.621      12.466      12.316      12.185      12.093      12.060      12.093      12.185      12.316    
  12.466      12.621      12.781      12.953      13.143      13.345      13.538      13.686      13.751      13.704    
  13.546      13.306      13.048      12.849      12.660      12.704      12.824      12.982      13.135      13.251    
  13.318      13.342      13.345      13.343      13.345      13.342      13.318      13.251      13.135      12.982    
  12.824      12.704      12.660      12.704      12.824      12.982      13.135      13.251      13.318      13.342    
  13.345      13.343      13.345      13.342      13.318      13.251      13.135      12.982      12.824      12.704    
  12.060      12.093      12.185      12.316      12.466      12.621      12.781      12.953      13.143      13.345    
  13.538      13.686      13.751      13.704      13.546      13.306      13.048      12.849      12.775      12.849    
  13.048      13.306      13.546      13.704      13.751      13.686      13.538      13.345      13.143      12.953    
  12.781      12.621      12.466      12.316      12.185      12.093      11.207      11.240      11.336      11.486    
  11.685      11.931      12.226      12.570      12.953      13.342      13.686      13.921      13.989      13.861    
  13.542      13.097      12.640      12.299      12.173      12.299      12.640      13.097      13.542      13.861    
  13.989      13.921      13.686      13.342      12.953      12.570      12.226      11.931      11.685      11.486    
  11.336      11.240      10.294      10.333      10.450      10.644      10.917      11.273      11.712      12.226    
  12.781      13.318      13.751      13.989      13.959      13.618      13.003      12.236      11.493      10.955    
  10.759      10.955      11.493      12.236      13.003      13.618      13.959      13.989      13.751      13.318    
  12.781      12.226      11.712      11.273      10.917      10.644      10.450      10.333      9.4550      9.5022    
  9.6453      9.8886      10.239      10.701      11.273      11.931      12.621      13.251      13.704      13.861    
  13.618      12.946      11.933      10.763      9.6778      8.9122      8.6363      8.9122      9.6778      10.763    
  11.933      12.946      13.618      13.861      13.704      13.251      12.621      11.931      11.273      10.701    
  10.239      9.8886      9.6453      9.5022      8.7593      8.8143      8.9822      9.2700      9.6870      10.239    
  10.917      11.685      12.466      13.135      13.546      13.542      13.003      11.933      10.473      8.8757    
  7.4415      6.4493      6.0951      6.4493      7.4415      8.8757      10.473      11.933      13.003      13.542    
  13.546      13.135      12.466      11.685      10.917      10.239      9.6870      9.2700      8.9822      8.8143    
  8.2296      8.2909      8.4785      8.8014      9.2700      9.8886      10.644      11.486      12.316      12.982    
  13.306      13.097      12.236      10.763      8.8757      6.8865      5.1445      3.9587      3.5388      3.9587    
  5.1445      6.8865      8.8757      10.763      12.236      13.097      13.306      12.982      12.316      11.486    
  10.644      9.8886      9.2700      8.8014      8.4785      8.2909      7.8645      7.9302      8.1314      8.4785    
  8.9822      9.6453      10.450      11.336      12.185      12.824      13.048      12.640      11.493      9.6778    
  7.4415      5.1445      3.1708      1.8451      1.3790      1.8451      3.1708      5.1445      7.4415      9.6778    
  11.493      12.640      13.048      12.824      12.185      11.336      10.450      9.6453      8.9822      8.4785    
  8.1314      7.9302      7.6531      7.7212      7.9302      8.2909      8.8143      9.5022      10.333      11.240    
  12.093      12.704      12.849      12.299      10.955      8.9122      6.4493      3.9587      1.8451     0.43878    
 -.53154E-01 0.43878      1.8451      3.9587      6.4493      8.9122      10.955      12.299      12.849      12.704    
  12.093      11.240      10.333      9.5022      8.8143      8.2909      7.9302      7.7212      7.5843      7.6531    
  7.8645      8.2296      8.7593      9.4550      10.294      11.207      12.060      12.660      12.775      12.173    
  10.759      8.6363      6.0951      3.5388      1.3790     -.53154E-01 -.55316     -.53154E-01  1.3790      3.5388    
  6.0951      8.6363      10.759      12.173      12.775      12.660      12.060      11.207      10.294      9.4550    
  8.7593      8.2296      7.8645      7.6531      7.6531      7.7212      7.9302      8.2909      8.8143      9.5022    
  10.333      11.240      12.093      12.704      12.849      12.299      10.955      8.9122      6.4493      3.9587    
  1.8451     0.43878     -.53154E-01 0.43878      1.8451      3.9587      6.4493      8.9122      10.955      12.299    
  12.849      12.704      12.093      11.240      10.333      9.5022      8.8143      8.2909      7.9302      7.7212    
  7.8645      7.9302      8.1314      8.4785      8.9822      9.6453      10.450      11.336      12.185      12.824    
  13.048      12.640      11.493      9.6778      7.4415      5.1445      3.1708      1.8451      1.3790      1.8451    
  3.1708      5.1445      7.4415      9.6778      11.493      12.640      13.048      12.824      12.185      11.336    
  10.450      9.6453      8.9822      8.4785      8.1314      7.9302      8.2296      8.2909      8.4785      8.8014    
  9.2700      9.8886      10.644      11.486      12.316      12.982      13.306      13.097      12.236      10.763    
  8.8757      6.8865      5.1445      3.9587      3.5388      3.9587      5.1445      6.8865      8.8757      10.763    
  12.236      13.097      13.306      12.982      12.316      11.486      10.644      9.8886      9.2700      8.8014    
  8.4785      8.2909      8.7593      8.8143      8.9822      9.2700      9.6870      10.239      10.917      11.685    
  12.466      13.135      13.546      13.542      13.003      11.933      10.473      8.8757      7.4415      6.4493    
  6.0951      6.4493      7.4415      8.8757      10.473      11.933      13.003      13.542      13.546      13.135    
  12.466      11.685      10.917      10.239      9.6870      9.2700      8.9822      8.8143      9.4550      9.5022    
  9.6453      9.8886      10.239      10.701      11.273      11.931      12.621      13.251      13.704      13.861    
  13.618      12.946      11.933      10.763      9.6778      8.9122      8.6363      8.9122      9.6778      10.763    
  11.933      12.946      13.618      13.861      13.704      13.251      12.621      11.931      11.273      10.701    
  10.239      9.8886      9.6453      9.5022      10.294      10.333      10.450      10.644      10.917      11.273    
  11.712      12.226      12.781      13.318      13.751      13.989      13.959      13.618      13.003      12.236    
  11.493      10.955      10.759      10.955      11.493      12.236      13.003      13.618      13.959      13.989    
  13.751      13.318      12.781      12.226      11.712      11.273      10.917      10.644      10.450      10.333    
  11.207      11.240      11.336      11.486      11.685      11.931      12.226      12.570      12.953      13.342    
  13.686      13.921      13.989      13.861      13.542      13.097      12.640      12.299      12.173      12.299    
  12.640      13.097      13.542      13.861      13.989      13.921      13.686      13.342      12.953      12.570    
  12.226      11.931      11.685      11.486      11.336      11.240      12.060      12.093      12.185      12.316    
  12.466      12.621      12.781      12.953      13.143      13.345      13.538      13.686      13.751      13.704    
  13.546      13.306      13.048      12.849      12.775      12.849      13.048      13.306      13.546      13.704    
  13.751      13.686      13.538      13.345      13.143      12.953      12.781      12.621      12.466      12.316    
  12.185      12.093      12.660      12.704      12.824      12.982      13.135      13.251      13.318      13.342    
  13.345      13.343      13.345      13.342      13.318      13.251      13.135      12.982      12.824      12.704    
  12.660      12.704      12.824      12.982      13.135      13.251      13.318      13.342      13.345      13.343    
  13.345      13.342      13.318      13.251      13.135      12.982      12.824      12.704      12.775      12.849    
  13.048      13.306      13.546      13.704      13.751      13.686      13.538      13.345      13.143      12.953    
  12.781      12.621      12.466      12.316      12.185      12.093      12.060      12.093      12.185      12.316    
  12.466      12.621      12.781      12.953      13.143      13.345      13.538      13.686      13.751      13.704    
  13.546      13.306      13.048      12.849      12.173      12.299      12.640      13.097      13.542      13.861    
  13.989      13.921      13.686      13.342      12.953      12.570      12.226      11.931      11.685      11.486    
  11.336      11.240      11.207      11.240      11.336      11.486      11.685      11.931      12.226      12.570    
  12.953      13.342      13.686      13.921      13.989      13.861      13.542      13.097      12.640      12.299    
  10.759      10.955      11.493      12.236      13.003      13.618      13.959      13.989      13.751      13.318    
  12.781      12.226      11.712      11.273      10.917      10.644      10.450      10.333      10.294      10.333    
  10.450      10.644      10.917      11.273      11.712      12.226      12.781      13.318      13.751      13.989    
  13.959      13.618      13.003      12.236      11.493      10.955      8.6363      8.9122      9.6778      10.763    
  11.933      12.946      13.618      13.861      13.704      13.251      12.621      11.931      11.273      10.701    
  10.239      9.8886      9.6453      9.5022      9.4550      9.5022      9.6453      9.8886      10.239      10.701    
  11.273      11.931      12.621      13.251      13.704      13.861      13.618      12.946      11.933      10.763    
  9.6778      8.9122      6.0951      6.4493      7.4415      8.8757      10.473      11.933      13.003      13.542    
  13.546      13.135      12.466      11.685      10.917      10.239      9.6870      9.2700      8.9822      8.8143    
  8.7593      8.8143      8.9822      9.2700      9.6870      10.239      10.917      11.685      12.466      13.135    
  13.546      13.542      13.003      11.933      10.473      8.8757      7.4415      6.4493      3.5388      3.9587    
  5.1445      6.8865      8.8757      10.763      12.236      13.097      13.306      12.982      12.316      11.486    
  10.644      9.8886      9.2700      8.8014      8.4785      8.2909      8.2296      8.2909      8.4785      8.8014    
  9.2700      9.8886      10.644      11.486      12.316      12.982      13.306      13.097      12.236      10.763    
  8.8757      6.8865      5.1445      3.9587      1.3790      1.8451      3.1708      5.1445      7.4415      9.6778    
  11.493      12.640      13.048      12.824      12.185      11.336      10.450      9.6453      8.9822      8.4785    
  8.1314      7.9302      7.8645      7.9302      8.1314      8.4785      8.9822      9.6453      10.450      11.336    
  12.185      12.824      13.048      12.640      11.493      9.6778      7.4415      5.1445      3.1708      1.8451    
 -.53154E-01 0.43878      1.8451      3.9587      6.4493      8.9122      10.955      12.299      12.849      12.704    
  12.093      11.240      10.333      9.5022      8.8143      8.2909      7.9302      7.7212      7.6531      7.7212    
  7.9302      8.2909      8.8143      9.5022      10.333      11.240      12.093      12.704      12.849      12.299    
  10.955      8.9122      6.4493      3.9587      1.8451     0.43878     -.53154E-01 0.43878      1.8451      3.9587    
  6.4493      8.9122      10.955      12.299      12.849      12.704      12.093      11.240      10.333      9.5022    
  8.8143      8.2909      7.9302      7.7212      7.6531      7.7212      7.9302      8.2909      8.8143      9.5022    
  10.333      11.240      12.093      12.704      12.849      12.299      10.955      8.9122      6.4493      3.9587    
  1.8451     0.43878     0.43878     0.92217      2.3016      4.3680      6.7928      9.1782      11.143      12.419    
  12.919      12.746      12.124      11.272      10.371      9.5486      8.8687      8.3516      7.9951      7.7886    
  7.7212      7.7886      7.9951      8.3516      8.8687      9.5486      10.371      11.272      12.124      12.746    
  12.919      12.419      11.143      9.1782      6.7928      4.3680      2.3016     0.92217      1.8451      2.3016    
  3.5979      5.5226      7.7540      9.9157      11.657      12.742      13.105      12.858      12.210      11.363    
  10.485      9.6891      9.0341      8.5369      8.1941      7.9951      7.9302      7.9951      8.1941      8.5369    
  9.0341      9.6891      10.485      11.363      12.210      12.858      13.105      12.742      11.657      9.9157    
  7.7540      5.5226      3.5979      2.3016      3.9587      4.3680      5.5226      7.2149      9.1407      10.959    
  12.366      13.173      13.346      13.004      12.333      11.508      10.673      9.9278      9.3176      8.8555    
  8.5369      8.3516      8.2909      8.3516      8.5369      8.8555      9.3176      9.9278      10.673      11.508    
  12.333      13.004      13.346      13.173      12.366      10.959      9.1407      7.2149      5.5226      4.3680    
  6.4493      6.7928      7.7540      9.1407      10.680      12.079      13.094      13.589      13.567      13.144    
  12.474      11.699      10.940      10.271      9.7281      9.3176      9.0341      8.8687      8.8143      8.8687    
  9.0341      9.3176      9.7281      10.271      10.940      11.699      12.474      13.144      13.567      13.589    
  13.094      12.079      10.680      9.1407      7.7540      6.7928      8.9122      9.1782      9.9157      10.959    
  12.079      13.043      13.671      13.883      13.708      13.248      12.619      11.936      11.287      10.725    
  10.271      9.9278      9.6891      9.5486      9.5022      9.5486      9.6891      9.9278      10.271      10.725    
  11.287      11.936      12.619      13.248      13.708      13.883      13.671      13.043      12.079      10.959    
  9.9157      9.1782      10.955      11.143      11.657      12.366      13.094      13.671      13.981      13.991    
  13.741      13.305      12.771      12.223      11.718      11.287      10.940      10.673      10.485      10.371    
  10.333      10.371      10.485      10.673      10.940      11.287      11.718      12.223      12.771      13.305    
  13.741      13.991      13.981      13.671      13.094      12.366      11.657      11.143      12.299      12.419    
  12.742      13.173      13.589      13.883      13.991      13.909      13.668      13.323      12.936      12.560    
  12.223      11.936      11.699      11.508      11.363      11.272      11.240      11.272      11.363      11.508    
  11.699      11.936      12.223      12.560      12.936      13.323      13.668      13.909      13.991      13.883    
  13.589      13.173      12.742      12.419      12.849      12.919      13.105      13.346      13.567      13.708    
  13.741      13.668      13.515      13.321      13.121      12.936      12.771      12.619      12.474      12.333    
  12.210      12.124      12.093      12.124      12.210      12.333      12.474      12.619      12.771      12.936    
  13.121      13.321      13.515      13.668      13.741      13.708      13.567      13.346      13.105      12.919    
  12.704      12.746      12.858      13.004      13.144      13.248      13.305      13.323      13.321      13.318    
  13.321      13.323      13.305      13.248      13.144      13.004      12.858      12.746      12.704      12.746    
  12.858      13.004      13.144      13.248      13.305      13.323      13.321      13.318      13.321      13.323    
  13.305      13.248      13.144      13.004      12.858      12.746      12.093      12.124      12.210      12.333    
  12.474      12.619      12.771      12.936      13.121      13.321      13.515      13.668      13.741      13.708    
  13.567      13.346      13.105      12.919      12.849      12.919      13.105      13.346      13.567      13.708    
  13.741      13.668      13.515      13.321      13.121      12.936      12.771      12.619      12.474      12.333    
  12.210      12.124      11.240      11.272      11.363      11.508      11.699      11.936      12.223      12.560    
  12.936      13.323      13.668      13.909      13.991      13.883      13.589      13.173      12.742      12.419    
  12.299      12.419      12.742      13.173      13.589      13.883      13.991      13.909      13.668      13.323    
  12.936      12.560      12.223      11.936      11.699      11.508      11.363      11.272      10.333      10.371    
  10.485      10.673      10.940      11.287      11.718      12.223      12.771      13.305      13.741      13.991    
  13.981      13.671      13.094      12.366      11.657      11.143      10.955      11.143      11.657      12.366    
  13.094      13.671      13.981      13.991      13.741      13.305      12.771      12.223      11.718      11.287    
  10.940      10.673      10.485      10.371      9.5022      9.5486      9.6891      9.9278      10.271      10.725    
  11.287      11.936      12.619      13.248      13.708      13.883      13.671      13.043      12.079      10.959    
  9.9157      9.1782      8.9122      9.1782      9.9157      10.959      12.079      13.043      13.671      13.883    
  13.708      13.248      12.619      11.936      11.287      10.725      10.271      9.9278      9.6891      9.5486    
  8.8143      8.8687      9.0341      9.3176      9.7281      10.271      10.940      11.699      12.474      13.144    
  13.567      13.589      13.094      12.079      10.680      9.1407      7.7540      6.7928      6.4493      6.7928    
  7.7540      9.1407      10.680      12.079      13.094      13.589      13.567      13.144      12.474      11.699    
  10.940      10.271      9.7281      9.3176      9.0341      8.8687      8.2909      8.3516      8.5369      8.8555    
  9.3176      9.9278      10.673      11.508      12.333      13.004      13.346      13.173      12.366      10.959    
  9.1407      7.2149      5.5226      4.3680      3.9587      4.3680      5.5226      7.2149      9.1407      10.959    
  12.366      13.173      13.346      13.004      12.333      11.508      10.673      9.9278      9.3176      8.8555    
  8.5369      8.3516      7.9302      7.9951      8.1941      8.5369      9.0341      9.6891      10.485      11.363    
  12.210      12.858      13.105      12.742      11.657      9.9157      7.7540      5.5226      3.5979      2.3016    
  1.8451      2.3016      3.5979      5.5226      7.7540      9.9157      11.657      12.742      13.105      12.858    
  12.210      11.363      10.485      9.6891      9.0341      8.5369      8.1941      7.9951      7.7212      7.7886    
  7.9951      8.3516      8.8687      9.5486      10.371      11.272      12.124      12.746      12.919      12.419    
  11.143      9.1782      6.7928      4.3680      2.3016     0.92217     0.43878     0.92217      2.3016      4.3680    
  6.7928      9.1782      11.143      12.419      12.919      12.746      12.124      11.272      10.371      9.5486    
  8.8687      8.3516      7.9951      7.7886      7.6531      7.7212      7.9302      8.2909      8.8143      9.5022    
  10.333      11.240      12.093      12.704      12.849      12.299      10.955      8.9122      6.4493      3.9587    
  1.8451     0.43878     -.53154E-01 0.43878      1.8451      3.9587      6.4493      8.9122      10.955      12.299    
  12.849      12.704      12.093      11.240      10.333      9.5022      8.8143      8.2909      7.9302      7.7212    
  7.7212      7.7886      7.9951      8.3516      8.8687      9.5486      10.371      11.272      12.124      12.746    
  12.919      12.419      11.143      9.1782      6.7928      4.3680      2.3016     0.92217     0.43878     0.92217    
  2.3016      4.3680      6.7928      9.1782      11.143      12.419      12.919      12.746      12.124      11.272    
  10.371      9.5486      8.8687      8.3516      7.9951      7.7886      7.9302      7.9951      8.1941      8.5369    
  9.0341      9.6891      10.485      11.363      12.210      12.858      13.105      12.742      11.657      9.9157    
  7.7540      5.5226      3.5979      2.3016      1.8451      2.3016      3.5979      5.5226      7.7540      9.9157    
  11.657      12.742      13.105      12.858      12.210      11.363      10.485      9.6891      9.0341      8.5369    
  8.1941      7.9951      8.2909      8.3516      8.5369      8.8555      9.3176      9.9278      10.673      11.508    
  12.333      13.004      13.346      13.173      12.366      10.959      9.1407      7.2149      5.5226      4.3680    
  3.9587      4.3680      5.5226      7.2149      9.1407      10.959      12.366      13.173      13.346      13.004    
  12.333      11.508      10.673      9.9278      9.3176      8.8555      8.5369      8.3516      8.8143      8.8687    
  9.0341      9.3176      9.7281      10.271      10.940      11.699      12.474      13.144      13.567      13.589    
  13.094      12.079      10.680      9.1407      7.7540      6.7928      6.4493      6.7928      7.7540      9.1407    
  10.680      12.079      13.094      13.589      13.567      13.144      12.474      11.699      10.940      10.271    
  9.7281      9.3176      9.0341      8.8687      9.5022      9.5486      9.6891      9.9278      10.271      10.725    
  11.287      11.936      12.619      13.248      13.708      13.883      13.671      13.043      12.079      10.959    
  9.9157      9.1782      8.9122      9.1782      9.9157      10.959      12.079      13.043      13.671      13.883    
  13.708      13.248      12.619      11.936      11.287      10.725      10.271      9.9278      9.6891      9.5486    
  10.333      10.371      10.485      10.673      10.940      11.287      11.718      12.223      12.771      13.305    
  13.741      13.991      13.981      13.671      13.094      12.366      11.657      11.143      10.955      11.143    
  11.657      12.366      13.094      13.671      13.981      13.991      13.741      13.305      12.771      12.223    
  11.718      11.287      10.940      10.673      10.485      10.371      11.240      11.272      11.363      11.508    
  11.699      11.936      12.223      12.560      12.936      13.323      13.668      13.909      13.991      13.883    
  13.589      13.173      12.742      12.419      12.299      12.419      12.742      13.173      13.589      13.883    
  13.991      13.909      13.668      13.323      12.936      12.560      12.223      11.936      11.699      11.508    
  11.363      11.272      12.093      12.124      12.210      12.333      12.474      12.619      12.771      12.936    
  13.121      13.321      13.515      13.668      13.741      13.708      13.567      13.346      13.105      12.919    
  12.849      12.919      13.105      13.346      13.567      13.708      13.741      13.668      13.515      13.321    
  13.121      12.936      12.771      12.619      12.474      12.333      12.210      12.124      12.704      12.746    
  12.858      13.004      13.144      13.248      13.305      13.323      13.321      13.318      13.321      13.323    
  13.305      13.248      13.144      13.004      12.858      12.746      12.704      12.746      12.858      13.004    
  13.144      13.248      13.305      13.323      13.321      13.318      13.321      13.323      13.305      13.248    
  13.144      13.004      12.858      12.746      12.849      12.919      13.105      13.346      13.567      13.708    
  13.741      13.668      13.515      13.321      13.121      12.936      12.771      12.619      12.474      12.333    
  12.210      12.124      12.093      12.124      12.210      12.333      12.474      12.619      12.771      12.936    
  13.121      13.321      13.515      13.668      13.741      13.708      13.567      13.346      13.105      12.919    
  12.299      12.419      12.742      13.173      13.589      13.883      13.991      13.909      13.668      13.323    
  12.936      12.560      12.223      11.936      11.699      11.508      11.363      11.272      11.240      11.272    
  11.363      11.508      11.699      11.936      12.223      12.560      12.936      13.323      13.668      13.909    
  13.991      13.883      13.589      13.173      12.742      12.419      10.955      11.143      11.657      12.366    
  13.094      13.671      13.981      13.991      13.741      13.305      12.771      12.223      11.718      11.287    
  10.940      10.673      10.485      10.371      10.333      10.371      10.485      10.673      10.940      11.287    
  11.718      12.223      12.771      13.305      13.741      13.991      13.981      13.671      13.094      12.366    
  11.657      11.143      8.9122      9.1782      9.9157      10.959      12.079      13.043      13.671      13.883    
  13.708      13.248      12.619      11.936      11.287      10.725      10.271      9.9278      9.6891      9.5486    
  9.5022      9.5486      9.6891      9.9278      10.271      10.725      11.287      11.936      12.619      13.248    
  13.708      13.883      13.671      13.043      12.079      10.959      9.9157      9.1782      6.4493      6.7928    