Al                                      
   1.00000000000000     
     4.040210    0.000000    0.000000
     0.000000    4.040210    0.000000
     0.000000    0.000000    4.040210
   Al
     4
Direct
  0.000000  0.000000  0.000000
  0.000000  0.500000  0.500000
  0.500000  0.000000  0.500000
  0.500000  0.500000  0.000000
 
   36   36   36
 -.55316259419E+00 -.53154012205E-01 0.13790451910E+01 0.35388373344E+01 0.60950543457E+01
 0.86363076436E+01 0.10759381451E+02 0.12173291704E+02 0.12774740272E+02 0.12659688962E+02
 0.12059591123E+02 0.11207091062E+02 0.10294038658E+02 0.94549943750E+01 0.87592759931E+01
 0.82295606769E+01 0.78644523566E+01 0.76531394460E+01 0.75843066914E+01 0.76531394460E+01
 0.78644523566E+01 0.82295606769E+01 0.87592759931E+01 0.94549943750E+01 0.10294038658E+02
 0.11207091062E+02 0.12059591123E+02 0.12659688962E+02 0.12774740272E+02 0.12173291704E+02
 0.10759381451E+02 0.86363076436E+01 0.60950543457E+01 0.35388373344E+01 0.13790451910E+01
 -.53154012205E-01 -.53154012205E-01 0.43878275464E+00 0.18451408080E+01 0.39587196388E+01
 0.64492679594E+01 0.89122002614E+01 0.10955386599E+02 0.12299363812E+02 0.12849269833E+02
 0.12704375827E+02 0.12092835594E+02 0.11240073290E+02 0.10333074336E+02 0.95022296414E+01
 0.88143400477E+01 0.82909256822E+01 0.79301550883E+01 0.77212340674E+01 0.76531394460E+01
 0.77212340674E+01 0.79301550883E+01 0.82909256822E+01 0.88143400477E+01 0.95022296414E+01
 0.10333074336E+02 0.11240073290E+02 0.12092835594E+02 0.12704375827E+02 0.12849269833E+02
 0.12299363812E+02 0.10955386599E+02 0.89122002614E+01 0.64492679594E+01 0.39587196388E+01
 0.18451408080E+01 0.43878275464E+00 0.13790451910E+01 0.18451408080E+01 0.31707635506E+01
 0.51444795493E+01 0.74414737267E+01 0.96778283806E+01 0.11493084406E+02 0.12640266741E+02
 0.13047981038E+02 0.12823948798E+02 0.12184742309E+02 0.11335673216E+02 0.10449722176E+02
 0.96453304978E+01 0.89821703802E+01 0.84785350050E+01 0.81314351767E+01 0.79301550883E+01
 0.78644523566E+01 0.79301550883E+01 0.81314351767E+01 0.84785350050E+01 0.89821703802E+01
 0.96453304978E+01 0.10449722176E+02 0.11335673216E+02 0.12184742309E+02 0.12823948798E+02
 0.13047981038E+02 0.12640266741E+02 0.11493084406E+02 0.96778283806E+01 0.74414737267E+01
 0.51444795493E+01 0.31707635506E+01 0.18451408080E+01 0.35388373344E+01 0.39587196388E+01
 0.51444795493E+01 0.68865014278E+01 0.88756821336E+01 0.10763027425E+02 0.12236399521E+02
 0.13096846974E+02 0.13306327599E+02 0.12981910979E+02 0.12315991036E+02 0.11486255126E+02
 0.10643707234E+02 0.98886127328E+01 0.92699849467E+01 0.88014349969E+01 0.84785350050E+01
 0.82909256822E+01 0.82295606769E+01 0.82909256822E+01 0.84785350050E+01 0.88014349969E+01
 0.92699849467E+01 0.98886127328E+01 0.10643707234E+02 0.11486255126E+02 0.12315991036E+02
 0.12981910979E+02 0.13306327599E+02 0.13096846974E+02 0.12236399521E+02 0.10763027425E+02
 0.88756821336E+01 0.68865014278E+01 0.51444795493E+01 0.39587196388E+01 0.60950543457E+01
 0.64492679594E+01 0.74414737267E+01 0.88756821336E+01 0.10472908826E+02 0.11932809952E+02
 0.13003286424E+02 0.13541696691E+02 0.13545854171E+02 0.13135347020E+02 0.12465683605E+02
 0.11685203283E+02 0.10916832553E+02 0.10238687291E+02 0.96869900673E+01 0.92699849467E+01
 0.89821703802E+01 0.88143400477E+01 0.87592759931E+01 0.88143400477E+01 0.89821703802E+01
 0.92699849467E+01 0.96869900673E+01 0.10238687291E+02 0.10916832553E+02 0.11685203283E+02
 0.12465683605E+02 0.13135347020E+02 0.13545854171E+02 0.13541696691E+02 0.13003286424E+02
 0.11932809952E+02 0.10472908826E+02 0.88756821336E+01 0.74414737267E+01 0.64492679594E+01
 0.86363076436E+01 0.89122002614E+01 0.96778283806E+01 0.10763027425E+02 0.11932809952E+02
 0.12946452312E+02 0.13617875777E+02 0.13861028041E+02 0.13704099536E+02 0.13251404625E+02
 0.12621015124E+02 0.11930903685E+02 0.11272741987E+02 0.10701071854E+02 0.10238687291E+02
 0.98886127328E+01 0.96453304978E+01 0.95022296414E+01 0.94549943750E+01 0.95022296414E+01
 0.96453304978E+01 0.98886127328E+01 0.10238687291E+02 0.10701071854E+02 0.11272741987E+02
 0.11930903685E+02 0.12621015124E+02 0.13251404625E+02 0.13704099536E+02 0.13861028041E+02
 0.13617875777E+02 0.12946452312E+02 0.11932809952E+02 0.10763027425E+02 0.96778283806E+01
 0.89122002614E+01 0.10759381451E+02 0.10955386599E+02 0.11493084406E+02 0.12236399521E+02
 0.13003286424E+02 0.13617875777E+02 0.13958943373E+02 0.13989316470E+02 0.13750813438E+02
 0.13317775118E+02 0.12781105663E+02 0.12225885747E+02 0.11712486365E+02 0.11272741987E+02
 0.10916832553E+02 0.10643707234E+02 0.10449722176E+02 0.10333074336E+02 0.10294038658E+02
 0.10333074336E+02 0.10449722176E+02 0.10643707234E+02 0.10916832553E+02 0.11272741987E+02
 0.11712486365E+02 0.12225885747E+02 0.12781105663E+02 0.13317775118E+02 0.13750813438E+02
 0.13989316470E+02 0.13958943373E+02 0.13617875777E+02 0.13003286424E+02 0.12236399521E+02
 0.11493084406E+02 0.10955386599E+02 0.12173291704E+02 0.12299363812E+02 0.12640266741E+02
 0.13096846974E+02 0.13541696691E+02 0.13861028041E+02 0.13989316470E+02 0.13920795452E+02
 0.13686382103E+02 0.13342490573E+02 0.12953070860E+02 0.12570435787E+02 0.12225885747E+02
 0.11930903685E+02 0.11685203283E+02 0.11486255126E+02 0.11335673216E+02 0.11240073290E+02
 0.11207091062E+02 0.11240073290E+02 0.11335673216E+02 0.11486255126E+02 0.11685203283E+02
 0.11930903685E+02 0.12225885747E+02 0.12570435787E+02 0.12953070860E+02 0.13342490573E+02
 0.13686382103E+02 0.13920795452E+02 0.13989316470E+02 0.13861028041E+02 0.13541696691E+02
 0.13096846974E+02 0.12640266741E+02 0.12299363812E+02 0.12774740272E+02 0.12849269833E+02
 0.13047981038E+02 0.13306327599E+02 0.13545854171E+02 0.13704099536E+02 0.13750813438E+02
 0.13686382103E+02 0.13537977507E+02 0.13344888457E+02 0.13142734956E+02 0.12953070860E+02
 0.12781105663E+02 0.12621015124E+02 0.12465683605E+02 0.12315991036E+02 0.12184742309E+02
 0.12092835594E+02 0.12059591123E+02 0.12092835594E+02 0.12184742309E+02 0.12315991036E+02
 0.12465683605E+02 0.12621015124E+02 0.12781105663E+02 0.12953070860E+02 0.13142734956E+02
 0.13344888457E+02 0.13537977507E+02 0.13686382103E+02 0.13750813438E+02 0.13704099536E+02
 0.13545854171E+02 0.13306327599E+02 0.13047981038E+02 0.12849269833E+02 0.12659688962E+02
 0.12704375827E+02 0.12823948798E+02 0.12981910979E+02 0.13135347020E+02 0.13251404625E+02
 0.13317775118E+02 0.13342490573E+02 0.13344888457E+02 0.13343246411E+02 0.13344888457E+02
 0.13342490573E+02 0.13317775118E+02 0.13251404625E+02 0.13135347020E+02 0.12981910979E+02
 0.12823948798E+02 0.12704375827E+02 0.12659688962E+02 0.12704375827E+02 0.12823948798E+02
 0.12981910979E+02 0.13135347020E+02 0.13251404625E+02 0.13317775118E+02 0.13342490573E+02
 0.13344888457E+02 0.13343246411E+02 0.13344888457E+02 0.13342490573E+02 0.13317775118E+02
 0.13251404625E+02 0.13135347020E+02 0.12981910979E+02 0.12823948798E+02 0.12704375827E+02
 0.12059591123E+02 0.12092835594E+02 0.12184742309E+02 0.12315991036E+02 0.12465683605E+02
 0.12621015124E+02 0.12781105663E+02 0.12953070860E+02 0.13142734956E+02 0.13344888457E+02
 0.13537977507E+02 0.13686382103E+02 0.13750813438E+02 0.13704099536E+02 0.13545854171E+02
 0.13306327599E+02 0.13047981038E+02 0.12849269833E+02 0.12774740272E+02 0.12849269833E+02
 0.13047981038E+02 0.13306327599E+02 0.13545854171E+02 0.13704099536E+02 0.13750813438E+02
 0.13686382103E+02 0.13537977507E+02 0.13344888457E+02 0.13142734956E+02 0.12953070860E+02
 0.12781105663E+02 0.12621015124E+02 0.12465683605E+02 0.12315991036E+02 0.12184742309E+02
 0.12092835594E+02 0.11207091062E+02 0.11240073290E+02 0.11335673216E+02 0.11486255126E+02
 0.11685203283E+02 0.11930903685E+02 0.12225885747E+02 0.12570435787E+02 0.12953070860E+02
 0.13342490573E+02 0.13686382103E+02 0.13920795452E+02 0.13989316470E+02 0.13861028041E+02
 0.13541696691E+02 0.13096846974E+02 0.12640266741E+02 0.12299363812E+02 0.12173291704E+02
 0.12299363812E+02 0.12640266741E+02 0.13096846974E+02 0.13541696691E+02 0.13861028041E+02
 0.13989316470E+02 0.13920795452E+02 0.13686382103E+02 0.13342490573E+02 0.12953070860E+02
 0.12570435787E+02 0.12225885747E+02 0.11930903685E+02 0.11685203283E+02 0.11486255126E+02
 0.11335673216E+02 0.11240073290E+02 0.10294038658E+02 0.10333074336E+02 0.10449722176E+02
 0.10643707234E+02 0.10916832553E+02 0.11272741987E+02 0.11712486365E+02 0.12225885747E+02
 0.12781105663E+02 0.13317775118E+02 0.13750813438E+02 0.13989316470E+02 0.13958943373E+02
 0.13617875777E+02 0.13003286424E+02 0.12236399521E+02 0.11493084406E+02 0.10955386599E+02
 0.10759381451E+02 0.10955386599E+02 0.11493084406E+02 0.12236399521E+02 0.13003286424E+02
 0.13617875777E+02 0.13958943373E+02 0.13989316470E+02 0.13750813438E+02 0.13317775118E+02
 0.12781105663E+02 0.12225885747E+02 0.11712486365E+02 0.11272741987E+02 0.10916832553E+02
 0.10643707234E+02 0.10449722176E+02 0.10333074336E+02 0.94549943750E+01 0.95022296414E+01
 0.96453304978E+01 0.98886127328E+01 0.10238687291E+02 0.10701071854E+02 0.11272741987E+02
 0.11930903685E+02 0.12621015124E+02 0.13251404625E+02 0.13704099536E+02 0.13861028041E+02
 0.13617875777E+02 0.12946452312E+02 0.11932809952E+02 0.10763027425E+02 0.96778283806E+01
 0.89122002614E+01 0.86363076436E+01 0.89122002614E+01 0.96778283806E+01 0.10763027425E+02
 0.11932809952E+02 0.12946452312E+02 0.13617875777E+02 0.13861028041E+02 0.13704099536E+02
 0.13251404625E+02 0.12621015124E+02 0.11930903685E+02 0.11272741987E+02 0.10701071854E+02
 0.10238687291E+02 0.98886127328E+01 0.96453304978E+01 0.95022296414E+01 0.87592759931E+01
 0.88143400477E+01 0.89821703802E+01 0.92699849467E+01 0.96869900673E+01 0.10238687291E+02
 0.10916832553E+02 0.11685203283E+02 0.12465683605E+02 0.13135347020E+02 0.13545854171E+02
 0.13541696691E+02 0.13003286424E+02 0.11932809952E+02 0.10472908826E+02 0.88756821336E+01
 0.74414737267E+01 0.64492679594E+01 0.60950543457E+01 0.64492679594E+01 0.74414737267E+01
 0.88756821336E+01 0.10472908826E+02 0.11932809952E+02 0.13003286424E+02 0.13541696691E+02
 0.13545854171E+02 0.13135347020E+02 0.12465683605E+02 0.11685203283E+02 0.10916832553E+02
 0.10238687291E+02 0.96869900673E+01 0.92699849467E+01 0.89821703802E+01 0.88143400477E+01
 0.82295606769E+01 0.82909256822E+01 0.84785350050E+01 0.88014349969E+01 0.92699849467E+01
 0.98886127328E+01 0.10643707234E+02 0.11486255126E+02 0.12315991036E+02 0.12981910979E+02
 0.13306327599E+02 0.13096846974E+02 0.12236399521E+02 0.10763027425E+02 0.88756821336E+01
 0.68865014278E+01 0.51444795493E+01 0.39587196388E+01 0.35388373344E+01 0.39587196388E+01
 0.51444795493E+01 0.68865014278E+01 0.88756821336E+01 0.10763027425E+02 0.12236399521E+02
 0.13096846974E+02 0.13306327599E+02 0.12981910979E+02 0.12315991036E+02 0.11486255126E+02
 0.10643707234E+02 0.98886127328E+01 0.92699849467E+01 0.88014349969E+01 0.84785350050E+01
 0.82909256822E+01 0.78644523566E+01 0.79301550883E+01 0.81314351767E+01 0.84785350050E+01
 0.89821703802E+01 0.96453304978E+01 0.10449722176E+02 0.11335673216E+02 0.12184742309E+02
 0.12823948798E+02 0.13047981038E+02 0.12640266741E+02 0.11493084406E+02 0.96778283806E+01
 0.74414737267E+01 0.51444795493E+01 0.31707635506E+01 0.18451408080E+01 0.13790451910E+01
 0.18451408080E+01 0.31707635506E+01 0.51444795493E+01 0.74414737267E+01 0.96778283806E+01
 0.11493084406E+02 0.12640266741E+02 0.13047981038E+02 0.12823948798E+02 0.12184742309E+02
 0.11335673216E+02 0.10449722176E+02 0.96453304978E+01 0.89821703802E+01 0.84785350050E+01
 0.81314351767E+01 0.79301550883E+01 0.76531394460E+01 0.77212340674E+01 0.79301550883E+01
 0.82909256822E+01 0.88143400477E+01 0.95022296414E+01 0.10333074336E+02 0.11240073290E+02
 0.12092835594E+02 0.12704375827E+02 0.12849269833E+02 0.12299363812E+02 0.10955386599E+02
 0.89122002614E+01 0.64492679594E+01 0.39587196388E+01 0.18451408080E+01 0.43878275464E+00
 -.53154012205E-01 0.43878275464E+00 0.18451408080E+01 0.39587196388E+01 0.64492679594E+01
 0.89122002614E+01 0.10955386599E+02 0.12299363812E+02 0.12849269833E+02 0.12704375827E+02
 0.12092835594E+02 0.11240073290E+02 0.10333074336E+02 0.95022296414E+01 0.88143400477E+01
 0.82909256822E+01 0.79301550883E+01 0.77212340674E+01 0.75843066914E+01 0.76531394460E+01
 0.78644523566E+01 0.82295606769E+01 0.87592759931E+01 0.94549943750E+01 0.10294038658E+02
 0.11207091062E+02 0.12059591123E+02 0.12659688962E+02 0.12774740272E+02 0.12173291704E+02
 0.10759381451E+02 0.86363076436E+01 0.60950543457E+01 0.35388373344E+01 0.13790451910E+01
 -.53154012205E-01 -.55316259419E+00 -.53154012205E-01 0.13790451910E+01 0.35388373344E+01
 0.60950543457E+01 0.86363076436E+01 0.10759381451E+02 0.12173291704E+02 0.12774740272E+02
 0.12659688962E+02 0.12059591123E+02 0.11207091062E+02 0.10294038658E+02 0.94549943750E+01
 0.87592759931E+01 0.82295606769E+01 0.78644523566E+01 0.76531394460E+01 0.76531394460E+01
 0.77212340674E+01 0.79301550883E+01 0.82909256822E+01 0.88143400477E+01 0.95022296414E+01
 0.10333074336E+02 0.11240073290E+02 0.12092835594E+02 0.12704375827E+02 0.12849269833E+02
 0.12299363812E+02 0.10955386599E+02 0.89122002614E+01 0.64492679594E+01 0.39587196388E+01
 0.18451408080E+01 0.43878275464E+00 -.53154012205E-01 0.43878275464E+00 0.18451408080E+01
 0.39587196388E+01 0.64492679594E+01 0.89122002614E+01 0.10955386599E+02 0.12299363812E+02
 0.12849269833E+02 0.12704375827E+02 0.12092835594E+02 0.11240073290E+02 0.10333074336E+02
 0.95022296414E+01 0.88143400477E+01 0.82909256822E+01 0.79301550883E+01 0.77212340674E+01
 0.78644523566E+01 0.79301550883E+01 0.81314351767E+01 0.84785350050E+01 0.89821703802E+01
 0.96453304978E+01 0.10449722176E+02 0.11335673216E+02 0.12184742309E+02 0.12823948798E+02
 0.13047981038E+02 0.12640266741E+02 0.11493084406E+02 0.96778283806E+01 0.74414737267E+01
 0.51444795493E+01 0.31707635506E+01 0.18451408080E+01 0.13790451910E+01 0.18451408080E+01
 0.31707635506E+01 0.51444795493E+01 0.74414737267E+01 0.96778283806E+01 0.11493084406E+02
 0.12640266741E+02 0.13047981038E+02 0.12823948798E+02 0.12184742309E+02 0.11335673216E+02
 0.10449722176E+02 0.96453304978E+01 0.89821703802E+01 0.84785350050E+01 0.81314351767E+01
 0.79301550883E+01 0.82295606769E+01 0.82909256822E+01 0.84785350050E+01 0.88014349969E+01
 0.92699849467E+01 0.98886127328E+01 0.10643707234E+02 0.11486255126E+02 0.12315991036E+02
 0.12981910979E+02 0.13306327599E+02 0.13096846974E+02 0.12236399521E+02 0.10763027425E+02
 0.88756821336E+01 0.68865014278E+01 0.51444795493E+01 0.39587196388E+01 0.35388373344E+01
 0.39587196388E+01 0.51444795493E+01 0.68865014278E+01 0.88756821336E+01 0.10763027425E+02
 0.12236399521E+02 0.13096846974E+02 0.13306327599E+02 0.12981910979E+02 0.12315991036E+02
 0.11486255126E+02 0.10643707234E+02 0.98886127328E+01 0.92699849467E+01 0.88014349969E+01
 0.84785350050E+01 0.82909256822E+01 0.87592759931E+01 0.88143400477E+01 0.89821703802E+01
 0.92699849467E+01 0.96869900673E+01 0.10238687291E+02 0.10916832553E+02 0.11685203283E+02
 0.12465683605E+02 0.13135347020E+02 0.13545854171E+02 0.13541696691E+02 0.13003286424E+02
 0.11932809952E+02 0.10472908826E+02 0.88756821336E+01 0.74414737267E+01 0.64492679594E+01
 0.60950543457E+01 0.64492679594E+01 0.74414737267E+01 0.88756821336E+01 0.10472908826E+02
 0.11932809952E+02 0.13003286424E+02 0.13541696691E+02 0.13545854171E+02 0.13135347020E+02
 0.12465683605E+02 0.11685203283E+02 0.10916832553E+02 0.10238687291E+02 0.96869900673E+01
 0.92699849467E+01 0.89821703802E+01 0.88143400477E+01 0.94549943750E+01 0.95022296414E+01
 0.96453304978E+01 0.98886127328E+01 0.10238687291E+02 0.10701071854E+02 0.11272741987E+02
 0.11930903685E+02 0.12621015124E+02 0.13251404625E+02 0.13704099536E+02 0.13861028041E+02
 0.13617875777E+02 0.12946452312E+02 0.11932809952E+02 0.10763027425E+02 0.96778283806E+01
 0.89122002614E+01 0.86363076436E+01 0.89122002614E+01 0.96778283806E+01 0.10763027425E+02
 0.11932809952E+02 0.12946452312E+02 0.13617875777E+02 0.13861028041E+02 0.13704099536E+02
 0.13251404625E+02 0.12621015124E+02 0.11930903685E+02 0.11272741987E+02 0.10701071854E+02
 0.10238687291E+02 0.98886127328E+01 0.96453304978E+01 0.95022296414E+01 0.10294038658E+02
 0.10333074336E+02 0.10449722176E+02 0.10643707234E+02 0.10916832553E+02 0.11272741987E+02
 0.11712486365E+02 0.12225885747E+02 0.12781105663E+02 0.13317775118E+02 0.13750813438E+02
 0.13989316470E+02 0.13958943373E+02 0.13617875777E+02 0.13003286424E+02 0.12236399521E+02
 0.11493084406E+02 0.10955386599E+02 0.10759381451E+02 0.10955386599E+02 0.11493084406E+02
 0.12236399521E+02 0.13003286424E+02 0.13617875777E+02 0.13958943373E+02 0.13989316470E+02
 0.13750813438E+02 0.13317775118E+02 0.12781105663E+02 0.12225885747E+02 0.11712486365E+02
 0.11272741987E+02 0.10916832553E+02 0.10643707234E+02 0.10449722176E+02 0.10333074336E+02
 0.11207091062E+02 0.11240073290E+02 0.11335673216E+02 0.11486255126E+02 0.11685203283E+02
 0.11930903685E+02 0.12225885747E+02 0.12570435787E+02 0.12953070860E+02 0.13342490573E+02
 0.13686382103E+02 0.13920795452E+02 0.13989316470E+02 0.13861028041E+02 0.13541696691E+02
 0.13096846974E+02 0.12640266741E+02 0.12299363812E+02 0.12173291704E+02 0.12299363812E+02
 0.12640266741E+02 0.13096846974E+02 0.13541696691E+02 0.13861028041E+02 0.13989316470E+02
 0.13920795452E+02 0.13686382103E+02 0.13342490573E+02 0.12953070860E+02 0.12570435787E+02
 0.12225885747E+02 0.11930903685E+02 0.11685203283E+02 0.11486255126E+02 0.11335673216E+02
 0.11240073290E+02 0.12059591123E+02 0.12092835594E+02 0.12184742309E+02 0.12315991036E+02
 0.12465683605E+02 0.12621015124E+02 0.12781105663E+02 0.12953070860E+02 0.13142734956E+02
 0.13344888457E+02 0.13537977507E+02 0.13686382103E+02 0.13750813438E+02 0.13704099536E+02
 0.13545854171E+02 0.13306327599E+02 0.13047981038E+02 0.12849269833E+02 0.12774740272E+02
 0.12849269833E+02 0.13047981038E+02 0.13306327599E+02 0.13545854171E+02 0.13704099536E+02
 0.13750813438E+02 0.13686382103E+02 0.13537977507E+02 0.13344888457E+02 0.13142734956E+02
 0.12953070860E+02 0.12781105663E+02 0.12621015124E+02 0.12465683605E+02 0.12315991036E+02
 0.12184742309E+02 0.12092835594E+02 0.12659688962E+02 0.12704375827E+02 0.12823948798E+02
 0.12981910979E+02 0.13135347020E+02 0.13251404625E+02 0.13317775118E+02 0.13342490573E+02
 0.13344888457E+02 0.13343246411E+02 0.13344888457E+02 0.13342490573E+02 0.13317775118E+02
 0.13251404625E+02 0.13135347020E+02 0.12981910979E+02 0.12823948798E+02 0.12704375827E+02
 0.12659688962E+02 0.12704375827E+02 0.12823948798E+02 0.12981910979E+02 0.13135347020E+02
 0.13251404625E+02 0.13317775118E+02 0.13342490573E+02 0.13344888457E+02 0.13343246411E+02
 0.13344888457E+02 0.13342490573E+02 0.13317775118E+02 0.13251404625E+02 0.13135347020E+02
 0.12981910979E+02 0.12823948798E+02 0.12704375827E+02 0.12774740272E+02 0.12849269833E+02
 0.13047981038E+02 0.13306327599E+02 0.13545854171E+02 0.13704099536E+02 0.13750813438E+02
 0.13686382103E+02 0.13537977507E+02 0.13344888457E+02 0.13142734956E+02 0.12953070860E+02
 0.12781105663E+02 0.12621015124E+02 0.12465683605E+02 0.12315991036E+02 0.12184742309E+02
 0.12092835594E+02 0.12059591123E+02 0.12092835594E+02 0.12184742309E+02 0.12315991036E+02
 0.12465683605E+02 0.12621015124E+02 0.12781105663E+02 0.12953070860E+02 0.13142734956E+02
 0.13344888457E+02 0.13537977507E+02 0.13686382103E+02 0.13750813438E+02 0.13704099536E+02
 0.13545854171E+02 0.13306327599E+02 0.13047981038E+02 0.12849269833E+02 0.12173291704E+02
 0.12299363812E+02 0.12640266741E+02 0.13096846974E+02 0.13541696691E+02 0.13861028041E+02
 0.13989316470E+02 0.13920795452E+02 0.13686382103E+02 0.13342490573E+02 0.12953070860E+02
 0.12570435787E+02 0.12225885747E+02 0.11930903685E+02 0.11685203283E+02 0.11486255126E+02
 0.11335673216E+02 0.11240073290E+02 0.11207091062E+02 0.11240073290E+02 0.11335673216E+02
 0.11486255126E+02 0.11685203283E+02 0.11930903685E+02 0.12225885747E+02 0.12570435787E+02
 0.12953070860E+02 0.13342490573E+02 0.13686382103E+02 0.13920795452E+02 0.13989316470E+02
 0.13861028041E+02 0.13541696691E+02 0.13096846974E+02 0.12640266741E+02 0.12299363812E+02
 0.10759381451E+02 0.10955386599E+02 0.11493084406E+02 0.12236399521E+02 0.13003286424E+02
 0.13617875777E+02 0.13958943373E+02 0.13989316470E+02 0.13750813438E+02 0.13317775118E+02
 0.12781105663E+02 0.12225885747E+02 0.11712486365E+02 0.11272741987E+02 0.10916832553E+02
 0.10643707234E+02 0.10449722176E+02 0.10333074336E+02 0.10294038658E+02 0.10333074336E+02
 0.10449722176E+02 0.10643707234E+02 0.10916832553E+02 0.11272741987E+02 0.11712486365E+02
 0.12225885747E+02 0.12781105663E+02 0.13317775118E+02 0.13750813438E+02 0.13989316470E+02
 0.13958943373E+02 0.13617875777E+02 0.13003286424E+02 0.12236399521E+02 0.11493084406E+02
 0.10955386599E+02 0.86363076436E+01 0.89122002614E+01 0.96778283806E+01 0.10763027425E+02
 0.11932809952E+02 0.12946452312E+02 0.13617875777E+02 0.13861028041E+02 0.13704099536E+02
 0.13251404625E+02 0.12621015124E+02 0.11930903685E+02 0.11272741987E+02 0.10701071854E+02
 0.10238687291E+02 0.98886127328E+01 0.96453304978E+01 0.95022296414E+01 0.94549943750E+01
 0.95022296414E+01 0.96453304978E+01 0.98886127328E+01 0.10238687291E+02 0.10701071854E+02
 0.11272741987E+02 0.11930903685E+02 0.12621015124E+02 0.13251404625E+02 0.13704099536E+02
 0.13861028041E+02 0.13617875777E+02 0.12946452312E+02 0.11932809952E+02 0.10763027425E+02
 0.96778283806E+01 0.89122002614E+01 0.60950543457E+01 0.64492679594E+01 0.74414737267E+01
 0.88756821336E+01 0.10472908826E+02 0.11932809952E+02 0.13003286424E+02 0.13541696691E+02
 0.13545854171E+02 0.13135347020E+02 0.12465683605E+02 0.11685203283E+02 0.10916832553E+02
 0.10238687291E+02 0.96869900673E+01 0.92699849467E+01 0.89821703802E+01 0.88143400477E+01
 0.87592759931E+01 0.88143400477E+01 0.89821703802E+01 0.92699849467E+01 0.96869900673E+01
 0.10238687291E+02 0.10916832553E+02 0.11685203283E+02 0.12465683605E+02 0.13135347020E+02
 0.13545854171E+02 0.13541696691E+02 0.13003286424E+02 0.11932809952E+02 0.10472908826E+02
 0.88756821336E+01 0.74414737267E+01 0.64492679594E+01 0.35388373344E+01 0.39587196388E+01
 0.51444795493E+01 0.68865014278E+01 0.88756821336E+01 0.10763027425E+02 0.12236399521E+02
 0.13096846974E+02 0.13306327599E+02 0.12981910979E+02 0.12315991036E+02 0.11486255126E+02
 0.10643707234E+02 0.98886127328E+01 0.92699849467E+01 0.88014349969E+01 0.84785350050E+01
 0.82909256822E+01 0.82295606769E+01 0.82909256822E+01 0.84785350050E+01 0.88014349969E+01
 0.92699849467E+01 0.98886127328E+01 0.10643707234E+02 0.11486255126E+02 0.12315991036E+02
 0.12981910979E+02 0.13306327599E+02 0.13096846974E+02 0.12236399521E+02 0.10763027425E+02
 0.88756821336E+01 0.68865014278E+01 0.51444795493E+01 0.39587196388E+01 0.13790451910E+01
 0.18451408080E+01 0.31707635506E+01 0.51444795493E+01 0.74414737267E+01 0.96778283806E+01
 0.11493084406E+02 0.12640266741E+02 0.13047981038E+02 0.12823948798E+02 0.12184742309E+02
 0.11335673216E+02 0.10449722176E+02 0.96453304978E+01 0.89821703802E+01 0.84785350050E+01
 0.81314351767E+01 0.79301550883E+01 0.78644523566E+01 0.79301550883E+01 0.81314351767E+01
 0.84785350050E+01 0.89821703802E+01 0.96453304978E+01 0.10449722176E+02 0.11335673216E+02
 0.12184742309E+02 0.12823948798E+02 0.13047981038E+02 0.12640266741E+02 0.11493084406E+02
 0.96778283806E+01 0.74414737267E+01 0.51444795493E+01 0.31707635506E+01 0.18451408080E+01
 -.53154012205E-01 0.43878275464E+00 0.18451408080E+01 0.39587196388E+01 0.64492679594E+01
 0.89122002614E+01 0.10955386599E+02 0.12299363812E+02 0.12849269833E+02 0.12704375827E+02
 0.12092835594E+02 0.11240073290E+02 0.10333074336E+02 0.95022296414E+01 0.88143400477E+01
 0.82909256822E+01 0.79301550883E+01 0.77212340674E+01 0.76531394460E+01 0.77212340674E+01
 0.79301550883E+01 0.82909256822E+01 0.88143400477E+01 0.95022296414E+01 0.10333074336E+02
 0.11240073290E+02 0.12092835594E+02 0.12704375827E+02 0.12849269833E+02 0.12299363812E+02
 0.10955386599E+02 0.89122002614E+01 0.64492679594E+01 0.39587196388E+01 0.18451408080E+01
 0.43878275464E+00 -.53154012205E-01 0.43878275464E+00 0.18451408080E+01 0.39587196388E+01
 0.64492679594E+01 0.89122002614E+01 0.10955386599E+02 0.12299363812E+02 0.12849269833E+02
 0.12704375827E+02 0.12092835594E+02 0.11240073290E+02 0.10333074336E+02 0.95022296414E+01
 0.88143400477E+01 0.82909256822E+01 0.79301550883E+01 0.77212340674E+01 0.76531394460E+01
 0.77212340674E+01 0.79301550883E+01 0.82909256822E+01 0.88143400477E+01 0.95022296414E+01
 0.10333074336E+02 0.11240073290E+02 0.12092835594E+02 0.12704375827E+02 0.12849269833E+02
 0.12299363812E+02 0.10955386599E+02 0.89122002614E+01 0.64492679594E+01 0.39587196388E+01
 0.18451408080E+01 0.43878275464E+00 0.43878275464E+00 0.92217001146E+00 0.23015993705E+01
 0.43680328842E+01 0.67927724344E+01 0.91782077617E+01 0.11143065583E+02 0.12419018521E+02
 0.12919268188E+02 0.12746100532E+02 0.12124076930E+02 0.11271655972E+02 0.10371071481E+02
 0.95486283867E+01 0.88686645339E+01 0.83515766670E+01 0.79951350409E+01 0.77885943172E+01
 0.77212340674E+01 0.77885943172E+01 0.79951350409E+01 0.83515766670E+01 0.88686645339E+01
 0.95486283867E+01 0.10371071481E+02 0.11271655972E+02 0.12124076930E+02 0.12746100532E+02
 0.12919268188E+02 0.12419018521E+02 0.11143065583E+02 0.91782077617E+01 0.67927724344E+01
 0.43680328842E+01 0.23015993705E+01 0.92217001146E+00 0.18451408080E+01 0.23015993705E+01
 0.35978810989E+01 0.55225974315E+01 0.77540493262E+01 0.99156981865E+01 0.11657320779E+02
 0.12742028196E+02 0.13105451865E+02 0.12857511875E+02 0.12210356086E+02 0.11363226296E+02
 0.10484615531E+02 0.96891280308E+01 0.90341270874E+01 0.85368720432E+01 0.81940701106E+01
 0.79951350409E+01 0.79301550883E+01 0.79951350409E+01 0.81940701106E+01 0.85368720432E+01
 0.90341270874E+01 0.96891280308E+01 0.10484615531E+02 0.11363226296E+02 0.12210356086E+02
 0.12857511875E+02 0.13105451865E+02 0.12742028196E+02 0.11657320779E+02 0.99156981865E+01
 0.77540493262E+01 0.55225974315E+01 0.35978810989E+01 0.23015993705E+01 0.39587196388E+01
 0.43680328842E+01 0.55225974315E+01 0.72149267807E+01 0.91407462414E+01 0.10958806580E+02
 0.12366319512E+02 0.13172936232E+02 0.13346134491E+02 0.13003904940E+02 0.12333374940E+02
 0.11507614957E+02 0.10673494409E+02 0.99278495499E+01 0.93176216852E+01 0.88555049217E+01
 0.85368720432E+01 0.83515766670E+01 0.82909256822E+01 0.83515766670E+01 0.85368720432E+01
 0.88555049217E+01 0.93176216852E+01 0.99278495499E+01 0.10673494409E+02 0.11507614957E+02
 0.12333374940E+02 0.13003904940E+02 0.13346134491E+02 0.13172936232E+02 0.12366319512E+02
 0.10958806580E+02 0.91407462414E+01 0.72149267807E+01 0.55225974315E+01 0.43680328842E+01
 0.64492679594E+01 0.67927724344E+01 0.77540493262E+01 0.91407462414E+01 0.10679884622E+02
 0.12078911836E+02 0.13093986674E+02 0.13589354857E+02 0.13566619804E+02 0.13144482388E+02
 0.12473580963E+02 0.11698869027E+02 0.10939696846E+02 0.10271299880E+02 0.97281287203E+01
 0.93176216852E+01 0.90341270874E+01 0.88686645339E+01 0.88143400477E+01 0.88686645339E+01
 0.90341270874E+01 0.93176216852E+01 0.97281287203E+01 0.10271299880E+02 0.10939696846E+02
 0.11698869027E+02 0.12473580963E+02 0.13144482388E+02 0.13566619804E+02 0.13589354857E+02
 0.13093986674E+02 0.12078911836E+02 0.10679884622E+02 0.91407462414E+01 0.77540493262E+01
 0.67927724344E+01 0.89122002614E+01 0.91782077617E+01 0.99156981865E+01 0.10958806580E+02
 0.12078911836E+02 0.13042631691E+02 0.13670825937E+02 0.13882515345E+02 0.13707898665E+02
 0.13248461020E+02 0.12619466669E+02 0.11936122094E+02 0.11287265479E+02 0.10725204535E+02
 0.10271299880E+02 0.99278495499E+01 0.96891280308E+01 0.95486283867E+01 0.95022296414E+01
 0.95486283867E+01 0.96891280308E+01 0.99278495499E+01 0.10271299880E+02 0.10725204535E+02
 0.11287265479E+02 0.11936122094E+02 0.12619466669E+02 0.13248461020E+02 0.13707898665E+02
 0.13882515345E+02 0.13670825937E+02 0.13042631691E+02 0.12078911836E+02 0.10958806580E+02
 0.99156981865E+01 0.91782077617E+01 0.10955386599E+02 0.11143065583E+02 0.11657320779E+02
 0.12366319512E+02 0.13093986674E+02 0.13670825937E+02 0.13981014065E+02 0.13990685343E+02
 0.13741241196E+02 0.13304976358E+02 0.12771135284E+02 0.12222667405E+02 0.11717951849E+02
 0.11287265479E+02 0.10939696846E+02 0.10673494409E+02 0.10484615531E+02 0.10371071481E+02
 0.10333074336E+02 0.10371071481E+02 0.10484615531E+02 0.10673494409E+02 0.10939696846E+02
 0.11287265479E+02 0.11717951849E+02 0.12222667405E+02 0.12771135284E+02 0.13304976358E+02
 0.13741241196E+02 0.13990685343E+02 0.13981014065E+02 0.13670825937E+02 0.13093986674E+02
 0.12366319512E+02 0.11657320779E+02 0.11143065583E+02 0.12299363812E+02 0.12419018521E+02
 0.12742028196E+02 0.13172936232E+02 0.13589354857E+02 0.13882515345E+02 0.13990685343E+02
 0.13909063521E+02 0.13667846379E+02 0.13322716180E+02 0.12936315630E+02 0.12559585485E+02
 0.12222667405E+02 0.11936122094E+02 0.11698869027E+02 0.11507614957E+02 0.11363226296E+02
 0.11271655972E+02 0.11240073290E+02 0.11271655972E+02 0.11363226296E+02 0.11507614957E+02
 0.11698869027E+02 0.11936122094E+02 0.12222667405E+02 0.12559585485E+02 0.12936315630E+02
 0.13322716180E+02 0.13667846379E+02 0.13909063521E+02 0.13990685343E+02 0.13882515345E+02
 0.13589354857E+02 0.13172936232E+02 0.12742028196E+02 0.12419018521E+02 0.12849269833E+02
 0.12919268188E+02 0.13105451865E+02 0.13346134491E+02 0.13566619804E+02 0.13707898665E+02
 0.13741241196E+02 0.13667846379E+02 0.13514894689E+02 0.13321066619E+02 0.13121224514E+02
 0.12936315630E+02 0.12771135284E+02 0.12619466669E+02 0.12473580963E+02 0.12333374940E+02
 0.12210356086E+02 0.12124076930E+02 0.12092835594E+02 0.12124076930E+02 0.12210356086E+02
 0.12333374940E+02 0.12473580963E+02 0.12619466669E+02 0.12771135284E+02 0.12936315630E+02
 0.13121224514E+02 0.13321066619E+02 0.13514894689E+02 0.13667846379E+02 0.13741241196E+02
 0.13707898665E+02 0.13566619804E+02 0.13346134491E+02 0.13105451865E+02 0.12919268188E+02
 0.12704375827E+02 0.12746100532E+02 0.12857511875E+02 0.13003904940E+02 0.13144482388E+02