   4   4   0   0
  0.1648739E+02  0.4040210E-09  0.4040210E-09  0.4040210E-09  0.5000000E-15
  1.000000000000000E-004
  CAR 
 Al                                      
     44.96778167     -5.42152445  301      7.99468727      1.00000000
     -5.422  0.0000E+00  0.0000E+00
     -5.254  0.0000E+00  0.0000E+00
     -5.086  0.0000E+00  0.0000E+00
     -4.918  0.0000E+00  0.0000E+00
     -4.750  0.0000E+00  0.0000E+00
     -4.582  0.0000E+00  0.0000E+00
     -4.414  0.0000E+00  0.0000E+00
     -4.246  0.0000E+00  0.0000E+00
     -4.078  0.0000E+00  0.0000E+00
     -3.910  0.0000E+00  0.0000E+00
     -3.742  0.0000E+00  0.0000E+00
     -3.574  0.0000E+00  0.0000E+00
     -3.406  0.2639E-16  0.4433E-17
     -3.238  0.8650E-05  0.1453E-05
     -3.070  0.2915E-01  0.4898E-02
     -2.902  0.1618E+00  0.3207E-01
     -2.734  0.3178E+00  0.8544E-01
     -2.566  0.2363E+00  0.1251E+00
     -2.398  0.4302E+00  0.1974E+00
     -2.230  0.4642E+00  0.2754E+00
     -2.062  0.3142E+00  0.3281E+00
     -1.894  0.6001E+00  0.4289E+00
     -1.726  0.5829E+00  0.5268E+00
     -1.558  0.3493E+00  0.5855E+00
     -1.390  0.7710E+00  0.7150E+00
     -1.222  0.7724E+00  0.8447E+00
     -1.054  0.3858E+00  0.9095E+00
     -0.886  0.8314E+00  0.1049E+01
     -0.719  0.7236E+00  0.1171E+01
     -0.551  0.7527E+00  0.1297E+01
     -0.383  0.7461E+00  0.1422E+01
     -0.215  0.8544E+00  0.1566E+01
     -0.047  0.5002E+00  0.1650E+01
      0.121  0.1015E+01  0.1820E+01
      0.289  0.1154E+01  0.2014E+01
      0.457  0.6993E+00  0.2132E+01
      0.625  0.7222E+00  0.2253E+01
      0.793  0.1068E+01  0.2432E+01
      0.961  0.9796E+00  0.2597E+01
      1.129  0.1047E+01  0.2773E+01
      1.297  0.8755E+00  0.2920E+01
      1.465  0.1078E+01  0.3101E+01
      1.633  0.1142E+01  0.3293E+01
      1.801  0.7500E+00  0.3419E+01
      1.969  0.1167E+01  0.3615E+01
      2.137  0.1101E+01  0.3800E+01
      2.305  0.9813E+00  0.3965E+01
      2.473  0.1920E+01  0.4287E+01
      2.641  0.7064E+00  0.4406E+01
      2.809  0.7255E+00  0.4528E+01
      2.977  0.1372E+01  0.4758E+01
      3.145  0.1683E+01  0.5041E+01
      3.313  0.9547E+00  0.5201E+01
      3.481  0.1428E+01  0.5441E+01
      3.649  0.1376E+01  0.5672E+01
      3.817  0.9478E+00  0.5831E+01
      3.984  0.1226E+01  0.6037E+01
      4.152  0.1570E+01  0.6301E+01
      4.320  0.1337E+01  0.6526E+01
      4.488  0.1122E+01  0.6714E+01
      4.656  0.1467E+01  0.6960E+01
      4.824  0.1771E+01  0.7258E+01
      4.992  0.1338E+01  0.7483E+01
      5.160  0.1104E+01  0.7668E+01
      5.328  0.2076E+01  0.8017E+01
      5.496  0.1226E+01  0.8223E+01
      5.664  0.1289E+01  0.8439E+01
      5.832  0.1694E+01  0.8724E+01
      6.000  0.1408E+01  0.8960E+01
      6.168  0.1437E+01  0.9202E+01
      6.336  0.1857E+01  0.9514E+01
      6.504  0.7073E+00  0.9632E+01
      6.672  0.1693E+01  0.9917E+01
      6.840  0.1386E+01  0.1015E+02
      7.008  0.1802E+01  0.1045E+02
      7.176  0.1350E+01  0.1068E+02
      7.344  0.1623E+01  0.1095E+02
      7.512  0.1546E+01  0.1121E+02
      7.680  0.1134E+01  0.1140E+02
      7.848  0.1895E+01  0.1172E+02
      8.016  0.1952E+01  0.1205E+02
      8.184  0.1703E+01  0.1233E+02
      8.352  0.1505E+01  0.1259E+02
      8.520  0.1317E+01  0.1281E+02
      8.687  0.1699E+01  0.1309E+02
      8.855  0.1126E+01  0.1328E+02
      9.023  0.2426E+01  0.1369E+02
      9.191  0.1951E+01  0.1402E+02
      9.359  0.1452E+01  0.1426E+02
      9.527  0.1837E+01  0.1457E+02
      9.695  0.1334E+01  0.1479E+02
      9.863  0.1882E+01  0.1511E+02
     10.031  0.2021E+01  0.1545E+02
     10.199  0.1857E+01  0.1576E+02
     10.367  0.1174E+01  0.1596E+02
     10.535  0.2293E+01  0.1634E+02
     10.703  0.1579E+01  0.1661E+02
     10.871  0.1899E+01  0.1693E+02
     11.039  0.2224E+01  0.1730E+02
     11.207  0.1744E+01  0.1759E+02
     11.375  0.2137E+01  0.1795E+02
     11.543  0.1893E+01  0.1827E+02
     11.711  0.1512E+01  0.1853E+02
     11.879  0.2131E+01  0.1888E+02
     12.047  0.1641E+01  0.1916E+02
     12.215  0.2458E+01  0.1957E+02
     12.383  0.1379E+01  0.1980E+02
     12.551  0.1881E+01  0.2012E+02
     12.719  0.3225E+01  0.2066E+02
     12.887  0.1753E+01  0.2096E+02
     13.055  0.1748E+01  0.2125E+02
     13.223  0.2113E+01  0.2160E+02
     13.390  0.2236E+01  0.2198E+02
     13.558  0.2391E+01  0.2238E+02
     13.726  0.2330E+01  0.2277E+02
     13.894  0.2110E+01  0.2313E+02
     14.062  0.2560E+01  0.2356E+02
     14.230  0.2562E+01  0.2399E+02
     14.398  0.1311E+01  0.2421E+02
     14.566  0.1965E+01  0.2454E+02
     14.734  0.2667E+01  0.2499E+02
     14.902  0.2812E+01  0.2546E+02
     15.070  0.2026E+01  0.2580E+02
     15.238  0.2102E+01  0.2615E+02
     15.406  0.1857E+01  0.2646E+02
     15.574  0.2411E+01  0.2687E+02
     15.742  0.1436E+01  0.2711E+02
     15.910  0.2733E+01  0.2757E+02
     16.078  0.1500E+01  0.2782E+02
     16.246  0.2221E+01  0.2819E+02
     16.414  0.2227E+01  0.2857E+02
     16.582  0.2092E+01  0.2892E+02
     16.750  0.2776E+01  0.2939E+02
     16.918  0.1850E+01  0.2970E+02
     17.086  0.2363E+01  0.3009E+02
     17.254  0.2022E+01  0.3043E+02
     17.422  0.1251E+01  0.3064E+02
     17.590  0.2633E+01  0.3108E+02
     17.758  0.3215E+01  0.3162E+02
     17.926  0.1302E+01  0.3184E+02
     18.093  0.2528E+01  0.3227E+02
     18.261  0.1362E+01  0.3250E+02
     18.429  0.2765E+01  0.3296E+02
     18.597  0.2795E+01  0.3343E+02
     18.765  0.1709E+01  0.3372E+02
     18.933  0.2735E+01  0.3418E+02
     19.101  0.2475E+01  0.3459E+02
     19.269  0.2600E+01  0.3503E+02
     19.437  0.2413E+01  0.3543E+02
     19.605  0.3682E+01  0.3605E+02
     19.773  0.2558E+01  0.3648E+02
     19.941  0.1904E+01  0.3680E+02
     20.109  0.2010E+01  0.3714E+02
     20.277  0.3646E+01  0.3775E+02
     20.445  0.2108E+01  0.3811E+02
     20.613  0.1627E+01  0.3838E+02
     20.781  0.3433E+01  0.3896E+02
     20.949  0.2884E+01  0.3944E+02
     21.117  0.2881E+01  0.3993E+02
     21.285  0.3479E+01  0.4051E+02
     21.453  0.2343E+01  0.4090E+02
     21.621  0.9221E+00  0.4106E+02
     21.789  0.1746E+01  0.4135E+02
     21.957  0.3452E+01  0.4193E+02
     22.125  0.1921E+01  0.4225E+02
     22.293  0.1523E+01  0.4251E+02
     22.461  0.3009E+01  0.4301E+02
     22.629  0.3950E+01  0.4368E+02
     22.796  0.2651E+01  0.4412E+02
     22.964  0.3220E+01  0.4466E+02
     23.132  0.2206E+01  0.4503E+02
     23.300  0.2286E+01  0.4542E+02
     23.468  0.2533E+01  0.4584E+02
     23.636  0.2466E+01  0.4626E+02
     23.804  0.2301E+01  0.4665E+02
     23.972  0.3115E+01  0.4717E+02
     24.140  0.3222E+01  0.4771E+02
     24.308  0.3002E+01  0.4821E+02
     24.476  0.2913E+01  0.4870E+02
     24.644  0.3437E+01  0.4928E+02
     24.812  0.1751E+01  0.4957E+02
     24.980  0.2135E+01  0.4993E+02
     25.148  0.3335E+01  0.5049E+02
     25.316  0.2753E+01  0.5096E+02
     25.484  0.4110E+01  0.5165E+02
     25.652  0.2886E+01  0.5213E+02
     25.820  0.2498E+01  0.5255E+02
     25.988  0.2782E+01  0.5302E+02
     26.156  0.2917E+01  0.5351E+02
     26.324  0.2636E+01  0.5395E+02
     26.492  0.4346E+01  0.5468E+02
     26.660  0.2095E+01  0.5503E+02
     26.828  0.3154E+01  0.5556E+02
     26.996  0.2374E+01  0.5596E+02
     27.164  0.3479E+01  0.5655E+02
     27.332  0.1780E+01  0.5684E+02
     27.499  0.2677E+01  0.5729E+02
     27.667  0.3389E+01  0.5786E+02
     27.835  0.3738E+01  0.5849E+02
     28.003  0.1359E+01  0.5872E+02
     28.171  0.2417E+01  0.5913E+02
     28.339  0.4584E+01  0.5990E+02
     28.507  0.2966E+01  0.6039E+02
     28.675  0.3200E+01  0.6093E+02
     28.843  0.2908E+01  0.6142E+02
     29.011  0.1571E+01  0.6168E+02
     29.179  0.4062E+01  0.6237E+02
     29.347  0.3981E+01  0.6303E+02
     29.515  0.2474E+01  0.6345E+02
     29.683  0.3488E+01  0.6404E+02
     29.851  0.2778E+01  0.6450E+02
     30.019  0.4000E+01  0.6517E+02
     30.187  0.3020E+01  0.6568E+02
     30.355  0.3266E+01  0.6623E+02
     30.523  0.2843E+01  0.6671E+02
     30.691  0.2099E+01  0.6706E+02
     30.859  0.3505E+01  0.6765E+02
     31.027  0.2212E+01  0.6802E+02
     31.195  0.4126E+01  0.6871E+02
     31.363  0.4109E+01  0.6940E+02
     31.531  0.3338E+01  0.6996E+02
     31.699  0.3636E+01  0.7057E+02
     31.867  0.3355E+01  0.7114E+02
     32.035  0.2248E+01  0.7152E+02
     32.202  0.2311E+01  0.7190E+02
     32.370  0.3528E+01  0.7250E+02
     32.538  0.4593E+01  0.7327E+02
     32.706  0.2716E+01  0.7372E+02
     32.874  0.3724E+01  0.7435E+02
     33.042  0.3433E+01  0.7493E+02
     33.210  0.3867E+01  0.7558E+02
     33.378  0.2658E+01  0.7602E+02
     33.546  0.2518E+01  0.7645E+02
     33.714  0.2970E+01  0.7694E+02
     33.882  0.2067E+01  0.7729E+02
     34.050  0.1270E+01  0.7750E+02
     34.218  0.3826E+01  0.7815E+02
     34.386  0.2206E+01  0.7852E+02
     34.554  0.2068E+01  0.7887E+02
     34.722  0.1980E+01  0.7920E+02
     34.890  0.2304E+01  0.7958E+02
     35.058  0.1387E+01  0.7982E+02
     35.226  0.1855E+01  0.8013E+02
     35.394  0.1148E+01  0.8032E+02
     35.562  0.6420E+00  0.8043E+02
     35.730  0.2010E+01  0.8077E+02
     35.898  0.1227E+01  0.8097E+02
     36.066  0.1394E+01  0.8121E+02
     36.234  0.1073E+01  0.8139E+02
     36.402  0.1723E+01  0.8168E+02
     36.570  0.2213E+01  0.8205E+02
     36.738  0.1937E+01  0.8237E+02
     36.905  0.2141E+01  0.8273E+02
     37.073  0.2308E+01  0.8312E+02
     37.241  0.2225E+01  0.8350E+02
     37.409  0.2133E+01  0.8385E+02
     37.577  0.1626E+01  0.8413E+02
     37.745  0.2068E+01  0.8447E+02
     37.913  0.1983E+01  0.8481E+02
     38.081  0.1884E+01  0.8512E+02
     38.249  0.3212E+01  0.8566E+02
     38.417  0.2409E+01  0.8607E+02
     38.585  0.2185E+01  0.8643E+02
     38.753  0.3078E+01  0.8695E+02
     38.921  0.3052E+01  0.8746E+02
     39.089  0.2585E+01  0.8790E+02
     39.257  0.3301E+01  0.8845E+02
     39.425  0.1724E+01  0.8874E+02
     39.593  0.2178E+01  0.8911E+02
     39.761  0.3446E+01  0.8969E+02
     39.929  0.3865E+01  0.9034E+02
     40.097  0.4978E+01  0.9117E+02
     40.265  0.3448E+01  0.9175E+02
     40.433  0.4882E+01  0.9257E+02
     40.601  0.3735E+01  0.9320E+02
     40.769  0.1954E+01  0.9353E+02
     40.937  0.2453E+01  0.9394E+02
     41.105  0.2454E+01  0.9435E+02
     41.273  0.3063E+01  0.9487E+02
     41.441  0.2753E+01  0.9533E+02
     41.608  0.1112E+01  0.9551E+02
     41.776  0.1351E+01  0.9574E+02
     41.944  0.7748E+00  0.9587E+02
     42.112  0.3175E+00  0.9593E+02
     42.280  0.1145E+00  0.9594E+02
     42.448  0.1776E-05  0.9594E+02
     42.616  0.1390E-01  0.9595E+02
     42.784  0.3164E+00  0.9600E+02
     42.952  0.4136E-03  0.9600E+02
     43.120  0.0000E+00  0.9600E+02
     43.288  0.0000E+00  0.9600E+02
     43.456  0.0000E+00  0.9600E+02
     43.624  0.0000E+00  0.9600E+02
     43.792  0.0000E+00  0.9600E+02
     43.960  0.0000E+00  0.9600E+02
     44.128  0.0000E+00  0.9600E+02
     44.296  0.0000E+00  0.9600E+02
     44.464  0.0000E+00  0.9600E+02
     44.632  0.0000E+00  0.9600E+02
     44.800  0.0000E+00  0.9600E+02
     44.968  0.0000E+00  0.9600E+02
