Hg                                      
   1.00000000000000     
     4.103050    0.000000    0.000000
     0.000000    4.103050    0.000000
     0.000000    0.000000    3.548310
   Hg
     2
Direct
  0.000000  0.000000  0.000000
  0.500000  0.500000  0.500000
 
   36   36   32
  337.79      326.45      296.60      257.26      215.84      174.85      134.27      95.533      62.392      38.277    
  23.504      15.064      9.8552      6.7079      4.7854      3.5708      2.8152      2.4078      2.2815      2.4078    
  2.8152      3.5708      4.7854      6.7079      9.8552      15.064      23.504      38.277      62.392      95.533    
  134.27      174.85      215.84      257.26      296.60      326.45      326.45      315.85      287.82      250.55    
  210.75      170.80      130.95      92.944      60.611      37.239      22.979      14.783      9.7043      6.6299    
  4.7460      3.5522      2.8085      2.4075      2.2832      2.4075      2.8085      3.5522      4.7460      6.6299    
  9.7043      14.783      22.979      37.239      60.611      92.944      130.95      170.80      210.75      250.55    
  287.82      315.85      296.60      287.82      264.29      232.13      196.37      159.11      121.32      85.508    
  55.565      34.334      21.510      13.983      9.2747      6.4074      4.6331      3.4992      2.7899      2.4074    
  2.2891      2.4074      2.7899      3.4992      4.6331      6.4074      9.2747      13.983      21.510      34.334    
  55.565      85.508      121.32      159.11      196.37      232.13      264.29      287.82      257.26      250.55    
  232.13      205.77      174.75      140.99      106.42      74.222      48.105      30.131      19.364      12.782    
  8.6299      6.0710      4.4617      3.4197      2.7641      2.4107      2.3016      2.4107      2.7641      3.4197    
  4.4617      6.0710      8.6299      12.782      19.364      30.131      48.105      74.222      106.42      140.99    
  174.75      205.77      232.13      250.55      215.84      210.75      196.37      174.75      148.00      118.18    
  87.926      60.673      39.479      25.386      16.849      11.349      7.8563      5.6633      4.2533      3.3259    
  2.7388      2.4225      2.3251      2.4225      2.7388      3.3259      4.2533      5.6633      7.8563      11.349    
  16.849      25.386      39.479      60.673      87.926      118.18      148.00      174.75      196.37      210.75    
  174.85      170.80      159.11      140.99      118.18      92.923      68.124      46.819      31.033      20.787    
  14.225      9.8558      7.0425      5.2292      4.0324      3.2326      2.7242      2.4507      2.3666      2.4507    
  2.7242      3.2326      4.0324      5.2292      7.0425      9.8558      14.225      20.787      31.033      46.819    
  68.124      92.923      118.18      140.99      159.11      170.80      134.27      130.95      121.32      106.42    
  87.926      68.124      49.600      34.520      23.794      16.679      11.754      8.4444      6.2618      4.8086    
  3.8231      3.1562      2.7322      2.5047      2.4347      2.5047      2.7322      3.1562      3.8231      4.8086    
  6.2618      8.4444      11.754      16.679      23.794      34.520      49.600      68.124      87.926      106.42    
  121.32      130.95      95.533      92.944      85.508      74.222      60.673      46.819      34.520      24.941    
  18.103      13.135      9.6133      7.2047      5.5632      4.4319      3.6467      3.1124      2.7746      2.5942    
  2.5386      2.5942      2.7746      3.1124      3.6467      4.4319      5.5632      7.2046      9.6133      13.135    
  18.103      24.941      34.520      46.819      60.673      74.222      85.508      92.944      62.392      60.611    
  55.565      48.105      39.479      31.033      23.794      18.103      13.643      10.283      7.8720      6.1730    
  4.9724      4.1199      3.5205      3.1147      2.8616      2.7277      2.6865      2.7277      2.8616      3.1147    
  3.5205      4.1199      4.9724      6.1730      7.8720      10.283      13.643      18.103      23.794      31.033    
  39.479      48.105      55.565      60.611      38.277      37.239      34.334      30.131      25.386      20.787    
  16.679      13.135      10.283      8.1134      6.5144      5.3476      4.4979      3.8852      3.4562      3.1719    
  2.9995      2.9102      2.8831      2.9102      2.9995      3.1719      3.4562      3.8852      4.4979      5.3476    
  6.5144      8.1134      10.283      13.135      16.679      20.787      25.386      30.131      34.334      37.239    
  23.504      22.979      21.510      19.364      16.849      14.225      11.754      9.6133      7.8720      6.5144    
  5.4817      4.7080      4.1386      3.7330      3.4589      3.2870      3.1895      3.1421      3.1282      3.1421    
  3.1895      3.2870      3.4588      3.7330      4.1386      4.7080      5.4817      6.5144      7.8720      9.6133    
  11.754      14.225      16.849      19.364      21.510      22.979      15.064      14.783      13.983      12.782    
  11.349      9.8558      8.4444      7.2047      6.1730      5.3476      4.7080      4.2294      3.8881      3.6616    
  3.5260      3.4558      3.4264      3.4176      3.4161      3.4176      3.4264      3.4558      3.5260      3.6616    
  3.8881      4.2294      4.7080      5.3476      6.1730      7.2046      8.4444      9.8558      11.349      12.782    
  13.983      14.783      9.8552      9.7043      9.2747      8.6299      7.8563      7.0425      6.2618      5.5632    
  4.9724      4.4979      4.1386      3.8881      3.7348      3.6618      3.6471      3.6669      3.6987      3.7250    
  3.7350      3.7250      3.6987      3.6669      3.6471      3.6618      3.7348      3.8881      4.1386      4.4979    
  4.9724      5.5632      6.2618      7.0425      7.8563      8.6299      9.2747      9.7043      6.7079      6.6299    
  6.4074      6.0710      5.6633      5.2292      4.8086      4.4319      4.1199      3.8852      3.7330      3.6616    
  3.6618      3.7167      3.8047      3.9023      3.9884      4.0466      4.0671      4.0466      3.9883      3.9023    
  3.8047      3.7167      3.6618      3.6616      3.7330      3.8852      4.1199      4.4319      4.8086      5.2292    
  5.6633      6.0710      6.4074      6.6299      4.7854      4.7460      4.6331      4.4617      4.2533      4.0324    
  3.8231      3.6467      3.5205      3.4562      3.4589      3.5260      3.6471      3.8047      3.9768      4.1400    
  4.2732      4.3600      4.3901      4.3600      4.2732      4.1400      3.9768      3.8047      3.6471      3.5260    
  3.4588      3.4562      3.5205      3.6467      3.8231      4.0324      4.2533      4.4617      4.6331      4.7460    
  3.5708      3.5522      3.4992      3.4197      3.3259      3.2326      3.1562      3.1124      3.1147      3.1719    
  3.2870      3.4558      3.6669      3.9023      4.1400      4.3563      4.5290      4.6403      4.6787      4.6403    
  4.5290      4.3563      4.1400      3.9023      3.6669      3.4558      3.2870      3.1719      3.1147      3.1124    
  3.1562      3.2326      3.3259      3.4197      3.4992      3.5522      2.8152      2.8085      2.7899      2.7641    
  2.7388      2.7242      2.7322      2.7746      2.8616      2.9995      3.1895      3.4264      3.6987      3.9884    
  4.2732      4.5290      4.7319      4.8625      4.9076      4.8625      4.7319      4.5290      4.2732      3.9883    
  3.6987      3.4264      3.1895      2.9995      2.8616      2.7746      2.7322      2.7242      2.7388      2.7641    
  2.7899      2.8085      2.4078      2.4075      2.4074      2.4107      2.4225      2.4507      2.5047      2.5942    
  2.7277      2.9102      3.1421      3.4176      3.7250      4.0466      4.3600      4.6403      4.8625      5.0055    
  5.0549      5.0055      4.8625      4.6403      4.3600      4.0466      3.7250      3.4176      3.1421      2.9102    
  2.7277      2.5942      2.5047      2.4507      2.4225      2.4107      2.4074      2.4075      2.2815      2.2832    
  2.2891      2.3016      2.3251      2.3666      2.4347      2.5386      2.6865      2.8831      3.1282      3.4161    
  3.7350      4.0671      4.3901      4.6787      4.9076      5.0549      5.1058      5.0549      4.9076      4.6787    
  4.3901      4.0671      3.7350      3.4161      3.1282      2.8831      2.6865      2.5386      2.4347      2.3666    
  2.3251      2.3016      2.2891      2.2832      2.4078      2.4075      2.4074      2.4107      2.4225      2.4507    
  2.5047      2.5942      2.7277      2.9102      3.1421      3.4176      3.7250      4.0466      4.3600      4.6403    
  4.8625      5.0055      5.0549      5.0055      4.8625      4.6403      4.3600      4.0466      3.7250      3.4176    
  3.1421      2.9102      2.7277      2.5942      2.5047      2.4507      2.4225      2.4107      2.4074      2.4075    
  2.8152      2.8085      2.7899      2.7641      2.7388      2.7242      2.7322      2.7746      2.8616      2.9995    
  3.1895      3.4264      3.6987      3.9883      4.2732      4.5290      4.7319      4.8625      4.9076      4.8625    
  4.7319      4.5290      4.2732      3.9884      3.6987      3.4264      3.1895      2.9995      2.8616      2.7746    
  2.7322      2.7242      2.7388      2.7641      2.7899      2.8085      3.5708      3.5522      3.4992      3.4197    
  3.3259      3.2326      3.1562      3.1124      3.1147      3.1719      3.2870      3.4558      3.6669      3.9023    
  4.1400      4.3563      4.5290      4.6403      4.6787      4.6403      4.5290      4.3563      4.1400      3.9023    
  3.6669      3.4558      3.2870      3.1719      3.1147      3.1124      3.1562      3.2326      3.3259      3.4197    
  3.4992      3.5522      4.7854      4.7460      4.6331      4.4617      4.2533      4.0324      3.8231      3.6467    
  3.5205      3.4562      3.4588      3.5260      3.6471      3.8047      3.9768      4.1400      4.2732      4.3600    
  4.3901      4.3600      4.2732      4.1400      3.9768      3.8047      3.6471      3.5260      3.4589      3.4562    
  3.5205      3.6467      3.8231      4.0324      4.2533      4.4617      4.6331      4.7460      6.7079      6.6299    
  6.4074      6.0710      5.6633      5.2292      4.8086      4.4319      4.1199      3.8852      3.7330      3.6616    
  3.6618      3.7167      3.8047      3.9023      3.9883      4.0466      4.0671      4.0466      3.9884      3.9023    
  3.8047      3.7167      3.6618      3.6616      3.7330      3.8852      4.1199      4.4319      4.8086      5.2292    
  5.6633      6.0710      6.4074      6.6299      9.8552      9.7043      9.2747      8.6299      7.8563      7.0425    
  6.2618      5.5632      4.9724      4.4979      4.1386      3.8881      3.7348      3.6618      3.6471      3.6669    
  3.6987      3.7250      3.7350      3.7250      3.6987      3.6669      3.6471      3.6618      3.7348      3.8881    
  4.1386      4.4979      4.9724      5.5632      6.2618      7.0425      7.8563      8.6299      9.2747      9.7043    
  15.064      14.783      13.983      12.782      11.349      9.8558      8.4444      7.2046      6.1730      5.3476    
  4.7080      4.2294      3.8881      3.6616      3.5260      3.4558      3.4264      3.4176      3.4161      3.4176    
  3.4264      3.4558      3.5260      3.6616      3.8881      4.2294      4.7080      5.3476      6.1730      7.2047    
  8.4444      9.8558      11.349      12.782      13.983      14.783      23.504      22.979      21.510      19.364    
  16.849      14.225      11.754      9.6133      7.8720      6.5144      5.4817      4.7080      4.1386      3.7330    
  3.4588      3.2870      3.1895      3.1421      3.1282      3.1421      3.1895      3.2870      3.4589      3.7330    
  4.1386      4.7080      5.4817      6.5144      7.8720      9.6133      11.754      14.225      16.849      19.364    
  21.510      22.979      38.277      37.239      34.334      30.131      25.386      20.787      16.679      13.135    
  10.283      8.1134      6.5144      5.3476      4.4979      3.8852      3.4562      3.1719      2.9995      2.9102    
  2.8831      2.9102      2.9995      3.1719      3.4562      3.8852      4.4979      5.3476      6.5144      8.1134    
  10.283      13.135      16.679      20.787      25.386      30.131      34.334      37.239      62.392      60.611    
  55.565      48.105      39.479      31.033      23.794      18.103      13.643      10.283      7.8720      6.1730    
  4.9724      4.1199      3.5205      3.1147      2.8616      2.7277      2.6865      2.7277      2.8616      3.1147    
  3.5205      4.1199      4.9724      6.1730      7.8720      10.283      13.643      18.103      23.794      31.033    
  39.479      48.105      55.565      60.611      95.533      92.944      85.508      74.222      60.673      46.819    
  34.520      24.941      18.103      13.135      9.6133      7.2046      5.5632      4.4319      3.6467      3.1124    
  2.7746      2.5942      2.5386      2.5942      2.7746      3.1124      3.6467      4.4319      5.5632      7.2047    
  9.6133      13.135      18.103      24.941      34.520      46.819      60.673      74.222      85.508      92.944    
  134.27      130.95      121.32      106.42      87.926      68.124      49.600      34.520      23.794      16.679    
  11.754      8.4444      6.2618      4.8086      3.8231      3.1562      2.7322      2.5047      2.4347      2.5047    
  2.7322      3.1562      3.8231      4.8086      6.2618      8.4444      11.754      16.679      23.794      34.520    
  49.600      68.124      87.926      106.42      121.32      130.95      174.85      170.80      159.11      140.99    
  118.18      92.923      68.124      46.819      31.033      20.787      14.225      9.8558      7.0425      5.2292    
  4.0324      3.2326      2.7242      2.4507      2.3666      2.4507      2.7242      3.2326      4.0324      5.2292    
  7.0425      9.8558      14.225      20.787      31.033      46.819      68.124      92.923      118.18      140.99    
  159.11      170.80      215.84      210.75      196.37      174.75      148.00      118.18      87.926      60.673    
  39.479      25.386      16.849      11.349      7.8563      5.6633      4.2533      3.3259      2.7388      2.4225    
  2.3251      2.4225      2.7388      3.3259      4.2533      5.6633      7.8563      11.349      16.849      25.386    
  39.479      60.673      87.926      118.18      148.00      174.75      196.37      210.75      257.26      250.55    
  232.13      205.77      174.75      140.99      106.42      74.222      48.105      30.131      19.364      12.782    
  8.6299      6.0710      4.4617      3.4197      2.7641      2.4107      2.3016      2.4107      2.7641      3.4197    
  4.4617      6.0710      8.6299      12.782      19.364      30.131      48.105      74.222      106.42      140.99    
  174.75      205.77      232.13      250.55      296.60      287.82      264.29      232.13      196.37      159.11    
  121.32      85.508      55.565      34.334      21.510      13.983      9.2747      6.4074      4.6331      3.4992    
  2.7899      2.4074      2.2891      2.4074      2.7899      3.4992      4.6331      6.4074      9.2747      13.983    
  21.510      34.334      55.565      85.508      121.32      159.11      196.37      232.13      264.29      287.82    
  326.45      315.85      287.82      250.55      210.75      170.80      130.95      92.944      60.611      37.239    
  22.979      14.783      9.7043      6.6299      4.7460      3.5522      2.8085      2.4075      2.2832      2.4075    
  2.8085      3.5522      4.7460      6.6299      9.7043      14.783      22.979      37.239      60.611      92.944    
  130.95      170.80      210.75      250.55      287.82      315.85      327.04      316.40      288.27      250.90    
  211.02      171.01      131.12      93.080      60.703      37.291      23.002      14.793      9.7070      6.6284    
  4.7421      3.5470      2.8025      2.4011      2.2767      2.4011      2.8025      3.5470      4.7421      6.6284    
  9.7070      14.793      23.002      37.291      60.703      93.080      131.12      171.01      211.02      250.90    
  288.27      316.40      316.40      306.43      279.96      244.47      206.08      167.04      127.86      90.544    
  58.969      36.287      22.495      14.519      9.5604      6.5529      4.7041      3.5294      2.7965      2.4014    
  2.2790      2.4014      2.7965      3.5294      4.7041      6.5529      9.5604      14.519      22.495      36.287    
  58.969      90.544      127.86      167.04      206.08      244.47      279.96      306.43      288.27      279.96    
  257.61      226.77      192.08      155.56      118.40      83.267      54.063      33.478      21.074      13.740    
  9.1431      6.3371      4.5953      3.4792      2.7801      2.4033      2.2867      2.4033      2.7801      3.4792    
  4.5953      6.3371      9.1431      13.740      21.074      33.478      54.063      83.267      118.40      155.56    
  192.08      226.77      257.61      279.96      250.90      244.47      226.77      201.24      170.92      137.75    
  103.76      72.241      46.821      29.418      18.995      12.573      8.5166      6.0110      4.4304      3.4045    
  2.7583      2.4100      2.3026      2.4100      2.7583      3.4044      4.4304      6.0110      8.5166      12.573    
  18.995      29.418      46.821      72.241      103.76      137.75      170.92      201.24      226.77      244.47    
  211.02      206.08      192.08      170.92      144.64      115.31      85.638      59.038      38.464      24.835    
  16.547      11.178      7.7652      5.6163      4.2306      3.3174      2.7390      2.4274      2.3315      2.4274    
  2.7390      3.3174      4.2306      5.6163      7.7652      11.178      16.547      24.835      38.464      59.038    
  85.638      115.31      144.64      170.92      192.08      206.08      171.01      167.04      155.56      137.75    
  115.31      90.532      66.298      45.580      30.298      20.386      13.991      9.7261      6.9751      5.1971    
  4.0206      3.2334      2.7330      2.4639      2.3811      2.4639      2.7330      3.2334      4.0206      5.1971    
  6.9751      9.7261      13.991      20.386      30.298      45.580      66.298      90.532      115.31      137.75    
  155.56      167.04      131.12      127.86      118.40      103.76      85.638      66.298      48.280      33.672    
  23.303      16.391      11.585      8.3539      6.2183      4.7930      3.8247      3.1692      2.7528      2.5294    
  2.4607      2.5294      2.7528      3.1692      3.8247      4.7930      6.2183      8.3539      11.585      16.390    
  23.303      33.672      48.280      66.298      85.638      103.76      118.40      127.86      93.080      90.544    
  83.267      72.241      59.038      45.580      33.672      24.415      17.783      12.937      9.5021      7.1494    
  5.5432      4.4344      3.6645      3.1412      2.8108      2.6345      2.5803      2.6345      2.8108      3.1412    
  3.6645      4.4344      5.5432      7.1494      9.5021      12.937      17.783      24.415      33.672      45.580    
  59.038      72.241      83.267      90.544      60.703      58.969      54.063      46.821      38.464      30.298    
  23.303      17.783      13.434      10.159      7.8078      6.1487      4.9753      4.1423      3.5575      3.1627    
  2.9173      2.7878      2.7481      2.7878      2.9173      3.1627      3.5575      4.1423      4.9753      6.1487    
  7.8078      10.159      13.434      17.783      23.303      30.298      38.464      46.821      54.063      58.969    
  37.291      36.287      33.478      29.418      24.835      20.386      16.391      12.937      10.159      8.0459    
  6.4875      5.3506      4.5238      3.9294      3.5152      3.2425      3.0785      2.9942      2.9687      2.9942    
  3.0785      3.2425      3.5152      3.9293      4.5238      5.3506      6.4875      8.0459      10.159      12.937    
  16.390      20.386      24.835      29.418      33.478      36.287      23.002      22.495      21.074      18.995    
  16.547      13.991      11.585      9.5021      7.8078      6.4875      5.4847      4.7358      4.1877      3.8006    
  3.5422      3.3832      3.2950      3.2533      3.2413      3.2533      3.2950      3.3832      3.5422      3.8006    
  4.1877      4.7358      5.4847      6.4875      7.8078      9.5021      11.585      13.991      16.547      18.995    
  21.074      22.495      14.793      14.519      13.740      12.573      11.178      9.7261      8.3539      7.1494    
  6.1487      5.3506      4.7358      4.2801      3.9604      3.7536      3.6353      3.5794      3.5608      3.5585    
  3.5593      3.5585      3.5608      3.5794      3.6353      3.7536      3.9604      4.2801      4.7358      5.3506    
  6.1487      7.1494      8.3539      9.7261      11.178      12.573      13.740      14.519      9.7070      9.5604    
  9.1431      8.5166      7.7652      6.9751      6.2183      5.5432      4.9753      4.5238      4.1877      3.9604    
  3.8298      3.7782      3.7828      3.8188      3.8631      3.8972      3.9099      3.8972      3.8631      3.8188    
  3.7828      3.7782      3.8298      3.9604      4.1877      4.5238      4.9753      5.5432      6.2183      6.9751    
  7.7652      8.5166      9.1431      9.5604      6.6284      6.5529      6.3371      6.0110      5.6163      5.1971    
  4.7930      4.4344      4.1423      3.9294      3.8006      3.7536      3.7782      3.8567      3.9663      4.0825    
  4.1830      4.2505      4.2741      4.2505      4.1830      4.0825      3.9663      3.8567      3.7782      3.7536    
  3.8006      3.9293      4.1423      4.4344      4.7930      5.1971      5.6163      6.0110      6.3371      6.5529    
  4.7421      4.7041      4.5953      4.4304      4.2306      4.0206      3.8247      3.6645      3.5575      3.5152    
  3.5422      3.6353      3.7828      3.9663      4.1625      4.3470      4.4970      4.5945      4.6283      4.5945    
  4.4970      4.3470      4.1625      3.9663      3.7828      3.6353      3.5422      3.5152      3.5575      3.6645    
  3.8247      4.0206      4.2306      4.4304      4.5953      4.7041      3.5470      3.5294      3.4792      3.4045    
  3.3174      3.2334      3.1692      3.1412      3.1627      3.2425      3.3832      3.5794      3.8188      4.0825    
  4.3470      4.5871      4.7788      4.9025      4.9452      4.9025      4.7788      4.5871      4.3470      4.0825    
  3.8188      3.5794      3.3832      3.2425      3.1627      3.1412      3.1692      3.2334      3.3174      3.4044    
  3.4792      3.5294      2.8025      2.7965      2.7801      2.7583      2.7390      2.7330      2.7528      2.8108    
  2.9173      3.0785      3.2950      3.5608      3.8631      4.1830      4.4970      4.7788      5.0028      5.1472    
  5.1970      5.1472      5.0028      4.7788      4.4970      4.1830      3.8631      3.5608      3.2950      3.0785    
  2.9172      2.8108      2.7528      2.7330      2.7390      2.7583      2.7801      2.7965      2.4011      2.4014    
  2.4033      2.4100      2.4274      2.4639      2.5294      2.6345      2.7878      2.9942      3.2533      3.5585    
  3.8972      4.2505      4.5945      4.9025      5.1472      5.3049      5.3594      5.3049      5.1472      4.9025    
  4.5945      4.2505      3.8972      3.5585      3.2533      2.9942      2.7878      2.6345      2.5294      2.4639    
  2.4274      2.4100      2.4033      2.4014      2.2767      2.2790      2.2867      2.3026      2.3315      2.3811    
  2.4607      2.5803      2.7481      2.9687      3.2413      3.5593      3.9099      4.2741      4.6283      4.9452    
  5.1970      5.3594      5.4155      5.3594      5.1970      4.9452      4.6283      4.2741      3.9099      3.5593    
  3.2413      2.9687      2.7481      2.5803      2.4607      2.3811      2.3315      2.3026      2.2867      2.2790    
  2.4011      2.4014      2.4033      2.4100      2.4274      2.4639      2.5294      2.6345      2.7878      2.9942    
  3.2533      3.5585      3.8972      4.2505      4.5945      4.9025      5.1472      5.3049      5.3594      5.3049    
  5.1472      4.9025      4.5945      4.2505      3.8972      3.5585      3.2533      2.9942      2.7878      2.6345    
  2.5294      2.4639      2.4274      2.4100      2.4033      2.4014      2.8025      2.7965      2.7801      2.7583    
  2.7390      2.7330      2.7528      2.8108      2.9173      3.0785      3.2950      3.5608      3.8631      4.1830    
  4.4970      4.7788      5.0028      5.1472      5.1970      5.1472      5.0028      4.7788      4.4970      4.1830    
  3.8631      3.5608      3.2950      3.0785      2.9173      2.8108      2.7528      2.7330      2.7390      2.7583    
  2.7801      2.7965      3.5470      3.5294      3.4792      3.4044      3.3174      3.2334      3.1692      3.1412    
  3.1627      3.2425      3.3832      3.5794      3.8188      4.0825      4.3470      4.5871      4.7788      4.9025    
  4.9452      4.9025      4.7788      4.5871      4.3470      4.0825      3.8188      3.5794      3.3832      3.2425    
  3.1627      3.1412      3.1692      3.2334      3.3174      3.4045      3.4792      3.5294      4.7421      4.7041    
  4.5953      4.4304      4.2306      4.0206      3.8247      3.6645      3.5575      3.5152      3.5422      3.6353    
  3.7828      3.9663      4.1625      4.3470      4.4970      4.5945      4.6283      4.5945      4.4970      4.3470    
  4.1625      3.9663      3.7828      3.6353      3.5422      3.5152      3.5575      3.6645      3.8247      4.0206    
  4.2306      4.4304      4.5953      4.7041      6.6284      6.5529      6.3371      6.0110      5.6163      5.1971    
  4.7930      4.4344      4.1423      3.9293      3.8006      3.7536      3.7782      3.8567      3.9663      4.0825    
  4.1830      4.2505      4.2741      4.2505      4.1830      4.0825      3.9663      3.8567      3.7782      3.7536    
  3.8006      3.9294      4.1423      4.4344      4.7930      5.1971      5.6163      6.0110      6.3371      6.5529    
  9.7070      9.5604      9.1431      8.5166      7.7652      6.9751      6.2183      5.5432      4.9753      4.5238    
  4.1877      3.9604      3.8298      3.7782      3.7828      3.8188      3.8631      3.8972      3.9099      3.8972    
  3.8631      3.8188      3.7828      3.7782      3.8298      3.9604      4.1877      4.5238      4.9753      5.5432    
  6.2183      6.9751      7.7652      8.5166      9.1431      9.5604      14.793      14.519      13.740      12.573    
  11.178      9.7261      8.3539      7.1494      6.1487      5.3506      4.7358      4.2801      3.9604      3.7536    
  3.6353      3.5794      3.5608      3.5585      3.5593      3.5585      3.5608      3.5794      3.6353      3.7536    
  3.9604      4.2801      4.7358      5.3506      6.1487      7.1494      8.3539      9.7261      11.178      12.573    
  13.740      14.519      23.002      22.495      21.074      18.995      16.547      13.991      11.585      9.5021    
  7.8078      6.4875      5.4847      4.7358      4.1877      3.8006      3.5422      3.3832      3.2950      3.2533    
  3.2413      3.2533      3.2950      3.3832      3.5422      3.8006      4.1877      4.7358      5.4847      6.4875    
  7.8078      9.5021      11.585      13.991      16.547      18.995      21.074      22.495      37.291      36.287    
  33.478      29.418      24.835      20.386      16.390      12.937      10.159      8.0459      6.4875      5.3506    
  4.5238      3.9293      3.5152      3.2425      3.0785      2.9942      2.9687      2.9942      3.0785      3.2425    
  3.5152      3.9294      4.5238      5.3506      6.4875      8.0459      10.159      12.937      16.391      20.386    
  24.835      29.418      33.478      36.287      60.703      58.969      54.063      46.821      38.464      30.298    
  23.303      17.783      13.434      10.159      7.8078      6.1487      4.9753      4.1423      3.5575      3.1627    
  2.9172      2.7878      2.7481      2.7878      2.9173      3.1627      3.5575      4.1423      4.9753      6.1487    
  7.8078      10.159      13.434      17.783      23.303      30.298      38.464      46.821      54.063      58.969    
  93.080      90.544      83.267      72.241      59.038      45.580      33.672      24.415      17.783      12.937    
  9.5021      7.1494      5.5432      4.4344      3.6645      3.1412      2.8108      2.6345      2.5803      2.6345    
  2.8108      3.1412      3.6645      4.4344      5.5432      7.1494      9.5021      12.937      17.783      24.415    
  33.672      45.580      59.038      72.241      83.267      90.544      131.12      127.86      118.40      103.76    
  85.638      66.298      48.280      33.672      23.303      16.390      11.585      8.3539      6.2183      4.7930    
  3.8247      3.1692      2.7528      2.5294      2.4607      2.5294      2.7528      3.1692      3.8247      4.7930    
  6.2183      8.3539      11.585      16.391      23.303      33.672      48.280      66.298      85.638      103.76    
  118.40      127.86      171.01      167.04      155.56      137.75      115.31      90.532      66.298      45.580    
  30.298      20.386      13.991      9.7261      6.9751      5.1971      4.0206      3.2334      2.7330      2.4639    
  2.3811      2.4639      2.7330      3.2334      4.0206      5.1971      6.9751      9.7261      13.991      20.386    
  30.298      45.580      66.298      90.532      115.31      137.75      155.56      167.04      211.02      206.08    