Hg                                      
   1.00000000000000     
     4.103050    0.000000    0.000000
     0.000000    4.103050    0.000000
     0.000000    0.000000    3.548310
   Hg
     2
Direct
  0.000000  0.000000  0.000000
  0.500000  0.500000  0.500000
 
   36   36   32
 0.33778870598E+03 0.32645469672E+03 0.29659595592E+03 0.25726169972E+03 0.21583918624E+03
 0.17484658718E+03 0.13426813616E+03 0.95533431430E+02 0.62392067111E+02 0.38277021043E+02
 0.23503510899E+02 0.15064466783E+02 0.98552295901E+01 0.67078870045E+01 0.47853998145E+01
 0.35708301752E+01 0.28152254513E+01 0.24078044020E+01 0.22815224107E+01 0.24078044020E+01
 0.28152254513E+01 0.35708301752E+01 0.47853998145E+01 0.67078870045E+01 0.98552295901E+01
 0.15064466783E+02 0.23503510899E+02 0.38277021043E+02 0.62392067111E+02 0.95533431430E+02
 0.13426813616E+03 0.17484658718E+03 0.21583918624E+03 0.25726169972E+03 0.29659595592E+03
 0.32645469672E+03 0.32645469673E+03 0.31585417688E+03 0.28781580000E+03 0.25054750632E+03
 0.21075013737E+03 0.17079503308E+03 0.13094567127E+03 0.92943556059E+02 0.60610784055E+02
 0.37239113155E+02 0.22978891476E+02 0.14783127062E+02 0.97042721254E+01 0.66299476668E+01
 0.47459981011E+01 0.35522471722E+01 0.28084916194E+01 0.24074715026E+01 0.22832446028E+01
 0.24074714321E+01 0.28084914356E+01 0.35522468280E+01 0.47459975873E+01 0.66299470256E+01
 0.97042714297E+01 0.14783126378E+02 0.22978890827E+02 0.37239112510E+02 0.60610783366E+02
 0.92943555327E+02 0.13094567058E+03 0.17079503257E+03 0.21075013713E+03 0.25054750633E+03
 0.28781580013E+03 0.31585417699E+03 0.29659595596E+03 0.28781580003E+03 0.26428672158E+03
 0.23212685856E+03 0.19637363393E+03 0.15910566974E+03 0.12132316011E+03 0.85508156580E+02
 0.55564799206E+02 0.34334177064E+02 0.21509800797E+02 0.13982571726E+02 0.92746987364E+01
 0.64073884694E+01 0.46331412488E+01 0.34992495365E+01 0.27898723355E+01 0.24074266983E+01
 0.22891354721E+01 0.24074265689E+01 0.27898719979E+01 0.34992489019E+01 0.46331402954E+01
 0.64073872690E+01 0.92746974214E+01 0.13982570422E+02 0.21509799559E+02 0.34334175856E+02
 0.55564797951E+02 0.85508155276E+02 0.12132315889E+03 0.15910566881E+03 0.19637363343E+03
 0.23212685846E+03 0.26428672170E+03 0.28781580016E+03 0.25726169979E+03 0.25054750638E+03
 0.23212685858E+03 0.20576934759E+03 0.17474965447E+03 0.14099496776E+03 0.10642193247E+03
 0.74221822342E+02 0.48104677193E+02 0.30130867430E+02 0.19364206072E+02 0.12782487343E+02
 0.86298905048E+01 0.60709834461E+01 0.44617458756E+01 0.34197444783E+01 0.27640775873E+01
 0.24106748688E+01 0.23015875112E+01 0.24106747007E+01 0.27640771478E+01 0.34197436465E+01
 0.44617446116E+01 0.60709818316E+01 0.86298887076E+01 0.12782485536E+02 0.19364204353E+02
 0.30130865788E+02 0.48104675556E+02 0.74221820697E+02 0.10642193094E+03 0.14099496653E+03
 0.17474965370E+03 0.20576934724E+03 0.23212685850E+03 0.25054750639E+03 0.21583918630E+03
 0.21075013742E+03 0.19637363395E+03 0.17474965448E+03 0.14800389957E+03 0.11817977658E+03
 0.87925788766E+02 0.60673435907E+02 0.39479083697E+02 0.25386352676E+02 0.16848784707E+02
 0.11349243749E+02 0.78563130295E+01 0.56632804838E+01 0.42533497537E+01 0.33258511329E+01
 0.27387875033E+01 0.24225468121E+01 0.23251159624E+01 0.24225466294E+01 0.27387870230E+01
 0.33258502131E+01 0.42533483325E+01 0.56632786315E+01 0.78563109224E+01 0.11349241590E+02
 0.16848782637E+02 0.25386350732E+02 0.39479081838E+02 0.60673434108E+02 0.87925787087E+02
 0.11817977514E+03 0.14800389846E+03 0.17474965372E+03 0.19637363349E+03 0.21075013719E+03
 0.17484658721E+03 0.17079503309E+03 0.15910566974E+03 0.14099496775E+03 0.11817977657E+03
 0.92923207805E+02 0.68124042107E+02 0.46819036597E+02 0.31032640193E+02 0.20786599601E+02
 0.14224857760E+02 0.98558162953E+01 0.70425427981E+01 0.52292445003E+01 0.40324276885E+01
 0.32325648837E+01 0.27242188379E+01 0.24507264852E+01 0.23665697842E+01 0.24507263111E+01
 0.27242183742E+01 0.32325639787E+01 0.40324262575E+01 0.52292425861E+01 0.70425405606E+01
 0.98558139445E+01 0.14224855471E+02 0.20786597461E+02 0.31032638204E+02 0.46819034730E+02
 0.68124040357E+02 0.92923206199E+02 0.11817977515E+03 0.14099496656E+03 0.15910566885E+03
 0.17079503260E+03 0.13426813612E+03 0.13094567122E+03 0.12132316006E+03 0.10642193243E+03
 0.87925788736E+02 0.68124042092E+02 0.49599734802E+02 0.34520051043E+02 0.23793642815E+02
 0.16679171200E+02 0.11753951010E+02 0.84443972953E+01 0.62618104844E+01 0.48086104636E+01
 0.38230867936E+01 0.31561696187E+01 0.27321944614E+01 0.25046502307E+01 0.24346562574E+01
 0.25046500838E+01 0.27321940590E+01 0.31561688093E+01 0.38230854731E+01 0.48086086389E+01
 0.62618082805E+01 0.84443949059E+01 0.11753948623E+02 0.16679168938E+02 0.23793640722E+02
 0.34520049103E+02 0.49599732974E+02 0.68124040346E+02 0.87925787077E+02 0.10642193093E+03
 0.12132315888E+03 0.13094567056E+03 0.95533431325E+02 0.92943555949E+02 0.85508156478E+02
 0.74221822262E+02 0.60673435853E+02 0.46819036567E+02 0.34520051032E+02 0.24941026140E+02
 0.18103264825E+02 0.13134976514E+02 0.96133489129E+01 0.72046513152E+01 0.55632177851E+01
 0.44318897276E+01 0.36467214860E+01 0.31124424254E+01 0.27746244323E+01 0.25941594186E+01
 0.25386488977E+01 0.25941593100E+01 0.27746241184E+01 0.31124417626E+01 0.36467203583E+01
 0.44318881069E+01 0.55632157497E+01 0.72046490212E+01 0.96133465351E+01 0.13134974189E+02
 0.18103262626E+02 0.24941024080E+02 0.34520049083E+02 0.46819034695E+02 0.60673434063E+02
 0.74221820643E+02 0.85508155207E+02 0.92943555239E+02 0.62392066966E+02 0.60610783910E+02
 0.55564799077E+02 0.48104677092E+02 0.39479083630E+02 0.31032640156E+02 0.23793642800E+02
 0.18103264821E+02 0.13642718713E+02 0.10282707375E+02 0.78720390732E+01 0.61729782820E+01
 0.49723566403E+01 0.41199060391E+01 0.35204992220E+01 0.31147103272E+01 0.28616014665E+01
 0.27276551083E+01 0.26865319868E+01 0.27276550401E+01 0.28616012480E+01 0.31147098307E+01
 0.35204983297E+01 0.41199046945E+01 0.49723548722E+01 0.61729761931E+01 0.78720368014E+01
 0.10282705048E+02 0.13642716420E+02 0.18103262608E+02 0.23793640683E+02 0.31032638146E+02
 0.39479081764E+02 0.48104675464E+02 0.55564797841E+02 0.60610783235E+02 0.38277020904E+02
 0.37239113019E+02 0.34334176944E+02 0.30130867336E+02 0.25386352614E+02 0.20786599568E+02
 0.16679171187E+02 0.13134976512E+02 0.10282707376E+02 0.81134421124E+01 0.65143976388E+01
 0.53475819821E+01 0.44978587909E+01 0.38851532593E+01 0.34561680114E+01 0.31719253101E+01
 0.29995115859E+01 0.29102144050E+01 0.28830621404E+01 0.29102143687E+01 0.29995114495E+01
 0.31719249692E+01 0.34561673582E+01 0.38851522199E+01 0.44978573489E+01 0.53475801807E+01
 0.65143955621E+01 0.81134398589E+01 0.10282705036E+02 0.13134974160E+02 0.16679168890E+02
 0.20786597395E+02 0.25386350650E+02 0.30130865689E+02 0.34334175741E+02 0.37239112380E+02
 0.23503510805E+02 0.22978891384E+02 0.21509800716E+02 0.19364206009E+02 0.16848784667E+02
 0.14224857740E+02 0.11753951005E+02 0.96133489146E+01 0.78720390767E+01 0.65143976411E+01
 0.54816996330E+01 0.47079951345E+01 0.41386496513E+01 0.37329796563E+01 0.34588503970E+01
 0.32870159815E+01 0.31894975914E+01 0.31420626081E+01 0.31281973218E+01 0.31420625861E+01
 0.31894975054E+01 0.32870157582E+01 0.34588499501E+01 0.37329789082E+01 0.41386485514E+01
 0.47079936705E+01 0.54816978307E+01 0.65143955567E+01 0.78720367864E+01 0.96133465076E+01
 0.11753948583E+02 0.14224855418E+02 0.16848782574E+02 0.19364204280E+02 0.21509799477E+02
 0.22978890737E+02 0.15064466751E+02 0.14783127031E+02 0.13982571698E+02 0.12782487322E+02
 0.11349243737E+02 0.98558162929E+01 0.84443972999E+01 0.72046513230E+01 0.61729782898E+01
 0.53475819881E+01 0.47079951379E+01 0.42293578091E+01 0.38881294558E+01 0.36616388509E+01
 0.35260018110E+01 0.34558140433E+01 0.34264480808E+01 0.34175914824E+01 0.34161343316E+01
 0.34175914515E+01 0.34264480017E+01 0.34558138800E+01 0.35260015088E+01 0.36616383422E+01
 0.38881286716E+01 0.42293566955E+01 0.47079936695E+01 0.53475801762E+01 0.61729761831E+01
 0.72046490047E+01 0.84443948834E+01 0.98558139175E+01 0.11349241560E+02 0.12782485506E+02
 0.13982570391E+02 0.14783126347E+02 0.98552296119E+01 0.97042721457E+01 0.92746987541E+01
 0.86298905205E+01 0.78563130449E+01 0.70425428144E+01 0.62618105015E+01 0.55632178019E+01
 0.49723566554E+01 0.44978588033E+01 0.41386496606E+01 0.38881294612E+01 0.37348286079E+01
 0.36617733065E+01 0.36471141365E+01 0.36668591810E+01 0.36986553202E+01 0.37249930981E+01
 0.37349910965E+01 0.37249930364E+01 0.36986552047E+01 0.36668590152E+01 0.36471139036E+01
 0.36617729607E+01 0.37348280793E+01 0.38881286735E+01 0.41386485531E+01 0.44978573495E+01
 0.49723548715E+01 0.55632157481E+01 0.62618082792E+01 0.70425405614E+01 0.78563109272E+01
 0.86298887181E+01 0.92746974377E+01 0.97042714502E+01 0.67078870565E+01 0.66299477169E+01
 0.64073885149E+01 0.60709834863E+01 0.56632805197E+01 0.52292445333E+01 0.48086104944E+01
 0.44318897563E+01 0.41199060650E+01 0.38851532818E+01 0.37329796749E+01 0.36616388648E+01
 0.36617733144E+01 0.37167378544E+01 0.38047164352E+01 0.39023154388E+01 0.39883501524E+01
 0.40465964643E+01 0.40671172017E+01 0.40465963602E+01 0.39883499735E+01 0.39023152241E+01
 0.38047162058E+01 0.37167375933E+01 0.36617729652E+01 0.36616383485E+01 0.37329789149E+01
 0.38851522271E+01 0.41199047031E+01 0.44318881183E+01 0.48086086547E+01 0.52292426077E+01
 0.56632786603E+01 0.60709818685E+01 0.64073873137E+01 0.66299470758E+01 0.47853998738E+01
 0.47459981592E+01 0.46331413038E+01 0.44617459269E+01 0.42533498018E+01 0.40324277341E+01
 0.38230868373E+01 0.36467215275E+01 0.35204992605E+01 0.34561680462E+01 0.34588504273E+01
 0.35260018356E+01 0.36471141543E+01 0.38047164446E+01 0.39767753802E+01 0.41400086396E+01
 0.42732458681E+01 0.43600299119E+01 0.43901103390E+01 0.43600297704E+01 0.42732456282E+01
 0.41400083649E+01 0.39767751214E+01 0.38047162130E+01 0.36471139152E+01 0.35260015220E+01
 0.34588499635E+01 0.34561673719E+01 0.35204983454E+01 0.36467203781E+01 0.38230854985E+01
 0.40324262897E+01 0.42533483719E+01 0.44617446582E+01 0.46331403483E+01 0.47459976448E+01
 0.35708302268E+01 0.35522472243E+01 0.34992495886E+01 0.34197445305E+01 0.33258511854E+01
 0.32325649366E+01 0.31561696713E+01 0.31124424768E+01 0.31147103763E+01 0.31719253559E+01
 0.32870160230E+01 0.34558140790E+01 0.36668592093E+01 0.39023154581E+01 0.41400086490E+01
 0.43562617864E+01 0.45289594818E+01 0.46402749988E+01 0.46787029640E+01 0.46402748431E+01
 0.45289592169E+01 0.43562614841E+01 0.41400083736E+01 0.39023152402E+01 0.36668590358E+01
 0.34558139017E+01 0.32870157792E+01 0.31719249894E+01 0.31147098518E+01 0.31124417868E+01
 0.31561688384E+01 0.32325640133E+01 0.33258502529E+01 0.34197436907E+01 0.34992489497E+01
 0.35522468782E+01 0.28152254896E+01 0.28084916596E+01 0.27898723787E+01 0.27640776342E+01
 0.27387875540E+01 0.27242188915E+01 0.27321945164E+01 0.27746244873E+01 0.28616015203E+01
 0.29995116378E+01 0.31894976402E+01 0.34264481248E+01 0.36986553572E+01 0.39883501803E+01
 0.42732458856E+01 0.45289594896E+01 0.47319457850E+01 0.48625238710E+01 0.49075851028E+01
 0.48625237364E+01 0.47319455546E+01 0.45289592248E+01 0.42732456451E+01 0.39883499984E+01
 0.36986552345E+01 0.34264480327E+01 0.31894975350E+01 0.29995114770E+01 0.28616012747E+01
 0.27746241465E+01 0.27321940900E+01 0.27242184084E+01 0.27387870594E+01 0.27640771852E+01
 0.27898720354E+01 0.28084914732E+01 0.24078044288E+01 0.24074715317E+01 0.24074267318E+01
 0.24106749080E+01 0.24225468567E+01 0.24507265338E+01 0.25046502814E+01 0.25941594700E+01
 0.27276551597E+01 0.29102144562E+01 0.31420626584E+01 0.34175915299E+01 0.37249931399E+01
 0.40465964976E+01 0.43600299349E+01 0.46402750118E+01 0.48625238760E+01 0.50055325714E+01
 0.50549032740E+01 0.50055324931E+01 0.48625237415E+01 0.46402748562E+01 0.43600297930E+01
 0.40465963917E+01 0.37249930739E+01 0.34175914911E+01 0.31420626246E+01 0.29102144048E+01
 0.27276550745E+01 0.25941593444E+01 0.25046501191E+01 0.24507263469E+01 0.24225466643E+01
 0.24106747332E+01 0.24074265983E+01 0.24074714593E+01 0.22815224330E+01 0.22832446267E+01
 0.22891355000E+01 0.23015875444E+01 0.23251160005E+01 0.23665698255E+01 0.24346563001E+01
 0.25386489408E+01 0.26865320304E+01 0.28830621853E+01 0.31281973680E+01 0.34161343773E+01
 0.37349911384E+01 0.40671172363E+01 0.43901103637E+01 0.46787029788E+01 0.49075851096E+01
 0.50549032757E+01 0.51057719271E+01 0.50549032757E+01 0.49075851096E+01 0.46787029788E+01
 0.43901103637E+01 0.40671172363E+01 0.37349911384E+01 0.34161343773E+01 0.31281973680E+01
 0.28830621853E+01 0.26865320304E+01 0.25386489408E+01 0.24346563001E+01 0.23665698255E+01
 0.23251160005E+01 0.23015875444E+01 0.22891355000E+01 0.22832446267E+01 0.24078044288E+01
 0.24074714593E+01 0.24074265983E+01 0.24106747332E+01 0.24225466643E+01 0.24507263469E+01
 0.25046501191E+01 0.25941593444E+01 0.27276550745E+01 0.29102144048E+01 0.31420626246E+01
 0.34175914911E+01 0.37249930739E+01 0.40465963917E+01 0.43600297930E+01 0.46402748562E+01
 0.48625237415E+01 0.50055324931E+01 0.50549032740E+01 0.50055325714E+01 0.48625238760E+01
 0.46402750118E+01 0.43600299349E+01 0.40465964976E+01 0.37249931399E+01 0.34175915299E+01
 0.31420626584E+01 0.29102144562E+01 0.27276551597E+01 0.25941594700E+01 0.25046502814E+01
 0.24507265338E+01 0.24225468567E+01 0.24106749080E+01 0.24074267318E+01 0.24074715317E+01
 0.28152254896E+01 0.28084914732E+01 0.27898720354E+01 0.27640771852E+01 0.27387870594E+01
 0.27242184084E+01 0.27321940900E+01 0.27746241465E+01 0.28616012747E+01 0.29995114770E+01
 0.31894975350E+01 0.34264480327E+01 0.36986552345E+01 0.39883499984E+01 0.42732456451E+01
 0.45289592248E+01 0.47319455546E+01 0.48625237364E+01 0.49075851028E+01 0.48625238710E+01
 0.47319457850E+01 0.45289594896E+01 0.42732458856E+01 0.39883501803E+01 0.36986553572E+01
 0.34264481248E+01 0.31894976402E+01 0.29995116378E+01 0.28616015203E+01 0.27746244873E+01
 0.27321945164E+01 0.27242188915E+01 0.27387875540E+01 0.27640776342E+01 0.27898723787E+01
 0.28084916596E+01 0.35708302268E+01 0.35522468782E+01 0.34992489497E+01 0.34197436907E+01
 0.33258502529E+01 0.32325640133E+01 0.31561688384E+01 0.31124417868E+01 0.31147098518E+01
 0.31719249894E+01 0.32870157792E+01 0.34558139017E+01 0.36668590358E+01 0.39023152402E+01
 0.41400083736E+01 0.43562614841E+01 0.45289592169E+01 0.46402748431E+01 0.46787029640E+01
 0.46402749988E+01 0.45289594818E+01 0.43562617864E+01 0.41400086490E+01 0.39023154581E+01
 0.36668592093E+01 0.34558140790E+01 0.32870160230E+01 0.31719253559E+01 0.31147103763E+01
 0.31124424768E+01 0.31561696713E+01 0.32325649366E+01 0.33258511854E+01 0.34197445305E+01
 0.34992495886E+01 0.35522472243E+01 0.47853998738E+01 0.47459976448E+01 0.46331403483E+01
 0.44617446582E+01 0.42533483719E+01 0.40324262897E+01 0.38230854985E+01 0.36467203781E+01
 0.35204983454E+01 0.34561673719E+01 0.34588499635E+01 0.35260015220E+01 0.36471139152E+01
 0.38047162130E+01 0.39767751214E+01 0.41400083649E+01 0.42732456282E+01 0.43600297704E+01
 0.43901103390E+01 0.43600299119E+01 0.42732458681E+01 0.41400086396E+01 0.39767753802E+01
 0.38047164446E+01 0.36471141543E+01 0.35260018356E+01 0.34588504273E+01 0.34561680462E+01
 0.35204992605E+01 0.36467215275E+01 0.38230868373E+01 0.40324277341E+01 0.42533498018E+01
 0.44617459269E+01 0.46331413038E+01 0.47459981592E+01 0.67078870565E+01 0.66299470758E+01
 0.64073873137E+01 0.60709818685E+01 0.56632786603E+01 0.52292426077E+01 0.48086086547E+01
 0.44318881183E+01 0.41199047031E+01 0.38851522271E+01 0.37329789149E+01 0.36616383485E+01
 0.36617729652E+01 0.37167375933E+01 0.38047162058E+01 0.39023152241E+01 0.39883499735E+01
 0.40465963602E+01 0.40671172017E+01 0.40465964643E+01 0.39883501524E+01 0.39023154388E+01
 0.38047164352E+01 0.37167378544E+01 0.36617733144E+01 0.36616388648E+01 0.37329796749E+01
 0.38851532818E+01 0.41199060650E+01 0.44318897563E+01 0.48086104944E+01 0.52292445333E+01
 0.56632805197E+01 0.60709834863E+01 0.64073885149E+01 0.66299477169E+01 0.98552296119E+01
 0.97042714502E+01 0.92746974377E+01 0.86298887181E+01 0.78563109272E+01 0.70425405614E+01
 0.62618082792E+01 0.55632157481E+01 0.49723548715E+01 0.44978573495E+01 0.41386485531E+01
 0.38881286735E+01 0.37348280793E+01 0.36617729607E+01 0.36471139036E+01 0.36668590152E+01
 0.36986552047E+01 0.37249930364E+01 0.37349910965E+01 0.37249930981E+01 0.36986553202E+01
 0.36668591810E+01 0.36471141365E+01 0.36617733065E+01 0.37348286079E+01 0.38881294612E+01
 0.41386496606E+01 0.44978588033E+01 0.49723566554E+01 0.55632178019E+01 0.62618105015E+01
 0.70425428144E+01 0.78563130449E+01 0.86298905205E+01 0.92746987541E+01 0.97042721457E+01
 0.15064466751E+02 0.14783126347E+02 0.13982570391E+02 0.12782485506E+02 0.11349241560E+02
 0.98558139175E+01 0.84443948834E+01 0.72046490047E+01 0.61729761831E+01 0.53475801762E+01
 0.47079936695E+01 0.42293566955E+01 0.38881286716E+01 0.36616383422E+01 0.35260015088E+01
 0.34558138800E+01 0.34264480017E+01 0.34175914515E+01 0.34161343316E+01 0.34175914824E+01
 0.34264480808E+01 0.34558140433E+01 0.35260018110E+01 0.36616388509E+01 0.38881294558E+01
 0.42293578091E+01 0.47079951379E+01 0.53475819881E+01 0.61729782898E+01 0.72046513230E+01
 0.84443972999E+01 0.98558162929E+01 0.11349243737E+02 0.12782487322E+02 0.13982571698E+02
 0.14783127031E+02 0.23503510805E+02 0.22978890737E+02 0.21509799477E+02 0.19364204280E+02
 0.16848782574E+02 0.14224855418E+02 0.11753948583E+02 0.96133465076E+01 0.78720367864E+01
 0.65143955567E+01 0.54816978307E+01 0.47079936705E+01 0.41386485514E+01 0.37329789082E+01
 0.34588499501E+01 0.32870157582E+01 0.31894975054E+01 0.31420625861E+01 0.31281973218E+01
 0.31420626081E+01 0.31894975914E+01 0.32870159815E+01 0.34588503970E+01 0.37329796563E+01
 0.41386496513E+01 0.47079951345E+01 0.54816996330E+01 0.65143976411E+01 0.78720390767E+01
 0.96133489146E+01 0.11753951005E+02 0.14224857740E+02 0.16848784667E+02 0.19364206009E+02
 0.21509800716E+02 0.22978891384E+02 0.38277020904E+02 0.37239112380E+02 0.34334175741E+02
 0.30130865689E+02 0.25386350650E+02 0.20786597395E+02 0.16679168890E+02 0.13134974160E+02
 0.10282705036E+02 0.81134398589E+01 0.65143955621E+01 0.53475801807E+01 0.44978573489E+01
 0.38851522199E+01 0.34561673582E+01 0.31719249692E+01 0.29995114495E+01 0.29102143687E+01
 0.28830621404E+01 0.29102144050E+01 0.29995115859E+01 0.31719253101E+01 0.34561680114E+01
 0.38851532593E+01 0.44978587909E+01 0.53475819821E+01 0.65143976388E+01 0.81134421124E+01
 0.10282707376E+02 0.13134976512E+02 0.16679171187E+02 0.20786599568E+02 0.25386352614E+02
 0.30130867336E+02 0.34334176944E+02 0.37239113019E+02 0.62392066966E+02 0.60610783235E+02
 0.55564797841E+02 0.48104675464E+02 0.39479081764E+02 0.31032638146E+02 0.23793640683E+02
 0.18103262608E+02 0.13642716420E+02 0.10282705048E+02 0.78720368014E+01 0.61729761931E+01
 0.49723548722E+01 0.41199046945E+01 0.35204983297E+01 0.31147098307E+01 0.28616012480E+01
 0.27276550401E+01 0.26865319868E+01 0.27276551083E+01 0.28616014665E+01 0.31147103272E+01
 0.35204992220E+01 0.41199060391E+01 0.49723566403E+01 0.61729782820E+01 0.78720390732E+01
 0.10282707375E+02 0.13642718713E+02 0.18103264821E+02 0.23793642800E+02 0.31032640156E+02
 0.39479083630E+02 0.48104677092E+02 0.55564799077E+02 0.60610783910E+02 0.95533431325E+02
 0.92943555239E+02 0.85508155207E+02 0.74221820643E+02 0.60673434063E+02 0.46819034695E+02
 0.34520049083E+02 0.24941024080E+02 0.18103262626E+02 0.13134974189E+02 0.96133465351E+01
 0.72046490212E+01 0.55632157497E+01 0.44318881069E+01 0.36467203583E+01 0.31124417626E+01
 0.27746241184E+01 0.25941593100E+01 0.25386488977E+01 0.25941594186E+01 0.27746244323E+01
 0.31124424254E+01 0.36467214860E+01 0.44318897276E+01 0.55632177851E+01 0.72046513152E+01
 0.96133489129E+01 0.13134976514E+02 0.18103264825E+02 0.24941026140E+02 0.34520051032E+02
 0.46819036567E+02 0.60673435853E+02 0.74221822262E+02 0.85508156478E+02 0.92943555949E+02
 0.13426813612E+03 0.13094567056E+03 0.12132315888E+03 0.10642193093E+03 0.87925787077E+02
 0.68124040346E+02 0.49599732974E+02 0.34520049103E+02 0.23793640722E+02 0.16679168938E+02
 0.11753948623E+02 0.84443949059E+01 0.62618082805E+01 0.48086086389E+01 0.38230854731E+01
 0.31561688093E+01 0.27321940590E+01 0.25046500838E+01 0.24346562574E+01 0.25046502307E+01
 0.27321944614E+01 0.31561696187E+01 0.38230867936E+01 0.48086104636E+01 0.62618104844E+01
 0.84443972953E+01 0.11753951010E+02 0.16679171200E+02 0.23793642815E+02 0.34520051043E+02
 0.49599734802E+02 0.68124042092E+02 0.87925788736E+02 0.10642193243E+03 0.12132316006E+03
 0.13094567122E+03 0.17484658721E+03 0.17079503260E+03 0.15910566885E+03 0.14099496656E+03
 0.11817977515E+03 0.92923206199E+02 0.68124040357E+02 0.46819034730E+02 0.31032638204E+02
 0.20786597461E+02 0.14224855471E+02 0.98558139445E+01 0.70425405606E+01 0.52292425861E+01
 0.40324262575E+01 0.32325639787E+01 0.27242183742E+01 0.24507263111E+01 0.23665697842E+01
 0.24507264852E+01 0.27242188379E+01 0.32325648837E+01 0.40324276885E+01 0.52292445003E+01
 0.70425427981E+01 0.98558162953E+01 0.14224857760E+02 0.20786599601E+02 0.31032640193E+02
 0.46819036597E+02 0.68124042107E+02 0.92923207805E+02 0.11817977657E+03 0.14099496775E+03
 0.15910566974E+03 0.17079503309E+03 0.21583918630E+03 0.21075013719E+03 0.19637363349E+03
 0.17474965372E+03 0.14800389846E+03 0.11817977514E+03 0.87925787087E+02 0.60673434108E+02
 0.39479081838E+02 0.25386350732E+02 0.16848782637E+02 0.11349241590E+02 0.78563109224E+01
 0.56632786315E+01 0.42533483325E+01 0.33258502131E+01 0.27387870230E+01 0.24225466294E+01
 0.23251159624E+01 0.24225468121E+01 0.27387875033E+01 0.33258511329E+01 0.42533497537E+01
 0.56632804838E+01 0.78563130295E+01 0.11349243749E+02 0.16848784707E+02 0.25386352676E+02
 0.39479083697E+02 0.60673435907E+02 0.87925788766E+02 0.11817977658E+03 0.14800389957E+03
 0.17474965448E+03 0.19637363395E+03 0.21075013742E+03 0.25726169979E+03 0.25054750639E+03
 0.23212685850E+03 0.20576934724E+03 0.17474965370E+03 0.14099496653E+03 0.10642193094E+03
 0.74221820697E+02 0.48104675556E+02 0.30130865788E+02 0.19364204353E+02 0.12782485536E+02
 0.86298887076E+01 0.60709818316E+01 0.44617446116E+01 0.34197436465E+01 0.27640771478E+01
 0.24106747007E+01 0.23015875112E+01 0.24106748688E+01 0.27640775873E+01 0.34197444783E+01
 0.44617458756E+01 0.60709834461E+01 0.86298905048E+01 0.12782487343E+02 0.19364206072E+02
 0.30130867430E+02 0.48104677193E+02 0.74221822342E+02 0.10642193247E+03 0.14099496776E+03
 0.17474965447E+03 0.20576934759E+03 0.23212685858E+03 0.25054750638E+03 0.29659595596E+03
 0.28781580016E+03 0.26428672170E+03 0.23212685846E+03 0.19637363343E+03 0.15910566881E+03
 0.12132315889E+03 0.85508155276E+02 0.55564797951E+02 0.34334175856E+02 0.21509799559E+02
 0.13982570422E+02 0.92746974214E+01 0.64073872690E+01 0.46331402954E+01 0.34992489019E+01
 0.27898719979E+01 0.24074265689E+01 0.22891354721E+01 0.24074266983E+01 0.27898723355E+01
 0.34992495365E+01 0.46331412488E+01 0.64073884694E+01 0.92746987364E+01 0.13982571726E+02
 0.21509800797E+02 0.34334177064E+02 0.55564799206E+02 0.85508156580E+02 0.12132316011E+03
 0.15910566974E+03 0.19637363393E+03 0.23212685856E+03 0.26428672158E+03 0.28781580003E+03
 0.32645469673E+03 0.31585417699E+03 0.28781580013E+03 0.25054750633E+03 0.21075013713E+03
 0.17079503257E+03 0.13094567058E+03 0.92943555327E+02 0.60610783366E+02 0.37239112510E+02
 0.22978890827E+02 0.14783126378E+02 0.97042714297E+01 0.66299470256E+01 0.47459975873E+01
 0.35522468280E+01 0.28084914356E+01 0.24074714321E+01 0.22832446028E+01 0.24074715026E+01
 0.28084916194E+01 0.35522471722E+01 0.47459981011E+01 0.66299476668E+01 0.97042721254E+01
 0.14783127062E+02 0.22978891476E+02 0.37239113155E+02 0.60610784055E+02 0.92943556059E+02
 0.13094567127E+03 0.17079503308E+03 0.21075013737E+03 0.25054750632E+03 0.28781580000E+03
 0.31585417688E+03 0.32703603286E+03 0.31639870769E+03 0.28826913658E+03 0.25089758821E+03
 0.21101892376E+03 0.17101098458E+03 0.13112265687E+03 0.93080097011E+02 0.60702778634E+02
 0.37290552136E+02 0.23002475535E+02 0.14793316577E+02 0.97070308271E+01 0.66284255151E+01
 0.47421203686E+01 0.35470406033E+01 0.28025145005E+01 0.24010849084E+01 0.22767297750E+01
 0.24010848781E+01 0.28025143516E+01 0.35470402462E+01 0.47421198144E+01 0.66284249113E+01
 0.97070303998E+01 0.14793316512E+02 0.23002475868E+02 0.37290552712E+02 0.60702779191E+02
 0.93080097348E+02 0.13112265699E+03 0.17101098469E+03 0.21101892410E+03 0.25089758886E+03
 0.28826913732E+03 0.31639870820E+03 0.31639870770E+03 0.30643128654E+03 0.27996261248E+03
 0.24447384331E+03 0.20607958948E+03 0.16703613536E+03 0.12785549692E+03 0.90543527361E+02
 0.58969392112E+02 0.36286682410E+02 0.22495410069E+02 0.14519491552E+02 0.95603845317E+01
 0.65528559324E+01 0.47041129366E+01 0.35294052081E+01 0.27965168426E+01 0.24013729767E+01
 0.22790313576E+01 0.24013728814E+01 0.27965165232E+01 0.35294045299E+01 0.47041119005E+01
 0.65528547229E+01 0.95603834399E+01 0.14519490822E+02 0.22495409757E+02 0.36286682338E+02
 0.58969391986E+02 0.90543526997E+02 0.12785549641E+03 0.16703613505E+03 0.20607958966E+03
 0.24447384402E+03 0.27996261339E+03 0.30643128717E+03 0.28826913661E+03 0.27996261250E+03
 0.25760512043E+03 0.22677220531E+03 0.19208129204E+03 0.15555516055E+03 0.11839630900E+03
 0.83267195850E+02 0.54063103330E+02 0.33478341488E+02 0.21074441956E+02 0.13740407249E+02
 0.91430540202E+01 0.63370674908E+01 0.45953118685E+01 0.34792327973E+01 0.27801457278E+01
 0.24032643090E+01 0.22867462126E+01 0.24032641634E+01 0.27801452782E+01 0.34792318734E+01
 0.45953104556E+01 0.63370657893E+01 0.91430523598E+01 0.13740405916E+02 0.21074441030E+02
 0.33478340800E+02 0.54063102587E+02 0.83267194890E+02 0.11839630797E+03 0.15555515983E+03
 0.19208129195E+03 0.22677220587E+03 0.25760512128E+03 0.27996261311E+03 0.25089758825E+03
 0.24447384334E+03 0.22677220532E+03 0.20123941425E+03 0.17092132930E+03 0.13774575253E+03
 0.10376311400E+03 0.72240980765E+02 0.46820756866E+02 0.29417652002E+02 0.18994850812E+02
 0.12572730631E+02 0.85165997669E+01 0.60109977029E+01 0.44303663592E+01 0.34044507850E+01
 0.27582782974E+01 0.24100162844E+01 0.23025513700E+01 0.24100161108E+01 0.27582777772E+01
 0.34044497245E+01 0.44303647219E+01 0.60109956788E+01 0.85165976911E+01 0.12572728811E+02
 0.18994849364E+02 0.29417650799E+02 0.46820755653E+02 0.72240979398E+02 0.10376311261E+03
 0.13774575145E+03 0.17092132884E+03 0.20123941442E+03 0.22677220582E+03 0.24447384374E+03
 0.21101892379E+03 0.20607958950E+03 0.19208129205E+03 0.17092132930E+03 0.14464216553E+03
 0.11531232347E+03 0.85638289627E+02 0.59038354363E+02 0.38464197743E+02 0.24835434808E+02
 0.16546576904E+02 0.11178496245E+02 0.77651559035E+01 0.56162565058E+01 0.42306341825E+01
 0.33173667113E+01 0.27389646647E+01 0.24274337164E+01 0.23314752898E+01 0.24274335395E+01
 0.27389641381E+01 0.33173656315E+01 0.42306324869E+01 0.56162543486E+01 0.77651535936E+01
 0.11178494090E+02 0.16546575058E+02 0.24835433213E+02 0.38464196209E+02 0.59038352757E+02
 0.85638288016E+02 0.11531232208E+03 0.14464216460E+03 0.17092132887E+03 0.19208129196E+03
 0.20607958954E+03 0.17101098457E+03 0.16703613535E+03 0.15555516054E+03 0.13774575252E+03
 0.11531232346E+03 0.90532297154E+02 0.66297975964E+02 0.45580380414E+02 0.30297812768E+02
 0.20386023091E+02 0.13990659105E+02 0.97260611759E+01 0.69751474379E+01 0.51971133190E+01
 0.40206350914E+01 0.32333676719E+01 0.27329807411E+01 0.24638554252E+01 0.23810578605E+01
 0.24638552662E+01 0.27329802628E+01 0.32333666736E+01 0.40206334836E+01 0.51971112036E+01
 0.69751450719E+01 0.97260588468E+01 0.13990656995E+02 0.20386021212E+02 0.30297811007E+02
 0.45580378653E+02 0.66297974189E+02 0.90532295472E+02 0.11531232202E+03 0.13774575141E+03
 0.15555515980E+03 0.16703613498E+03 0.13112265680E+03 0.12785549685E+03 0.11839630895E+03
 0.10376311397E+03 0.85638289610E+02 0.66297975958E+02 0.48279712241E+02 0.33672253877E+02
 0.23303348682E+02 0.16390500928E+02 0.11585239711E+02 0.83538572072E+01 0.62183288832E+01
 0.47929866591E+01 0.38247124585E+01 0.31692295753E+01 0.27527705387E+01 0.25294141244E+01
 0.24607302919E+01 0.25294139972E+01 0.27527701439E+01 0.31692287253E+01 0.38247110421E+01
 0.47929847204E+01 0.62183266113E+01 0.83538548485E+01 0.11585237458E+02 0.16390498847E+02
 0.23303346729E+02 0.33672251955E+02 0.48279710288E+02 0.66297973985E+02 0.85638287706E+02
 0.10376311228E+03 0.11839630766E+03 0.12785549614E+03 0.93080096893E+02 0.90543527240E+02
 0.83267195750E+02 0.72240980697E+02 0.59038354326E+02 0.45580380399E+02 0.33672253873E+02
 0.24414823311E+02 0.17783263697E+02 0.12937166551E+02 0.95020533855E+01 0.71494150409E+01
 0.55431709885E+01 0.44343977245E+01 0.36645495463E+01 0.31411544849E+01 0.28107523463E+01
 0.26345087638E+01 0.25803396242E+01 0.26345086716E+01 0.28107520459E+01 0.31411538099E+01
 0.36645483742E+01 0.44343960469E+01 0.55431689214E+01 0.71494127724E+01 0.95020510923E+01
 0.12937164331E+02 0.17783261554E+02 0.24414821186E+02 0.33672251699E+02 0.45580378156E+02
 0.59038352085E+02 0.72240978638E+02 0.83267194137E+02 0.90543526346E+02 0.60702778487E+02
 0.58969391964E+02 0.54063103204E+02 0.46820756777E+02 0.38464197692E+02 0.30297812746E+02
 0.23303348676E+02 0.17783263697E+02 0.13434140882E+02 0.10159122359E+02 0.78078133115E+01
 0.61486982058E+01 0.49753230779E+01 0.41423316841E+01 0.35574879408E+01 0.31626650516E+01
 0.29172502755E+01 0.27877914925E+01 0.27481240981E+01 0.27877914277E+01 0.29172500562E+01
 0.31626645404E+01 0.35574870177E+01 0.41423303021E+01 0.49753212844E+01 0.61486961199E+01
 0.78078110703E+01 0.10159120062E+02 0.13434138566E+02 0.17783261345E+02 0.23303346255E+02
 0.30297810259E+02 0.38464195230E+02 0.46820754536E+02 0.54063101464E+02 0.58969391005E+02
 0.37290551999E+02 0.36286682273E+02 0.33478341369E+02 0.29417651915E+02 0.24835434756E+02
 0.20386023067E+02 0.16390500921E+02 0.12937166551E+02 0.10159122359E+02 0.80458697487E+01