   2   2   0   0
  0.2986793E+02  0.4103050E-09  0.4103050E-09  0.3548310E-09  0.5000000E-15
  1.000000000000000E-004
  CAR 
 Hg                                      
     22.68605534     -7.75000494  301      0.99043728      1.00000000
     -7.750  0.0000E+00  0.0000E+00
     -7.649  0.0000E+00  0.0000E+00
     -7.547  0.0000E+00  0.0000E+00
     -7.446  0.0000E+00  0.0000E+00
     -7.344  0.0000E+00  0.0000E+00
     -7.243  0.0000E+00  0.0000E+00
     -7.141  0.0000E+00  0.0000E+00
     -7.040  0.0000E+00  0.0000E+00
     -6.938  0.0000E+00  0.0000E+00
     -6.837  0.0000E+00  0.0000E+00
     -6.735  0.0000E+00  0.0000E+00
     -6.634  0.1840E-14  0.1867E-15
     -6.533  0.2077E-06  0.2108E-07
     -6.431  0.2223E-01  0.2256E-02
     -6.330  0.7828E+01  0.7964E+00
     -6.228  0.4850E+02  0.5717E+01
     -6.127  0.2221E+02  0.7970E+01
     -6.025  0.4922E+00  0.8020E+01
     -5.924  0.1070E+00  0.8031E+01
     -5.822  0.3528E+00  0.8066E+01
     -5.721  0.1449E+00  0.8081E+01
     -5.619  0.2864E+00  0.8110E+01
     -5.518  0.1119E+00  0.8121E+01
     -5.417  0.3578E+00  0.8158E+01
     -5.315  0.4351E+00  0.8202E+01
     -5.214  0.7549E+00  0.8278E+01
     -5.112  0.3170E+00  0.8311E+01
     -5.011  0.2782E+00  0.8339E+01
     -4.909  0.8573E+00  0.8426E+01
     -4.808  0.1724E+01  0.8601E+01
     -4.706  0.4981E+01  0.9106E+01
     -4.605  0.2078E+02  0.1121E+02
     -4.503  0.1266E+02  0.1250E+02
     -4.402  0.1920E+02  0.1445E+02
     -4.301  0.1719E+02  0.1619E+02
     -4.199  0.8841E+01  0.1709E+02
     -4.098  0.1288E+02  0.1839E+02
     -3.996  0.1239E+02  0.1965E+02
     -3.895  0.6516E+01  0.2031E+02
     -3.793  0.2379E+01  0.2055E+02
     -3.692  0.5042E+00  0.2060E+02
     -3.590  0.5392E+00  0.2066E+02
     -3.489  0.5568E+00  0.2072E+02
     -3.388  0.7080E+00  0.2079E+02
     -3.286  0.9041E+00  0.2088E+02
     -3.185  0.6106E+00  0.2094E+02
     -3.083  0.5975E+00  0.2100E+02
     -2.982  0.5675E+00  0.2106E+02
     -2.880  0.5811E+00  0.2112E+02
     -2.779  0.4205E+00  0.2116E+02
     -2.677  0.4044E+00  0.2120E+02
     -2.576  0.5693E+00  0.2126E+02
     -2.474  0.6253E+00  0.2132E+02
     -2.373  0.7954E+00  0.2140E+02
     -2.272  0.1036E+01  0.2151E+02
     -2.170  0.7112E+00  0.2158E+02
     -2.069  0.3169E+00  0.2161E+02
     -1.967  0.4532E+00  0.2166E+02
     -1.866  0.2213E+00  0.2168E+02
     -1.764  0.1832E+01  0.2187E+02
     -1.663  0.6469E+00  0.2193E+02
     -1.561  0.1496E+01  0.2209E+02
     -1.460  0.1299E+00  0.2210E+02
     -1.358  0.3463E+00  0.2213E+02
     -1.257  0.4987E+00  0.2218E+02
     -1.156  0.1656E+01  0.2235E+02
     -1.054  0.1063E+01  0.2246E+02
     -0.953  0.9848E+00  0.2256E+02
     -0.851  0.1210E+01  0.2268E+02
     -0.750  0.6383E+00  0.2275E+02
     -0.648  0.6301E+00  0.2281E+02
     -0.547  0.6221E+00  0.2287E+02
     -0.445  0.1363E+01  0.2301E+02
     -0.344  0.7379E+00  0.2309E+02
     -0.242  0.9832E+00  0.2319E+02
     -0.141  0.2172E+01  0.2341E+02
     -0.040  0.1766E+01  0.2359E+02
      0.062  0.8413E+00  0.2367E+02
      0.163  0.5948E+00  0.2373E+02
      0.265  0.8308E+00  0.2382E+02
      0.366  0.1505E+00  0.2383E+02
      0.468  0.4278E-03  0.2383E+02
      0.569  0.5657E-02  0.2383E+02
      0.671  0.1519E+00  0.2385E+02
      0.772  0.2798E+00  0.2388E+02
      0.874  0.4026E+00  0.2392E+02
      0.975  0.7065E+00  0.2399E+02
      1.076  0.6212E+00  0.2405E+02
      1.178  0.1632E+00  0.2407E+02
      1.279  0.4979E+00  0.2412E+02
      1.381  0.1944E+00  0.2414E+02
      1.482  0.3330E+00  0.2417E+02
      1.584  0.6348E+00  0.2424E+02
      1.685  0.5920E+00  0.2430E+02
      1.787  0.6272E+00  0.2436E+02
      1.888  0.3630E+00  0.2440E+02
      1.990  0.9914E+00  0.2450E+02
      2.091  0.3119E+00  0.2453E+02
      2.192  0.6406E+00  0.2459E+02
      2.294  0.1860E+01  0.2478E+02
      2.395  0.1542E+01  0.2494E+02
      2.497  0.7808E+00  0.2502E+02
      2.598  0.4746E-01  0.2502E+02
      2.700  0.3615E+00  0.2506E+02
      2.801  0.1132E+01  0.2518E+02
      2.903  0.1164E+01  0.2529E+02
      3.004  0.8188E+00  0.2538E+02
      3.106  0.1622E+01  0.2554E+02
      3.207  0.1105E+01  0.2565E+02
      3.308  0.4621E+00  0.2570E+02
      3.410  0.1727E+01  0.2588E+02
      3.511  0.2314E+01  0.2611E+02
      3.613  0.8224E+00  0.2619E+02
      3.714  0.6969E+00  0.2626E+02
      3.816  0.9656E+00  0.2636E+02
      3.917  0.9586E+00  0.2646E+02
      4.019  0.7502E+00  0.2654E+02
      4.120  0.3737E+00  0.2657E+02
      4.222  0.1460E-01  0.2657E+02
      4.323  0.3116E+00  0.2661E+02
      4.424  0.9056E+00  0.2670E+02
      4.526  0.1628E+01  0.2686E+02
      4.627  0.1434E+01  0.2701E+02
      4.729  0.1389E+01  0.2715E+02
      4.830  0.9188E+00  0.2724E+02
      4.932  0.9544E+00  0.2734E+02
      5.033  0.9193E+00  0.2743E+02
      5.135  0.8185E+00  0.2752E+02
      5.236  0.7312E+00  0.2759E+02
      5.338  0.8905E+00  0.2768E+02
      5.439  0.1224E+01  0.2781E+02
      5.540  0.1456E+01  0.2795E+02
      5.642  0.6729E+00  0.2802E+02
      5.743  0.9050E+00  0.2811E+02
      5.845  0.1557E+01  0.2827E+02
      5.946  0.1170E+01  0.2839E+02
      6.048  0.6420E+00  0.2845E+02
      6.149  0.1138E+01  0.2857E+02
      6.251  0.8731E+00  0.2866E+02
      6.352  0.6031E+00  0.2872E+02
      6.453  0.1759E+01  0.2890E+02
      6.555  0.6354E+00  0.2896E+02
      6.656  0.1423E+01  0.2911E+02
      6.758  0.1638E+01  0.2927E+02
      6.859  0.7680E+00  0.2935E+02
      6.961  0.6584E+00  0.2942E+02
      7.062  0.1367E+01  0.2956E+02
      7.164  0.5897E+00  0.2962E+02
      7.265  0.1794E+01  0.2980E+02
      7.367  0.1604E+01  0.2996E+02
      7.468  0.1192E+01  0.3008E+02
      7.569  0.1283E+01  0.3021E+02
      7.671  0.1241E+01  0.3034E+02
      7.772  0.4108E+00  0.3038E+02
      7.874  0.4684E+00  0.3043E+02
      7.975  0.1590E+01  0.3059E+02
      8.077  0.2005E+01  0.3079E+02
      8.178  0.1195E+01  0.3091E+02
      8.280  0.2312E+01  0.3115E+02
      8.381  0.1178E+01  0.3127E+02
      8.483  0.5601E+00  0.3132E+02
      8.584  0.7335E+00  0.3140E+02
      8.685  0.1767E+01  0.3158E+02
      8.787  0.7367E+00  0.3165E+02
      8.888  0.1078E+01  0.3176E+02
      8.990  0.5598E+00  0.3182E+02
      9.091  0.1729E+01  0.3199E+02
      9.193  0.1659E+01  0.3216E+02
      9.294  0.9168E+00  0.3226E+02
      9.396  0.1534E+01  0.3241E+02
      9.497  0.1772E+01  0.3259E+02
      9.599  0.3088E+01  0.3290E+02
      9.700  0.1466E+01  0.3305E+02
      9.801  0.1746E+01  0.3323E+02
      9.903  0.1838E+01  0.3342E+02
     10.004  0.1390E+01  0.3356E+02
     10.106  0.8202E+00  0.3364E+02
     10.207  0.1054E+01  0.3375E+02
     10.309  0.6482E+00  0.3381E+02
     10.410  0.1282E+01  0.3394E+02
     10.512  0.2435E+01  0.3419E+02
     10.613  0.1295E+01  0.3432E+02
     10.715  0.8048E+00  0.3440E+02
     10.816  0.1635E+01  0.3457E+02
     10.917  0.2233E+01  0.3480E+02
     11.019  0.1070E+01  0.3490E+02
     11.120  0.7691E+00  0.3498E+02
     11.222  0.6326E+00  0.3505E+02
     11.323  0.4709E+00  0.3509E+02
     11.425  0.2635E+00  0.3512E+02
     11.526  0.1586E+01  0.3528E+02
     11.628  0.1740E+01  0.3546E+02
     11.729  0.6850E+00  0.3553E+02
     11.831  0.7303E+00  0.3560E+02
     11.932  0.5006E+00  0.3565E+02
     12.033  0.1868E+01  0.3584E+02
     12.135  0.1645E+01  0.3601E+02
     12.236  0.8801E+00  0.3610E+02
     12.338  0.6186E+00  0.3616E+02
     12.439  0.4721E+00  0.3621E+02
     12.541  0.1288E+01  0.3634E+02
     12.642  0.1260E+01  0.3647E+02
     12.744  0.5654E+00  0.3653E+02
     12.845  0.4855E+00  0.3658E+02
     12.947  0.4165E+00  0.3662E+02
     13.048  0.5024E+00  0.3667E+02
     13.149  0.7429E+00  0.3674E+02
     13.251  0.1221E+01  0.3687E+02
     13.352  0.1318E+01  0.3700E+02
     13.454  0.8870E+00  0.3709E+02
     13.555  0.2403E+00  0.3712E+02
     13.657  0.1629E+01  0.3728E+02
     13.758  0.3261E+01  0.3761E+02
     13.860  0.1900E+01  0.3780E+02
     13.961  0.1859E+01  0.3799E+02
     14.063  0.5837E+00  0.3805E+02
     14.164  0.8088E+00  0.3813E+02
     14.265  0.1861E+01  0.3832E+02
     14.367  0.2672E+01  0.3859E+02
     14.468  0.1134E+01  0.3871E+02
     14.570  0.2847E+01  0.3900E+02
     14.671  0.1777E+01  0.3918E+02
     14.773  0.1994E+01  0.3938E+02
     14.874  0.2397E+01  0.3962E+02
     14.976  0.1821E+01  0.3981E+02
     15.077  0.1156E+01  0.3993E+02
     15.178  0.1846E+01  0.4011E+02
     15.280  0.1145E+01  0.4023E+02
     15.381  0.1647E+01  0.4040E+02
     15.483  0.1274E+01  0.4053E+02
     15.584  0.2022E+01  0.4073E+02
     15.686  0.1112E+01  0.4084E+02
     15.787  0.1422E+01  0.4099E+02
     15.889  0.1741E+01  0.4116E+02
     15.990  0.2151E+01  0.4138E+02
     16.092  0.2395E+01  0.4163E+02
     16.193  0.1919E+01  0.4182E+02
     16.294  0.1368E+01  0.4196E+02
     16.396  0.2235E+01  0.4219E+02
     16.497  0.2074E+01  0.4240E+02
     16.599  0.2265E+01  0.4263E+02
     16.700  0.1804E+01  0.4281E+02
     16.802  0.2099E+01  0.4302E+02
     16.903  0.1844E+01  0.4321E+02
     17.005  0.1484E+01  0.4336E+02
     17.106  0.2987E+01  0.4366E+02
     17.208  0.1343E+01  0.4380E+02
     17.309  0.1713E+01  0.4397E+02
     17.410  0.2354E+01  0.4421E+02
     17.512  0.2452E+01  0.4446E+02
     17.613  0.2387E+01  0.4470E+02
     17.715  0.2258E+01  0.4493E+02
     17.816  0.1800E+01  0.4511E+02
     17.918  0.1446E+01  0.4526E+02
     18.019  0.1398E+01  0.4540E+02
     18.121  0.1886E+01  0.4559E+02
     18.222  0.3116E+01  0.4591E+02
     18.324  0.1215E+01  0.4603E+02
     18.425  0.2535E+01  0.4629E+02
     18.526  0.1635E+01  0.4646E+02
     18.628  0.1345E+01  0.4659E+02
     18.729  0.9898E+00  0.4669E+02
     18.831  0.1437E+01  0.4684E+02
     18.932  0.8780E+00  0.4693E+02
     19.034  0.1200E+01  0.4705E+02
     19.135  0.1854E+01  0.4724E+02
     19.237  0.4638E+00  0.4729E+02
     19.338  0.5888E+00  0.4735E+02
     19.440  0.9193E+00  0.4744E+02
     19.541  0.6308E+00  0.4750E+02
     19.642  0.1070E+01  0.4761E+02
     19.744  0.6207E-01  0.4762E+02
     19.845  0.2092E+00  0.4764E+02
     19.947  0.4062E+00  0.4768E+02
     20.048  0.1661E+00  0.4770E+02
     20.150  0.2833E+00  0.4773E+02
     20.251  0.1061E+00  0.4774E+02
     20.353  0.4784E+00  0.4778E+02
     20.454  0.7995E-01  0.4779E+02
     20.556  0.5931E+00  0.4785E+02
     20.657  0.4808E+00  0.4790E+02
     20.758  0.5258E+00  0.4795E+02
     20.860  0.1359E+00  0.4797E+02
     20.961  0.8310E-04  0.4797E+02
     21.063  0.4498E-03  0.4797E+02
     21.164  0.9309E-01  0.4798E+02
     21.266  0.1473E+00  0.4799E+02
     21.367  0.6452E-01  0.4800E+02
     21.469  0.2612E-02  0.4800E+02
     21.570  0.1023E-06  0.4800E+02
     21.672  0.1488E-14  0.4800E+02
     21.773  0.0000E+00  0.4800E+02
     21.874  0.0000E+00  0.4800E+02
     21.976  0.0000E+00  0.4800E+02
     22.077  0.0000E+00  0.4800E+02
     22.179  0.0000E+00  0.4800E+02
     22.280  0.0000E+00  0.4800E+02
     22.382  0.0000E+00  0.4800E+02
     22.483  0.0000E+00  0.4800E+02
     22.585  0.0000E+00  0.4800E+02
     22.686  0.0000E+00  0.4800E+02
