    2    2    1    1
  0.2986793E+02  0.4103050E-09  0.4103050E-09  0.3548310E-09  0.5000000E-15
  1.000000000000000E-004
  CAR 
 Hg                                      
     24    260     48
 
  0.0000000E+00  0.0000000E+00  0.0000000E+00  0.1953125E-02
      1         -6.359088   1.000000
      2         -6.359087   1.000000
      3         -6.307527   1.000000
      4         -6.307526   1.000000
      5         -6.293905   1.000000
      6         -6.293904   1.000000
      7         -6.275891   1.000000
      8         -6.275889   1.000000
      9         -6.208713   1.000000
     10         -6.208709   1.000000
     11         -4.634089   1.000000
     12         -4.634088   1.000000
     13         -4.410271   1.000000
     14         -4.410271   1.000000
     15         -4.380473   1.000000
     16         -4.380472   1.000000
     17         -4.349456   1.000000
     18         -4.349456   1.000000
     19         -4.194437   1.000000
     20         -4.194437   1.000000
     21         -3.720675   1.000000
     22         -3.720675   1.000000
     23          2.330310   0.000000
     24          2.330317   0.000000
     25          3.322550   0.000000
     26          3.322553   0.000000
     27          4.405796   0.000000
     28          4.405799   0.000000
     29          7.055697   0.000000
     30          7.055705   0.000000
     31          9.258131   0.000000
     32          9.258137   0.000000
     33         11.579570   0.000000
     34         11.579572   0.000000
     35         11.891815   0.000000
     36         11.891818   0.000000
     37         13.585615   0.000000
     38         13.585617   0.000000
     39         15.360515   0.000000
     40         15.360518   0.000000
     41         16.411678   0.000000
     42         16.411680   0.000000
     43         16.554514   0.000000
     44         16.554517   0.000000
     45         16.946208   0.000000
     46         16.946210   0.000000
     47         16.951470   0.000000
     48         16.951476   0.000000
 
  0.1250000E+00  0.6364688E-33  0.0000000E+00  0.3906250E-02
      1         -6.345943   1.000000
      2         -6.345942   1.000000
      3         -6.296354   1.000000
      4         -6.296354   1.000000
      5         -6.272351   1.000000
      6         -6.272351   1.000000
      7         -6.263232   1.000000
      8         -6.263232   1.000000
      9         -6.059748   1.000000
     10         -6.059742   1.000000
     11         -4.613449   1.000000
     12         -4.613448   1.000000
     13         -4.427256   1.000000
     14         -4.427256   1.000000
     15         -4.387068   1.000000
     16         -4.387067   1.000000
     17         -4.374987   1.000000
     18         -4.374986   1.000000
     19         -4.197589   1.000000
     20         -4.197588   1.000000
     21         -3.774896   1.000000
     22         -3.774896   1.000000
     23          1.172713   0.000000
     24          1.172720   0.000000
     25          3.869025   0.000000
     26          3.869030   0.000000
     27          4.936961   0.000000
     28          4.936965   0.000000
     29          7.276192   0.000000
     30          7.276200   0.000000
     31          9.871560   0.000000
     32          9.871565   0.000000
     33         11.149228   0.000000
     34         11.149230   0.000000
     35         11.676771   0.000000
     36         11.676773   0.000000
     37         12.591150   0.000000
     38         12.591153   0.000000
     39         14.869774   0.000000
     40         14.869778   0.000000
     41         15.578534   0.000000
     42         15.578536   0.000000
     43         16.391653   0.000000
     44         16.391655   0.000000
     45         17.026599   0.000000
     46         17.026602   0.000000
     47         18.230252   0.000000
     48         18.230255   0.000000
 
  0.0000000E+00  0.1250000E+00  0.0000000E+00  0.3906250E-02
      1         -6.345943   1.000000
      2         -6.345942   1.000000
      3         -6.296354   1.000000
      4         -6.296354   1.000000
      5         -6.272351   1.000000
      6         -6.272351   1.000000
      7         -6.263232   1.000000
      8         -6.263232   1.000000
      9         -6.059748   1.000000
     10         -6.059742   1.000000
     11         -4.613449   1.000000
     12         -4.613448   1.000000
     13         -4.427256   1.000000
     14         -4.427256   1.000000
     15         -4.387068   1.000000
     16         -4.387067   1.000000
     17         -4.374987   1.000000
     18         -4.374986   1.000000
     19         -4.197589   1.000000
     20         -4.197588   1.000000
     21         -3.774896   1.000000
     22         -3.774896   1.000000
     23          1.172713   0.000000
     24          1.172720   0.000000
     25          3.869025   0.000000
     26          3.869030   0.000000
     27          4.936961   0.000000
     28          4.936964   0.000000
     29          7.276192   0.000000
     30          7.276200   0.000000
     31          9.871560   0.000000
     32          9.871565   0.000000
     33         11.149228   0.000000
     34         11.149230   0.000000
     35         11.676771   0.000000
     36         11.676773   0.000000
     37         12.591150   0.000000
     38         12.591153   0.000000
     39         14.869774   0.000000
     40         14.869778   0.000000
     41         15.578534   0.000000
     42         15.578536   0.000000
     43         16.391653   0.000000
     44         16.391655   0.000000
     45         17.026599   0.000000
     46         17.026602   0.000000
     47         18.230252   0.000000
     48         18.230255   0.000000
 
  0.2500000E+00  0.1272938E-32  0.0000000E+00  0.3906250E-02
      1         -6.313299   1.000000
      2         -6.313299   1.000000
      3         -6.266225   1.000000
      4         -6.266224   1.000000
      5         -6.251658   1.000000
      6         -6.251658   1.000000
      7         -6.223948   1.000000
      8         -6.223947   1.000000
      9         -5.604184   1.000000
     10         -5.604178   1.000000
     11         -4.553329   1.000000
     12         -4.553328   1.000000
     13         -4.470107   1.000000
     14         -4.470107   1.000000
     15         -4.427681   1.000000
     16         -4.427681   1.000000
     17         -4.400336   1.000000
     18         -4.400335   1.000000
     19         -4.191984   1.000000
     20         -4.191984   1.000000
     21         -3.911817   1.000000
     22         -3.911817   1.000000
     23         -0.494973   1.000000
     24         -0.494966   1.000000
     25          4.634546   0.000000
     26          4.634552   0.000000
     27          5.752180   0.000000
     28          5.752183   0.000000
     29          7.922433   0.000000
     30          7.922441   0.000000
     31          9.671514   0.000000
     32          9.671516   0.000000
     33         10.865132   0.000000
     34         10.865135   0.000000
     35         11.236534   0.000000
     36         11.236537   0.000000
     37         12.281983   0.000000
     38         12.281984   0.000000
     39         13.511926   0.000000
     40         13.511933   0.000000
     41         14.256980   0.000000
     42         14.256982   0.000000
     43         16.827446   0.000000
     44         16.827448   0.000000
     45         17.601483   0.000000
     46         17.601486   0.000000
     47         20.283534   0.000000
     48         20.283536   0.000000
 
  0.0000000E+00  0.2500000E+00  0.0000000E+00  0.3906250E-02
      1         -6.313299   1.000000
      2         -6.313299   1.000000
      3         -6.266225   1.000000
      4         -6.266224   1.000000
      5         -6.251658   1.000000
      6         -6.251658   1.000000
      7         -6.223948   1.000000
      8         -6.223947   1.000000
      9         -5.604184   1.000000
     10         -5.604178   1.000000
     11         -4.553329   1.000000
     12         -4.553328   1.000000
     13         -4.470107   1.000000
     14         -4.470107   1.000000
     15         -4.427681   1.000000
     16         -4.427681   1.000000
     17         -4.400336   1.000000
     18         -4.400335   1.000000
     19         -4.191984   1.000000
     20         -4.191984   1.000000
     21         -3.911817   1.000000
     22         -3.911817   1.000000
     23         -0.494973   1.000000
     24         -0.494966   1.000000
     25          4.634546   0.000000
     26          4.634552   0.000000
     27          5.752180   0.000000
     28          5.752183   0.000000
     29          7.922433   0.000000
     30          7.922441   0.000000
     31          9.671514   0.000000
     32          9.671516   0.000000
     33         10.865132   0.000000
     34         10.865135   0.000000
     35         11.236534   0.000000
     36         11.236537   0.000000
     37         12.281983   0.000000
     38         12.281984   0.000000
     39         13.511926   0.000000
     40         13.511933   0.000000
     41         14.256980   0.000000
     42         14.256981   0.000000
     43         16.827446   0.000000
     44         16.827448   0.000000
     45         17.601483   0.000000
     46         17.601486   0.000000
     47         20.283534   0.000000
     48         20.283536   0.000000
 
  0.3750000E+00 -0.1900813E-31  0.0000000E+00  0.3906250E-02
      1         -6.276777   1.000000
      2         -6.276777   1.000000
      3         -6.245048   1.000000
      4         -6.245047   1.000000
      5         -6.224974   1.000000
      6         -6.224973   1.000000
      7         -6.188075   1.000000
      8         -6.188074   1.000000
      9         -4.962967   1.000000
     10         -4.962963   1.000000
     11         -4.523959   1.000000
     12         -4.523958   1.000000
     13         -4.490057   1.000000
     14         -4.490056   1.000000
     15         -4.467219   1.000000
     16         -4.467219   1.000000
     17         -4.368845   1.000000
     18         -4.368844   1.000000
     19         -4.082602   1.000000
     20         -4.082601   1.000000
     21         -4.072829   1.000000
     22         -4.072827   1.000000
     23         -2.062526   1.000000
     24         -2.062520   1.000000
     25          5.660952   0.000000
     26          5.660957   0.000000
     27          6.586265   0.000000
     28          6.586267   0.000000
     29          8.182618   0.000000
     30          8.182620   0.000000
     31          8.950624   0.000000
     32          8.950632   0.000000
     33          9.159383   0.000000
     34          9.159387   0.000000
     35         11.856831   0.000000
     36         11.856838   0.000000
     37         11.905210   0.000000
     38         11.905213   0.000000
     39         13.233819   0.000000
     40         13.233821   0.000000
     41         14.449453   0.000000
     42         14.449454   0.000000
     43         17.737380   0.000000
     44         17.737382   0.000000
     45         18.606909   0.000000
     46         18.606912   0.000000
     47         20.015422   0.000000
     48         20.015423   0.000000
 
  0.0000000E+00  0.3750000E+00  0.0000000E+00  0.3906250E-02
      1         -6.276777   1.000000
      2         -6.276777   1.000000
      3         -6.245048   1.000000
      4         -6.245047   1.000000
      5         -6.224974   1.000000
      6         -6.224973   1.000000
      7         -6.188075   1.000000
      8         -6.188074   1.000000
      9         -4.962967   1.000000
     10         -4.962963   1.000000
     11         -4.523959   1.000000
     12         -4.523958   1.000000
     13         -4.490057   1.000000
     14         -4.490056   1.000000
     15         -4.467220   1.000000
     16         -4.467219   1.000000
     17         -4.368845   1.000000
     18         -4.368844   1.000000
     19         -4.082602   1.000000
     20         -4.082601   1.000000
     21         -4.072829   1.000000
     22         -4.072827   1.000000
     23         -2.062526   1.000000
     24         -2.062520   1.000000
     25          5.660952   0.000000
     26          5.660957   0.000000
     27          6.586265   0.000000
     28          6.586267   0.000000
     29          8.182618   0.000000
     30          8.182620   0.000000
     31          8.950624   0.000000
     32          8.950632   0.000000
     33          9.159383   0.000000
     34          9.159387   0.000000
     35         11.856831   0.000000
     36         11.856838   0.000000
     37         11.905210   0.000000
     38         11.905213   0.000000
     39         13.233819   0.000000
     40         13.233821   0.000000
     41         14.449453   0.000000
     42         14.449454   0.000000
     43         17.737380   0.000000
     44         17.737382   0.000000
     45         18.606909   0.000000
     46         18.606912   0.000000
     47         20.015422   0.000000
     48         20.015423   0.000000
 
  0.5000000E+00  0.2545875E-32  0.0000000E+00  0.1953125E-02
      1         -6.251833   1.000000
      2         -6.251833   1.000000
      3         -6.251832   1.000000
      4         -6.251832   1.000000
      5         -6.191065   1.000000
      6         -6.191065   1.000000
      7         -6.191065   1.000000
      8         -6.191065   1.000000
      9         -4.607520   1.000000
     10         -4.607520   1.000000
     11         -4.607519   1.000000
     12         -4.607519   1.000000
     13         -4.480621   1.000000
     14         -4.480621   1.000000
     15         -4.480621   1.000000
     16         -4.480621   1.000000
     17         -4.243046   1.000000
     18         -4.243046   1.000000
     19         -4.243046   1.000000
     20         -4.243046   1.000000
     21         -3.358075   1.000000
     22         -3.358075   1.000000
     23         -3.358070   1.000000
     24         -3.358070   1.000000
     25          6.858814   0.000000
     26          6.858814   0.000000
     27          6.858817   0.000000
     28          6.858817   0.000000
     29          7.689586   0.000000
     30          7.689586   0.000000
     31          7.689588   0.000000
     32          7.689588   0.000000
     33         10.290708   0.000000
     34         10.290708   0.000000
     35         10.290715   0.000000
     36         10.290715   0.000000
     37         12.472583   0.000000
     38         12.472583   0.000000
     39         12.472585   0.000000
     40         12.472585   0.000000
     41         17.256858   0.000000
     42         17.256858   0.000000
     43         17.256860   0.000000
     44         17.256860   0.000000
     45         19.046123   0.000000
     46         19.046123   0.000000
     47         19.046125   0.000000
     48         19.046125   0.000000
 
  0.0000000E+00  0.5000000E+00  0.0000000E+00  0.1953125E-02
      1         -6.251833   1.000000
      2         -6.251833   1.000000
      3         -6.251832   1.000000
      4         -6.251832   1.000000
      5         -6.191065   1.000000
      6         -6.191065   1.000000
      7         -6.191065   1.000000
      8         -6.191065   1.000000
      9         -4.607520   1.000000
     10         -4.607520   1.000000
     11         -4.607519   1.000000
     12         -4.607519   1.000000
     13         -4.480621   1.000000
     14         -4.480621   1.000000
     15         -4.480621   1.000000
     16         -4.480621   1.000000
     17         -4.243046   1.000000
     18         -4.243046   1.000000
     19         -4.243046   1.000000
     20         -4.243046   1.000000
     21         -3.358075   1.000000
     22         -3.358075   1.000000
     23         -3.358070   1.000000
     24         -3.358070   1.000000
     25          6.858814   0.000000
     26          6.858814   0.000000
     27          6.858817   0.000000
     28          6.858817   0.000000
     29          7.689586   0.000000
     30          7.689586   0.000000
     31          7.689588   0.000000
     32          7.689588   0.000000
     33         10.290708   0.000000
     34         10.290708   0.000000
     35         10.290715   0.000000
     36         10.290715   0.000000
     37         12.472583   0.000000
     38         12.472583   0.000000
     39         12.472585   0.000000
     40         12.472585   0.000000
     41         17.256858   0.000000
     42         17.256858   0.000000
     43         17.256860   0.000000
     44         17.256860   0.000000
     45         19.046123   0.000000
     46         19.046123   0.000000
     47         19.046125   0.000000
     48         19.046125   0.000000
 
  0.1250000E+00  0.1250000E+00  0.0000000E+00  0.3906250E-02
      1         -6.335196   1.000000
      2         -6.335196   1.000000
      3         -6.302286   1.000000
      4         -6.302285   1.000000
      5         -6.259775   1.000000
      6         -6.259775   1.000000
      7         -6.253529   1.000000
      8         -6.253529   1.000000
      9         -5.891193   1.000000
     10         -5.891188   1.000000
     11         -4.590680   1.000000
     12         -4.590679   1.000000
     13         -4.483710   1.000000
     14         -4.483709   1.000000
     15         -4.391004   1.000000
     16         -4.391003   1.000000
     17         -4.356538   1.000000
     18         -4.356538   1.000000
     19         -4.196244   1.000000
     20         -4.196244   1.000000
     21         -3.825012   1.000000
     22         -3.825011   1.000000
     23          0.845671   0.999979
     24          0.845678   0.999979
     25          3.084646   0.000000
     26          3.084652   0.000000
     27          6.049374   0.000000
     28          6.049378   0.000000
     29          7.545953   0.000000
     30          7.545959   0.000000
     31          9.875311   0.000000
     32          9.875314   0.000000
     33         10.353332   0.000000
     34         10.353336   0.000000
     35         11.765943   0.000000
     36         11.765945   0.000000
     37         12.974400   0.000000
     38         12.974405   0.000000
     39         14.757660   0.000000
     40         14.757664   0.000000
     41         15.376701   0.000000
     42         15.376701   0.000000
     43         16.010525   0.000000
     44         16.010527   0.000000
     45         16.775410   0.000000
     46         16.775413   0.000000
     47         17.529603   0.000000
     48         17.529605   0.000000
 
 -0.1250000E+00  0.1250000E+00  0.0000000E+00  0.3906250E-02
      1         -6.335196   1.000000
      2         -6.335196   1.000000
      3         -6.302285   1.000000
      4         -6.302285   1.000000
      5         -6.259775   1.000000
      6         -6.259775   1.000000
      7         -6.253529   1.000000
      8         -6.253529   1.000000
      9         -5.891193   1.000000
     10         -5.891188   1.000000
     11         -4.590680   1.000000
     12         -4.590679   1.000000
     13         -4.483710   1.000000
     14         -4.483709   1.000000
     15         -4.391004   1.000000
     16         -4.391003   1.000000
     17         -4.356538   1.000000
     18         -4.356538   1.000000
     19         -4.196244   1.000000
     20         -4.196244   1.000000
     21         -3.825012   1.000000
     22         -3.825011   1.000000
     23          0.845671   0.999979
     24          0.845678   0.999979
     25          3.084647   0.000000
     26          3.084652   0.000000
     27          6.049372   0.000000
     28          6.049379   0.000000
     29          7.545952   0.000000
     30          7.545960   0.000000
     31          9.875310   0.000000
     32          9.875315   0.000000
     33         10.353332   0.000000
     34         10.353336   0.000000
     35         11.765943   0.000000
     36         11.765945   0.000000
     37         12.974401   0.000000
     38         12.974404   0.000000
     39         14.757660   0.000000
     40         14.757664   0.000000
     41         15.376700   0.000000
     42         15.376702   0.000000
     43         16.010525   0.000000
     44         16.010527   0.000000
     45         16.775410   0.000000
     46         16.775413   0.000000
     47         17.529603   0.000000
     48         17.529605   0.000000
 
  0.2500000E+00  0.1250000E+00  0.0000000E+00  0.3906250E-02
      1         -6.309233   1.000000
      2         -6.309233   1.000000
      3         -6.287620   1.000000
      4         -6.287619   1.000000
      5         -6.254409   1.000000
      6         -6.254408   1.000000
      7         -6.214082   1.000000
      8         -6.214081   1.000000
      9         -5.440593   1.000000
     10         -5.440589   1.000000
     11         -4.564909   1.000000
     12         -4.564909   1.000000
     13         -4.532040   1.000000
     14         -4.532038   1.000000
     15         -4.383674   1.000000
     16         -4.383673   1.000000
     17         -4.361932   1.000000
     18         -4.361931   1.000000
     19         -4.179765   1.000000
     20         -4.179764   1.000000
     21         -3.947883   1.000000
     22         -3.947883   1.000000
     23         -0.377649   1.000000
     24         -0.377642   1.000000
     25          3.128269   0.000000
     26          3.128274   0.000000
     27          7.208486   0.000000
     28          7.208487   0.000000
     29          8.074182   0.000000
     30          8.074185   0.000000
     31          8.286975   0.000000
     32          8.286978   0.000000
     33         11.534513   0.000000
     34         11.534515   0.000000
     35         12.132656   0.000000
     36         12.132661   0.000000
     37         12.362035   0.000000
     38         12.362036   0.000000
     39         13.696257   0.000000
     40         13.696264   0.000000
     41         14.340504   0.000000
     42         14.340506   0.000000
     43         16.281603   0.000000
     44         16.281604   0.000000
     45         17.011754   0.000000
     46         17.011758   0.000000
     47         18.702602   0.000000
     48         18.702605   0.000000
 
 -0.1250000E+00  0.2500000E+00  0.0000000E+00  0.3906250E-02
      1         -6.309233   1.000000
      2         -6.309233   1.000000
      3         -6.287620   1.000000
      4         -6.287619   1.000000
      5         -6.254408   1.000000
      6         -6.254408   1.000000
      7         -6.214082   1.000000
      8         -6.214082   1.000000
      9         -5.440594   1.000000
     10         -5.440588   1.000000
     11         -4.564910   1.000000
     12         -4.564909   1.000000
     13         -4.532039   1.000000
     14         -4.532039   1.000000
     15         -4.383674   1.000000
     16         -4.383673   1.000000
     17         -4.361932   1.000000
     18         -4.361931   1.000000
     19         -4.179765   1.000000
     20         -4.179765   1.000000
     21         -3.947883   1.000000
     22         -3.947883   1.000000
     23         -0.377649   1.000000
     24         -0.377642   1.000000
     25          3.128269   0.000000
     26          3.128274   0.000000
     27          7.208483   0.000000
     28          7.208489   0.000000
     29          8.074181   0.000000
     30          8.074185   0.000000
     31          8.286972   0.000000
     32          8.286980   0.000000
     33         11.534513   0.000000
     34         11.534515   0.000000
     35         12.132658   0.000000
     36         12.132659   0.000000
     37         12.362035   0.000000
     38         12.362036   0.000000
     39         13.696258   0.000000
     40         13.696263   0.000000
     41         14.340504   0.000000
     42         14.340506   0.000000
     43         16.281602   0.000000
     44         16.281604   0.000000
     45         17.011754   0.000000
     46         17.011758   0.000000
     47         18.702602   0.000000
     48         18.702605   0.000000
 
 -0.2500000E+00  0.1250000E+00  0.0000000E+00  0.3906250E-02
      1         -6.309233   1.000000
      2         -6.309233   1.000000
      3         -6.287620   1.000000
      4         -6.287619   1.000000
      5         -6.254408   1.000000
      6         -6.254408   1.000000
      7         -6.214082   1.000000
      8         -6.214082   1.000000
      9         -5.440594   1.000000
     10         -5.440588   1.000000
     11         -4.564910   1.000000
     12         -4.564909   1.000000
     13         -4.532039   1.000000
     14         -4.532039   1.000000
     15         -4.383674   1.000000
     16         -4.383673   1.000000
     17         -4.361932   1.000000
     18         -4.361931   1.000000
     19         -4.179765   1.000000
     20         -4.179765   1.000000
     21         -3.947883   1.000000
     22         -3.947883   1.000000
     23         -0.377649   1.000000
     24         -0.377642   1.000000
     25          3.128269   0.000000
     26          3.128274   0.000000
     27          7.208483   0.000000
     28          7.208489   0.000000
     29          8.074181   0.000000
     30          8.074185   0.000000
     31          8.286972   0.000000
     32          8.286980   0.000000
     33         11.534513   0.000000
     34         11.534515   0.000000
     35         12.132658   0.000000
     36         12.132659   0.000000
     37         12.362035   0.000000
     38         12.362036   0.000000
     39         13.696258   0.000000
     40         13.696263   0.000000
     41         14.340504   0.000000
     42         14.340506   0.000000
     43         16.281602   0.000000
     44         16.281604   0.000000
     45         17.011754   0.000000
     46         17.011758   0.000000
     47         18.702602   0.000000
     48         18.702605   0.000000
 
  0.1250000E+00  0.2500000E+00  0.0000000E+00  0.3906250E-02
      1         -6.309233   1.000000
      2         -6.309233   1.000000
      3         -6.287620   1.000000
      4         -6.287619   1.000000
      5         -6.254409   1.000000
      6         -6.254408   1.000000
      7         -6.214082   1.000000
      8         -6.214081   1.000000
      9         -5.440593   1.000000
     10         -5.440589   1.000000
     11         -4.564909   1.000000
     12         -4.564909   1.000000
     13         -4.532040   1.000000
     14         -4.532038   1.000000
     15         -4.383674   1.000000
     16         -4.383673   1.000000
     17         -4.361932   1.000000
     18         -4.361931   1.000000
     19         -4.179765   1.000000
     20         -4.179764   1.000000
     21         -3.947883   1.000000
     22         -3.947883   1.000000
     23         -0.377649   1.000000
     24         -0.377642   1.000000
     25          3.128269   0.000000
     26          3.128274   0.000000
     27          7.208486   0.000000
     28          7.208487   0.000000
     29          8.074182   0.000000
     30          8.074185   0.000000
     31          8.286975   0.000000
     32          8.286978   0.000000
     33         11.534513   0.000000
     34         11.534515   0.000000
     35         12.132656   0.000000
     36         12.132661   0.000000
     37         12.362035   0.000000
     38         12.362036   0.000000
     39         13.696257   0.000000
     40         13.696264   0.000000
     41         14.340504   0.000000
     42         14.340506   0.000000
     43         16.281603   0.000000
     44         16.281604   0.000000
     45         17.011754   0.000000
     46         17.011758   0.000000
     47         18.702602   0.000000
     48         18.702605   0.000000
 
  0.3750000E+00  0.1250000E+00  0.0000000E+00  0.3906250E-02
      1         -6.281249   1.000000
      2         -6.281249   1.000000
      3         -6.261255   1.000000
      4         -6.261255   1.000000
      5         -6.241901   1.000000
      6         -6.241900   1.000000
      7         -6.191938   1.000000
      8         -6.191938   1.000000
      9         -4.890552   1.000000
     10         -4.890548   1.000000
     11         -4.621320   1.000000
     12         -4.621320   1.000000
     13         -4.487356   1.000000
     14         -4.487355   1.000000
     15         -4.390730   1.000000
     16         -4.390729   1.000000
     17         -4.296572   1.000000
     18         -4.296571   1.000000
     19         -4.092412   1.000000
     20         -4.092411   1.000000
     21         -3.996967   1.000000
     22         -3.996964   1.000000
     23         -1.861380   1.000000
     24         -1.861374   1.000000
     25          3.889391   0.000000
     26          3.889396   0.000000
     27          6.418942   0.000000
     28          6.418946   0.000000
     29          8.239598   0.000000
     30          8.239599   0.000000
     31          9.314002   0.000000
     32          9.314006   0.000000
     33         10.741661   0.000000
     34         10.741666   0.000000
     35         12.095191   0.000000
     36         12.095198   0.000000
     37         12.100100   0.000000
     38         12.100102   0.000000
     39         13.399907   0.000000
     40         13.399909   0.000000
     41         14.555362   0.000000
     42         14.555363   0.000000
     43         17.033962   0.000000
     44         17.033963   0.000000
     45         17.777158   0.000000
     46         17.777163   0.000000
     47         19.412287   0.000000
     48         19.412289   0.000000
 
 -0.1250000E+00  0.3750000E+00  0.0000000E+00  0.3906250E-02
      1         -6.281249   1.000000
      2         -6.281249   1.000000
      3         -6.261256   1.000000
      4         -6.261255   1.000000
      5         -6.241900   1.000000
      6         -6.241900   1.000000
      7         -6.191938   1.000000
      8         -6.191938   1.000000