Hg                                      
           1
     4.103050    0.000000    0.000000
     0.000000    4.103050    0.000000
     0.000000    0.000000    3.548310
   Hg
     2
Direct configuration=     1
   0.00000000  0.00000000  0.00000000
   0.50000000  0.50000000  0.50000000
