 DBCSR| CPU Multiplication driver                                           BLAS (U)
 DBCSR| Multrec recursion limit                                              512 (U)
 DBCSR| Multiplication stack size                                           1000 (D)
 DBCSR| Maximum elements for images                                    UNLIMITED (U)
 DBCSR| Multiplicative factor virtual images                                   1 (U)
 DBCSR| Use multiplication densification                                       T (D)
 DBCSR| Multiplication size stacks                                             3 (U)
 DBCSR| Use memory pool for CPU allocation                                     F (U)
 DBCSR| Number of 3D layers                                               SINGLE (U)
 DBCSR| Use MPI memory allocation                                              F (U)
 DBCSR| Use RMA algorithm                                                      F (U)
 DBCSR| Use Communication thread                                               T (U)
 DBCSR| Communication thread load                                             45 (D)
 DBCSR| MPI: My process id                                                     0
 DBCSR| MPI: Number of processes                                               8
 DBCSR| OMP: Current number of threads                                        12
 DBCSR| OMP: Max number of threads                                            12
 DBCSR| Split modifier for TAS multiplication algorithm                  1.0E+00 (U)


  **** **** ******  **  PROGRAM STARTED AT               2025-08-04 02:17:19.415
 ***** ** ***  *** **   PROGRAM STARTED ON                          i03r11c01s02
 **    ****   ******    PROGRAM STARTED BY                               di38fab
 ***** **    ** ** **   PROGRAM PROCESS ID                                601171
  **** **  *******  **  PROGRAM STARTED IN /hppfs/scratch/04/di38fab/09_GTH/Delt
                                           a_Set/F/TZV2P-MOLOPT-PBE-GTH/8x8x8

 CP2K| version string:                 CP2K version 2025.1 (Development Version)
 CP2K| source code revision number:                                  git:3130539
 CP2K| cp2kflags: omp libint fftw3 libxc parallel scalapack max_contr=4         
 CP2K| is freely available from                            https://www.cp2k.org/
 CP2K| Program compiled at                         Tue Jun  3 16:14:32 CEST 2025
 CP2K| Program compiled on                                               login01
 CP2K| Program compiled for                                        Supermuc-foss
 CP2K| Data directory path                  /hppfs/work/pn36zo/di38fab/cp2k/data
 CP2K| Input file name                                                    GW.inp

 GLOBAL| Force Environment number                                              1
 GLOBAL| Basis set file name            /hppfs/scratch/04/di38fab/09_GTH/BASIS_A
 GLOBAL| Potential file name            /hppfs/work/pn36zo/di38fab/cp2k/data/GTH
 GLOBAL| MM Potential file name                                     MM_POTENTIAL
 GLOBAL| Coordinate file name                                              F.cif
 GLOBAL| Method name                                                        CP2K
 GLOBAL| Project name                                                       WSe2
 GLOBAL| Run type                                                         ENERGY
 GLOBAL| FFT library                                                       FFTW3
 GLOBAL| Diagonalization library                                       ScaLAPACK
 GLOBAL| Cholesky decomposition library                                ScaLAPACK
 GLOBAL| DGEMM library                                                      BLAS
 GLOBAL| Orthonormality check for eigenvectors                          DISABLED
 GLOBAL| Matrix multiplication library                                 ScaLAPACK
 GLOBAL| All-to-all communication in single precision                          F
 GLOBAL| FFTs using library dependent lengths                                  F
 GLOBAL| Grid backend                                                       AUTO
 GLOBAL| Global print level                                               MEDIUM
 GLOBAL| MPI I/O enabled                                                       T
 GLOBAL| Total number of message passing processes                             8
 GLOBAL| Number of threads for this process                                   12
 GLOBAL| This output is from process                                           0
 GLOBAL| OpenMP stack size per thread (OMP_STACKSIZE)                    default
 GLOBAL| CPU model name             Intel(R) Xeon(R) Platinum 8174 CPU @ 3.10GHz

 MEMORY| system memory details [Kb]
 MEMORY|                        rank 0           min           max       average
 MEMORY| MemTotal             98436708      98436708      98436708      98436708
 MEMORY| MemFree              85203360      84887908      85203360      85045634
 MEMORY| Buffers                     0             0             0             0
 MEMORY| Cached                2352544       2352544       2353960       2353252
 MEMORY| Slab                  1196580       1196580       1196936       1196758
 MEMORY| SReclaimable           273484        266628        273484        270056
 MEMORY| MemLikelyFree        87829388      87508496      87829388      87668942


 *** Fundamental physical constants (SI units) ***

 *** Literature: B. J. Mohr and B. N. Taylor,
 ***             CODATA recommended values of the fundamental physical
 ***             constants: 2006, Web Version 5.1
 ***             http://physics.nist.gov/constants

 Speed of light in vacuum [m/s]                             2.99792458000000E+08
 Magnetic constant or permeability of vacuum [N/A**2]       1.25663706143592E-06
 Electric constant or permittivity of vacuum [F/m]          8.85418781762039E-12
 Planck constant (h) [J*s]                                  6.62606896000000E-34
 Planck constant (h-bar) [J*s]                              1.05457162825177E-34
 Elementary charge [C]                                      1.60217648700000E-19
 Electron mass [kg]                                         9.10938215000000E-31
 Electron g factor [ ]                                     -2.00231930436220E+00
 Proton mass [kg]                                           1.67262163700000E-27
 Fine-structure constant                                    7.29735253760000E-03
 Rydberg constant [1/m]                                     1.09737315685270E+07
 Avogadro constant [1/mol]                                  6.02214179000000E+23
 Boltzmann constant [J/K]                                   1.38065040000000E-23
 Atomic mass unit [kg]                                      1.66053878200000E-27
 Bohr radius [m]                                            5.29177208590000E-11

 *** Conversion factors ***

 [u] -> [a.u.]                                              1.82288848426455E+03
 [Angstrom] -> [Bohr] = [a.u.]                              1.88972613288564E+00
 [a.u.] = [Bohr] -> [Angstrom]                              5.29177208590000E-01
 [a.u.] -> [s]                                              2.41888432650478E-17
 [a.u.] -> [fs]                                             2.41888432650478E-02
 [a.u.] -> [J]                                              4.35974393937059E-18
 [a.u.] -> [N]                                              8.23872205491840E-08
 [a.u.] -> [K]                                              3.15774647902944E+05
 [a.u.] -> [kJ/mol]                                         2.62549961709828E+03
 [a.u.] -> [kcal/mol]                                       6.27509468713739E+02
 [a.u.] -> [Pa]                                             2.94210107994716E+13
 [a.u.] -> [bar]                                            2.94210107994716E+08
 [a.u.] -> [atm]                                            2.90362800883016E+08
 [a.u.] -> [eV]                                             2.72113838565563E+01
 [a.u.] -> [Hz]                                             6.57968392072181E+15
 [a.u.] -> [1/cm] (wave numbers)                            2.19474631370540E+05
 [a.u./Bohr**2] -> [1/cm]                                   5.14048714338585E+03
 

 CELL_TOP| Volume [angstrom^3]:                                       156.187300
 CELL_TOP| Vector a [angstrom     6.163     0.000     0.000   |a| =     6.163100
 CELL_TOP| Vector b [angstrom     0.000     3.685     0.000   |b| =     3.685050
 CELL_TOP| Vector c [angstrom    -0.817     0.000     6.877   |c| =     6.925430
 CELL_TOP| Angle (b,c), alpha [degree]:                                90.000000
 CELL_TOP| Angle (a,c), beta  [degree]:                                96.775380
 CELL_TOP| Angle (a,b), gamma [degree]:                                90.000000
 CELL_TOP| Numerically orthorhombic:                                          NO
 CELL_TOP| Periodicity                                                       XYZ

 CELL_CIF| Volume [angstrom^3]:                                       156.187300
 CELL_CIF| Vector a [angstrom     6.163     0.000     0.000   |a| =     6.163100
 CELL_CIF| Vector b [angstrom     0.000     3.685     0.000   |b| =     3.685050
 CELL_CIF| Vector c [angstrom    -0.817     0.000     6.877   |c| =     6.925430
 CELL_CIF| Angle (b,c), alpha [degree]:                                90.000000
 CELL_CIF| Angle (a,c), beta  [degree]:                                96.775380
 CELL_CIF| Angle (a,b), gamma [degree]:                                90.000000
 CELL_CIF| Numerically orthorhombic:                                          NO
 CELL_CIF| Periodicity                                                       XYZ

 GENERATE|  Preliminary Number of Bonds generated:                             0
 GENERATE|  Achieved consistency in connectivity generation.

 CELL| Volume [angstrom^3]:                                           156.187300
 CELL| Vector a [angstrom]:       6.163     0.000     0.000   |a| =     6.163100
 CELL| Vector b [angstrom]:       0.000     3.685     0.000   |b| =     3.685050
 CELL| Vector c [angstrom]:      -0.817     0.000     6.877   |c| =     6.925430
 CELL| Angle (b,c), alpha [degree]:                                    90.000000
 CELL| Angle (a,c), beta  [degree]:                                    96.775380
 CELL| Angle (a,b), gamma [degree]:                                    90.000000
 CELL| Numerically orthorhombic:                                              NO
 CELL| Periodicity                                                           XYZ

 CELL_REF| Volume [angstrom^3]:                                       156.187300
 CELL_REF| Vector a [angstrom     6.163     0.000     0.000   |a| =     6.163100
 CELL_REF| Vector b [angstrom     0.000     3.685     0.000   |b| =     3.685050
 CELL_REF| Vector c [angstrom    -0.817     0.000     6.877   |c| =     6.925430
 CELL_REF| Angle (b,c), alpha [degree]:                                90.000000
 CELL_REF| Angle (a,c), beta  [degree]:                                96.775380
 CELL_REF| Angle (a,b), gamma [degree]:                                90.000000
 CELL_REF| Numerically orthorhombic:                                          NO
 CELL_REF| Periodicity                                                       XYZ

 *** WARNING in cryssym.F:180 :: Symmetry library SPGLIB not available ***


 *******************************************************************************
                                    Kpoints
 *******************************************************************************
 BRILLOUIN| K-point scheme                                        Monkhorst-Pack
 BRILLOUIN| K-Point grid                                             8    8    8
 BRILLOUIN| Accuracy in Symmetry determination                      0.100000E-05
 BRILLOUIN| K-Point point group symmetrization                               OFF
 BRILLOUIN| Wavefunction type                                            COMPLEX
 BRILLOUIN| List of Kpoints [2 Pi/Bohr]                                      256
 BRILLOUIN| Number           Weight            X              Y              Z
 BRILLOUIN|     1           0.00391       -0.43750       -0.43750       -0.43750
 BRILLOUIN|     2           0.00391       -0.43750       -0.43750       -0.31250
 BRILLOUIN|     3           0.00391       -0.43750       -0.43750       -0.18750
 BRILLOUIN|     4           0.00391       -0.43750       -0.43750       -0.06250
 BRILLOUIN|     5           0.00391       -0.43750       -0.43750        0.06250
 BRILLOUIN|     6           0.00391       -0.43750       -0.43750        0.18750
 BRILLOUIN|     7           0.00391       -0.43750       -0.43750        0.31250
 BRILLOUIN|     8           0.00391       -0.43750       -0.43750        0.43750
 BRILLOUIN|     9           0.00391       -0.43750       -0.31250       -0.43750
 BRILLOUIN|    10           0.00391       -0.43750       -0.31250       -0.31250
 BRILLOUIN|    11           0.00391       -0.43750       -0.31250       -0.18750
 BRILLOUIN|    12           0.00391       -0.43750       -0.31250       -0.06250
 BRILLOUIN|    13           0.00391       -0.43750       -0.31250        0.06250
 BRILLOUIN|    14           0.00391       -0.43750       -0.31250        0.18750
 BRILLOUIN|    15           0.00391       -0.43750       -0.31250        0.31250
 BRILLOUIN|    16           0.00391       -0.43750       -0.31250        0.43750
 BRILLOUIN|    17           0.00391       -0.43750       -0.18750       -0.43750
 BRILLOUIN|    18           0.00391       -0.43750       -0.18750       -0.31250
 BRILLOUIN|    19           0.00391       -0.43750       -0.18750       -0.18750
 BRILLOUIN|    20           0.00391       -0.43750       -0.18750       -0.06250
 BRILLOUIN|    21           0.00391       -0.43750       -0.18750        0.06250
 BRILLOUIN|    22           0.00391       -0.43750       -0.18750        0.18750
 BRILLOUIN|    23           0.00391       -0.43750       -0.18750        0.31250
 BRILLOUIN|    24           0.00391       -0.43750       -0.18750        0.43750
 BRILLOUIN|    25           0.00391       -0.43750       -0.06250       -0.43750
 BRILLOUIN|    26           0.00391       -0.43750       -0.06250       -0.31250
 BRILLOUIN|    27           0.00391       -0.43750       -0.06250       -0.18750
 BRILLOUIN|    28           0.00391       -0.43750       -0.06250       -0.06250
 BRILLOUIN|    29           0.00391       -0.43750       -0.06250        0.06250
 BRILLOUIN|    30           0.00391       -0.43750       -0.06250        0.18750
 BRILLOUIN|    31           0.00391       -0.43750       -0.06250        0.31250
 BRILLOUIN|    32           0.00391       -0.43750       -0.06250        0.43750
 BRILLOUIN|    33           0.00391       -0.43750        0.06250       -0.43750
 BRILLOUIN|    34           0.00391       -0.43750        0.06250       -0.31250
 BRILLOUIN|    35           0.00391       -0.43750        0.06250       -0.18750
 BRILLOUIN|    36           0.00391       -0.43750        0.06250       -0.06250
 BRILLOUIN|    37           0.00391       -0.43750        0.06250        0.06250
 BRILLOUIN|    38           0.00391       -0.43750        0.06250        0.18750
 BRILLOUIN|    39           0.00391       -0.43750        0.06250        0.31250
 BRILLOUIN|    40           0.00391       -0.43750        0.06250        0.43750
 BRILLOUIN|    41           0.00391       -0.43750        0.18750       -0.43750
 BRILLOUIN|    42           0.00391       -0.43750        0.18750       -0.31250
 BRILLOUIN|    43           0.00391       -0.43750        0.18750       -0.18750
 BRILLOUIN|    44           0.00391       -0.43750        0.18750       -0.06250
 BRILLOUIN|    45           0.00391       -0.43750        0.18750        0.06250
 BRILLOUIN|    46           0.00391       -0.43750        0.18750        0.18750
 BRILLOUIN|    47           0.00391       -0.43750        0.18750        0.31250
 BRILLOUIN|    48           0.00391       -0.43750        0.18750        0.43750
 BRILLOUIN|    49           0.00391       -0.43750        0.31250       -0.43750
 BRILLOUIN|    50           0.00391       -0.43750        0.31250       -0.31250
 BRILLOUIN|    51           0.00391       -0.43750        0.31250       -0.18750
 BRILLOUIN|    52           0.00391       -0.43750        0.31250       -0.06250
 BRILLOUIN|    53           0.00391       -0.43750        0.31250        0.06250
 BRILLOUIN|    54           0.00391       -0.43750        0.31250        0.18750
 BRILLOUIN|    55           0.00391       -0.43750        0.31250        0.31250
 BRILLOUIN|    56           0.00391       -0.43750        0.31250        0.43750
 BRILLOUIN|    57           0.00391       -0.43750        0.43750       -0.43750
 BRILLOUIN|    58           0.00391       -0.43750        0.43750       -0.31250
 BRILLOUIN|    59           0.00391       -0.43750        0.43750       -0.18750
 BRILLOUIN|    60           0.00391       -0.43750        0.43750       -0.06250
 BRILLOUIN|    61           0.00391       -0.43750        0.43750        0.06250
 BRILLOUIN|    62           0.00391       -0.43750        0.43750        0.18750
 BRILLOUIN|    63           0.00391       -0.43750        0.43750        0.31250
 BRILLOUIN|    64           0.00391       -0.43750        0.43750        0.43750
 BRILLOUIN|    65           0.00391       -0.31250       -0.43750       -0.43750
 BRILLOUIN|    66           0.00391       -0.31250       -0.43750       -0.31250
 BRILLOUIN|    67           0.00391       -0.31250       -0.43750       -0.18750
 BRILLOUIN|    68           0.00391       -0.31250       -0.43750       -0.06250
 BRILLOUIN|    69           0.00391       -0.31250       -0.43750        0.06250
 BRILLOUIN|    70           0.00391       -0.31250       -0.43750        0.18750
 BRILLOUIN|    71           0.00391       -0.31250       -0.43750        0.31250
 BRILLOUIN|    72           0.00391       -0.31250       -0.43750        0.43750
 BRILLOUIN|    73           0.00391       -0.31250       -0.31250       -0.43750
 BRILLOUIN|    74           0.00391       -0.31250       -0.31250       -0.31250
 BRILLOUIN|    75           0.00391       -0.31250       -0.31250       -0.18750
 BRILLOUIN|    76           0.00391       -0.31250       -0.31250       -0.06250
 BRILLOUIN|    77           0.00391       -0.31250       -0.31250        0.06250
 BRILLOUIN|    78           0.00391       -0.31250       -0.31250        0.18750
 BRILLOUIN|    79           0.00391       -0.31250       -0.31250        0.31250
 BRILLOUIN|    80           0.00391       -0.31250       -0.31250        0.43750
 BRILLOUIN|    81           0.00391       -0.31250       -0.18750       -0.43750
 BRILLOUIN|    82           0.00391       -0.31250       -0.18750       -0.31250
 BRILLOUIN|    83           0.00391       -0.31250       -0.18750       -0.18750
 BRILLOUIN|    84           0.00391       -0.31250       -0.18750       -0.06250
 BRILLOUIN|    85           0.00391       -0.31250       -0.18750        0.06250
 BRILLOUIN|    86           0.00391       -0.31250       -0.18750        0.18750
 BRILLOUIN|    87           0.00391       -0.31250       -0.18750        0.31250
 BRILLOUIN|    88           0.00391       -0.31250       -0.18750        0.43750
 BRILLOUIN|    89           0.00391       -0.31250       -0.06250       -0.43750
 BRILLOUIN|    90           0.00391       -0.31250       -0.06250       -0.31250
 BRILLOUIN|    91           0.00391       -0.31250       -0.06250       -0.18750
 BRILLOUIN|    92           0.00391       -0.31250       -0.06250       -0.06250
 BRILLOUIN|    93           0.00391       -0.31250       -0.06250        0.06250
 BRILLOUIN|    94           0.00391       -0.31250       -0.06250        0.18750
 BRILLOUIN|    95           0.00391       -0.31250       -0.06250        0.31250
 BRILLOUIN|    96           0.00391       -0.31250       -0.06250        0.43750
 BRILLOUIN|    97           0.00391       -0.31250        0.06250       -0.43750
 BRILLOUIN|    98           0.00391       -0.31250        0.06250       -0.31250
 BRILLOUIN|    99           0.00391       -0.31250        0.06250       -0.18750
 BRILLOUIN|   100           0.00391       -0.31250        0.06250       -0.06250
 BRILLOUIN|   101           0.00391       -0.31250        0.06250        0.06250
 BRILLOUIN|   102           0.00391       -0.31250        0.06250        0.18750
 BRILLOUIN|   103           0.00391       -0.31250        0.06250        0.31250
 BRILLOUIN|   104           0.00391       -0.31250        0.06250        0.43750
 BRILLOUIN|   105           0.00391       -0.31250        0.18750       -0.43750
 BRILLOUIN|   106           0.00391       -0.31250        0.18750       -0.31250
 BRILLOUIN|   107           0.00391       -0.31250        0.18750       -0.18750
 BRILLOUIN|   108           0.00391       -0.31250        0.18750       -0.06250
 BRILLOUIN|   109           0.00391       -0.31250        0.18750        0.06250
 BRILLOUIN|   110           0.00391       -0.31250        0.18750        0.18750
 BRILLOUIN|   111           0.00391       -0.31250        0.18750        0.31250
 BRILLOUIN|   112           0.00391       -0.31250        0.18750        0.43750
 BRILLOUIN|   113           0.00391       -0.31250        0.31250       -0.43750
 BRILLOUIN|   114           0.00391       -0.31250        0.31250       -0.31250
 BRILLOUIN|   115           0.00391       -0.31250        0.31250       -0.18750
 BRILLOUIN|   116           0.00391       -0.31250        0.31250       -0.06250
 BRILLOUIN|   117           0.00391       -0.31250        0.31250        0.06250
 BRILLOUIN|   118           0.00391       -0.31250        0.31250        0.18750
 BRILLOUIN|   119           0.00391       -0.31250        0.31250        0.31250
 BRILLOUIN|   120           0.00391       -0.31250        0.31250        0.43750
 BRILLOUIN|   121           0.00391       -0.31250        0.43750       -0.43750
 BRILLOUIN|   122           0.00391       -0.31250        0.43750       -0.31250
 BRILLOUIN|   123           0.00391       -0.31250        0.43750       -0.18750
 BRILLOUIN|   124           0.00391       -0.31250        0.43750       -0.06250
 BRILLOUIN|   125           0.00391       -0.31250        0.43750        0.06250
 BRILLOUIN|   126           0.00391       -0.31250        0.43750        0.18750
 BRILLOUIN|   127           0.00391       -0.31250        0.43750        0.31250
 BRILLOUIN|   128           0.00391       -0.31250        0.43750        0.43750
 BRILLOUIN|   129           0.00391       -0.18750       -0.43750       -0.43750
 BRILLOUIN|   130           0.00391       -0.18750       -0.43750       -0.31250
 BRILLOUIN|   131           0.00391       -0.18750       -0.43750       -0.18750
 BRILLOUIN|   132           0.00391       -0.18750       -0.43750       -0.06250
 BRILLOUIN|   133           0.00391       -0.18750       -0.43750        0.06250
 BRILLOUIN|   134           0.00391       -0.18750       -0.43750        0.18750
 BRILLOUIN|   135           0.00391       -0.18750       -0.43750        0.31250
 BRILLOUIN|   136           0.00391       -0.18750       -0.43750        0.43750
 BRILLOUIN|   137           0.00391       -0.18750       -0.31250       -0.43750
 BRILLOUIN|   138           0.00391       -0.18750       -0.31250       -0.31250
 BRILLOUIN|   139           0.00391       -0.18750       -0.31250       -0.18750
 BRILLOUIN|   140           0.00391       -0.18750       -0.31250       -0.06250
 BRILLOUIN|   141           0.00391       -0.18750       -0.31250        0.06250
 BRILLOUIN|   142           0.00391       -0.18750       -0.31250        0.18750
 BRILLOUIN|   143           0.00391       -0.18750       -0.31250        0.31250
 BRILLOUIN|   144           0.00391       -0.18750       -0.31250        0.43750
 BRILLOUIN|   145           0.00391       -0.18750       -0.18750       -0.43750
 BRILLOUIN|   146           0.00391       -0.18750       -0.18750       -0.31250
 BRILLOUIN|   147           0.00391       -0.18750       -0.18750       -0.18750
 BRILLOUIN|   148           0.00391       -0.18750       -0.18750       -0.06250
 BRILLOUIN|   149           0.00391       -0.18750       -0.18750        0.06250
 BRILLOUIN|   150           0.00391       -0.18750       -0.18750        0.18750
 BRILLOUIN|   151           0.00391       -0.18750       -0.18750        0.31250
 BRILLOUIN|   152           0.00391       -0.18750       -0.18750        0.43750
 BRILLOUIN|   153           0.00391       -0.18750       -0.06250       -0.43750
 BRILLOUIN|   154           0.00391       -0.18750       -0.06250       -0.31250
 BRILLOUIN|   155           0.00391       -0.18750       -0.06250       -0.18750
 BRILLOUIN|   156           0.00391       -0.18750       -0.06250       -0.06250
 BRILLOUIN|   157           0.00391       -0.18750       -0.06250        0.06250
 BRILLOUIN|   158           0.00391       -0.18750       -0.06250        0.18750
 BRILLOUIN|   159           0.00391       -0.18750       -0.06250        0.31250
 BRILLOUIN|   160           0.00391       -0.18750       -0.06250        0.43750
 BRILLOUIN|   161           0.00391       -0.18750        0.06250       -0.43750
 BRILLOUIN|   162           0.00391       -0.18750        0.06250       -0.31250
 BRILLOUIN|   163           0.00391       -0.18750        0.06250       -0.18750
 BRILLOUIN|   164           0.00391       -0.18750        0.06250       -0.06250
 BRILLOUIN|   165           0.00391       -0.18750        0.06250        0.06250
 BRILLOUIN|   166           0.00391       -0.18750        0.06250        0.18750
 BRILLOUIN|   167           0.00391       -0.18750        0.06250        0.31250
 BRILLOUIN|   168           0.00391       -0.18750        0.06250        0.43750
 BRILLOUIN|   169           0.00391       -0.18750        0.18750       -0.43750
 BRILLOUIN|   170           0.00391       -0.18750        0.18750       -0.31250
 BRILLOUIN|   171           0.00391       -0.18750        0.18750       -0.18750
 BRILLOUIN|   172           0.00391       -0.18750        0.18750       -0.06250
 BRILLOUIN|   173           0.00391       -0.18750        0.18750        0.06250
 BRILLOUIN|   174           0.00391       -0.18750        0.18750        0.18750
 BRILLOUIN|   175           0.00391       -0.18750        0.18750        0.31250
 BRILLOUIN|   176           0.00391       -0.18750        0.18750        0.43750
 BRILLOUIN|   177           0.00391       -0.18750        0.31250       -0.43750
 BRILLOUIN|   178           0.00391       -0.18750        0.31250       -0.31250
 BRILLOUIN|   179           0.00391       -0.18750        0.31250       -0.18750
 BRILLOUIN|   180           0.00391       -0.18750        0.31250       -0.06250
 BRILLOUIN|   181           0.00391       -0.18750        0.31250        0.06250
 BRILLOUIN|   182           0.00391       -0.18750        0.31250        0.18750
 BRILLOUIN|   183           0.00391       -0.18750        0.31250        0.31250
 BRILLOUIN|   184           0.00391       -0.18750        0.31250        0.43750
 BRILLOUIN|   185           0.00391       -0.18750        0.43750       -0.43750
 BRILLOUIN|   186           0.00391       -0.18750        0.43750       -0.31250
 BRILLOUIN|   187           0.00391       -0.18750        0.43750       -0.18750
 BRILLOUIN|   188           0.00391       -0.18750        0.43750       -0.06250
 BRILLOUIN|   189           0.00391       -0.18750        0.43750        0.06250
 BRILLOUIN|   190           0.00391       -0.18750        0.43750        0.18750
 BRILLOUIN|   191           0.00391       -0.18750        0.43750        0.31250
 BRILLOUIN|   192           0.00391       -0.18750        0.43750        0.43750
 BRILLOUIN|   193           0.00391       -0.06250       -0.43750       -0.43750
 BRILLOUIN|   194           0.00391       -0.06250       -0.43750       -0.31250
 BRILLOUIN|   195           0.00391       -0.06250       -0.43750       -0.18750
 BRILLOUIN|   196           0.00391       -0.06250       -0.43750       -0.06250
 BRILLOUIN|   197           0.00391       -0.06250       -0.43750        0.06250
 BRILLOUIN|   198           0.00391       -0.06250       -0.43750        0.18750
 BRILLOUIN|   199           0.00391       -0.06250       -0.43750        0.31250
 BRILLOUIN|   200           0.00391       -0.06250       -0.43750        0.43750
 BRILLOUIN|   201           0.00391       -0.06250       -0.31250       -0.43750
 BRILLOUIN|   202           0.00391       -0.06250       -0.31250       -0.31250
 BRILLOUIN|   203           0.00391       -0.06250       -0.31250       -0.18750
 BRILLOUIN|   204           0.00391       -0.06250       -0.31250       -0.06250
 BRILLOUIN|   205           0.00391       -0.06250       -0.31250        0.06250
 BRILLOUIN|   206           0.00391       -0.06250       -0.31250        0.18750
 BRILLOUIN|   207           0.00391       -0.06250       -0.31250        0.31250
 BRILLOUIN|   208           0.00391       -0.06250       -0.31250        0.43750
 BRILLOUIN|   209           0.00391       -0.06250       -0.18750       -0.43750
 BRILLOUIN|   210           0.00391       -0.06250       -0.18750       -0.31250
 BRILLOUIN|   211           0.00391       -0.06250       -0.18750       -0.18750
 BRILLOUIN|   212           0.00391       -0.06250       -0.18750       -0.06250
 BRILLOUIN|   213           0.00391       -0.06250       -0.18750        0.06250
 BRILLOUIN|   214           0.00391       -0.06250       -0.18750        0.18750
 BRILLOUIN|   215           0.00391       -0.06250       -0.18750        0.31250
 BRILLOUIN|   216           0.00391       -0.06250       -0.18750        0.43750
 BRILLOUIN|   217           0.00391       -0.06250       -0.06250       -0.43750
 BRILLOUIN|   218           0.00391       -0.06250       -0.06250       -0.31250
 BRILLOUIN|   219           0.00391       -0.06250       -0.06250       -0.18750
 BRILLOUIN|   220           0.00391       -0.06250       -0.06250       -0.06250
 BRILLOUIN|   221           0.00391       -0.06250       -0.06250        0.06250
 BRILLOUIN|   222           0.00391       -0.06250       -0.06250        0.18750
 BRILLOUIN|   223           0.00391       -0.06250       -0.06250        0.31250
 BRILLOUIN|   224           0.00391       -0.06250       -0.06250        0.43750
 BRILLOUIN|   225           0.00391       -0.06250        0.06250       -0.43750
 BRILLOUIN|   226           0.00391       -0.06250        0.06250       -0.31250
 BRILLOUIN|   227           0.00391       -0.06250        0.06250       -0.18750
 BRILLOUIN|   228           0.00391       -0.06250        0.06250       -0.06250
 BRILLOUIN|   229           0.00391       -0.06250        0.06250        0.06250
 BRILLOUIN|   230           0.00391       -0.06250        0.06250        0.18750
 BRILLOUIN|   231           0.00391       -0.06250        0.06250        0.31250
 BRILLOUIN|   232           0.00391       -0.06250        0.06250        0.43750
 BRILLOUIN|   233           0.00391       -0.06250        0.18750       -0.43750
 BRILLOUIN|   234           0.00391       -0.06250        0.18750       -0.31250
 BRILLOUIN|   235           0.00391       -0.06250        0.18750       -0.18750
 BRILLOUIN|   236           0.00391       -0.06250        0.18750       -0.06250
 BRILLOUIN|   237           0.00391       -0.06250        0.18750        0.06250
 BRILLOUIN|   238           0.00391       -0.06250        0.18750        0.18750
 BRILLOUIN|   239           0.00391       -0.06250        0.18750        0.31250
 BRILLOUIN|   240           0.00391       -0.06250        0.18750        0.43750
 BRILLOUIN|   241           0.00391       -0.06250        0.31250       -0.43750
 BRILLOUIN|   242           0.00391       -0.06250        0.31250       -0.31250
 BRILLOUIN|   243           0.00391       -0.06250        0.31250       -0.18750
 BRILLOUIN|   244           0.00391       -0.06250        0.31250       -0.06250
 BRILLOUIN|   245           0.00391       -0.06250        0.31250        0.06250
 BRILLOUIN|   246           0.00391       -0.06250        0.31250        0.18750
 BRILLOUIN|   247           0.00391       -0.06250        0.31250        0.31250
 BRILLOUIN|   248           0.00391       -0.06250        0.31250        0.43750
 BRILLOUIN|   249           0.00391       -0.06250        0.43750       -0.43750
 BRILLOUIN|   250           0.00391       -0.06250        0.43750       -0.31250
 BRILLOUIN|   251           0.00391       -0.06250        0.43750       -0.18750
 BRILLOUIN|   252           0.00391       -0.06250        0.43750       -0.06250
 BRILLOUIN|   253           0.00391       -0.06250        0.43750        0.06250
 BRILLOUIN|   254           0.00391       -0.06250        0.43750        0.18750
 BRILLOUIN|   255           0.00391       -0.06250        0.43750        0.31250
 BRILLOUIN|   256           0.00391       -0.06250        0.43750        0.43750
 *******************************************************************************

 *******************************************************************************
 *******************************************************************************
 **                                                                           **
 **     #####                         ##              ##                      **
 **    ##   ##            ##          ##              ##                      **
 **   ##     ##                       ##            ######                    **
 **   ##     ##  ##   ##  ##   #####  ##  ##   ####   ##    #####    #####    **
 **   ##     ##  ##   ##  ##  ##      ## ##   ##      ##   ##   ##  ##   ##   **
 **   ##  ## ##  ##   ##  ##  ##      ####     ###    ##   ######   ######    **
 **    ##  ###   ##   ##  ##  ##      ## ##      ##   ##   ##       ##        **
 **     #######   #####   ##   #####  ##  ##  ####    ##    #####   ##        **
 **           ##                                                    ##        **
 **                                                                           **
 **                                                ... make the atoms dance   **
 **                                                                           **
 **            Copyright (C) by CP2K developers group (2000-2025)             **
 **                      J. Chem. Phys. 152, 194103 (2020)                    **
 **                                                                           **
 *******************************************************************************

 DFT| Spin restricted Kohn-Sham (RKS) calculation                            RKS
 DFT| Multiplicity                                                             1
 DFT| Number of spin states                                                    1
 DFT| Charge                                                                   0
 DFT| Self-interaction correction (SIC)                                       NO
 DFT| Cutoffs: density                                              1.000000E-10
 DFT|          gradient                                             1.000000E-10
 DFT|          tau                                                  1.000000E-10
 DFT|          cutoff_smoothing_range                               0.000000E+00
 DFT| XC density smoothing                                                  NONE
 DFT| XC derivatives                                                          PW

 FUNCTIONAL| PBE:
 FUNCTIONAL| J.P.Perdew, K.Burke, M.Ernzerhof, Phys. Rev. Letter, vol. 77, n 18,
 FUNCTIONAL|  pp. 3865-3868, (1996) {spin unpolarized}                          


 QS| Method:                                                                 GPW
 QS| Density plane wave grid type                        NON-SPHERICAL FULLSPACE
 QS| Number of grid levels:                                                    4
 QS| Density cutoff [a.u.]:                                                500.0
 QS| Multi grid cutoff [a.u.]: 1) grid level                               500.0
 QS|                           2) grid level                               166.7
 QS|                           3) grid level                                55.6
 QS|                           4) grid level                                18.5
 QS| Grid level progression factor:                                          3.0
 QS| Relative density cutoff [a.u.]:                                        50.0
 QS| Interaction thresholds: eps_pgf_orb:                                1.0E-16
 QS|                         eps_filter_matrix:                          0.0E+00
 QS|                         eps_core_charge:                            1.0E-18
 QS|                         eps_rho_gspace:                             1.0E-16
 QS|                         eps_rho_rspace:                             1.0E-16
 QS|                         eps_gvg_rspace:                             1.0E-08
 QS|                         eps_ppl:                                    1.0E-02
 QS|                         eps_ppnl:                                   1.0E-10


 ATOMIC KIND INFORMATION

  1. Atomic kind: F                                     Number of atoms:       8

     Orbital Basis Set                                   TZV2P-MOLOPT-GGA-GTH-q7

       Number of orbital shell sets:                                           1
       Number of orbital shells:                                               9
       Number of primitive Cartesian functions:                                5
       Number of Cartesian basis functions:                                   34
       Number of spherical basis functions:                                   29
       Norm type:                                                              2

       Normalised Cartesian orbitals:

                        Set   Shell   Orbital            Exponent    Coefficient

                          1       1    2s               13.230128       0.586894
                                                         4.658958       0.272548
                                                         1.661071      -0.478804
                                                         0.582845      -0.325281
                                                         0.184059      -0.003128

                          1       2    3s               13.230128      -0.044044
                                                         4.658958      -0.052062
                                                         1.661071      -0.023315
                                                         0.582845       0.015410
                                                         0.184059      -0.201893

                          1       3    4s               13.230128      -0.685993
                                                         4.658958      -0.857562
                                                         1.661071      -0.924267
                                                         0.582845       0.239042
                                                         0.184059       0.009157

                          1       4    3px              13.230128      -2.287349
                                                         4.658958      -1.957073
                                                         1.661071      -0.989276
                                                         0.582845      -0.301726
                                                         0.184059      -0.038285
                          1       4    3py              13.230128      -2.287349
                                                         4.658958      -1.957073
                                                         1.661071      -0.989276
                                                         0.582845      -0.301726
                                                         0.184059      -0.038285
                          1       4    3pz              13.230128      -2.287349
                                                         4.658958      -1.957073
                                                         1.661071      -0.989276
                                                         0.582845      -0.301726
                                                         0.184059      -0.038285

                          1       5    4px              13.230128       1.796410
                                                         4.658958       1.345222
                                                         1.661071       0.720906
                                                         0.582845       0.207142
                                                         0.184059      -0.191408
                          1       5    4py              13.230128       1.796410
                                                         4.658958       1.345222
                                                         1.661071       0.720906
                                                         0.582845       0.207142
                                                         0.184059      -0.191408
                          1       5    4pz              13.230128       1.796410
                                                         4.658958       1.345222
                                                         1.661071       0.720906
                                                         0.582845       0.207142
                                                         0.184059      -0.191408

                          1       6    5px              13.230128      26.308008
                                                         4.658958       0.669706
                                                         1.661071       1.489430
                                                         0.582845      -0.465500
                                                         0.184059       0.001793
                          1       6    5py              13.230128      26.308008
                                                         4.658958       0.669706
                                                         1.661071       1.489430
                                                         0.582845      -0.465500
                                                         0.184059       0.001793
                          1       6    5pz              13.230128      26.308008
                                                         4.658958       0.669706
                                                         1.661071       1.489430
                                                         0.582845      -0.465500
                                                         0.184059       0.001793

                          1       7    4dx2             13.230128       5.592265
                                                         4.658958       1.202899
                                                         1.661071       1.104191
                                                         0.582845       0.533766
                                                         0.184059      -0.009890
                          1       7    4dxy             13.230128       9.686087
                                                         4.658958       2.083481
                                                         1.661071       1.912514
                                                         0.582845       0.924509
                                                         0.184059      -0.017130
                          1       7    4dxz             13.230128       9.686087
                                                         4.658958       2.083481
                                                         1.661071       1.912514
                                                         0.582845       0.924509
                                                         0.184059      -0.017130
                          1       7    4dy2             13.230128       5.592265
                                                         4.658958       1.202899
                                                         1.661071       1.104191
                                                         0.582845       0.533766
                                                         0.184059      -0.009890
                          1       7    4dyz             13.230128       9.686087
                                                         4.658958       2.083481
                                                         1.661071       1.912514
                                                         0.582845       0.924509
                                                         0.184059      -0.017130
                          1       7    4dz2             13.230128       5.592265
                                                         4.658958       1.202899
                                                         1.661071       1.104191
                                                         0.582845       0.533766
                                                         0.184059      -0.009890

                          1       8    5dx2             13.230128       1.421148
                                                         4.658958       0.049543
                                                         1.661071       0.147053
                                                         0.582845       0.073835
                                                         0.184059       0.078288
                          1       8    5dxy             13.230128       2.461501
                                                         4.658958       0.085812
                                                         1.661071       0.254703
                                                         0.582845       0.127886
                                                         0.184059       0.135599
                          1       8    5dxz             13.230128       2.461501
                                                         4.658958       0.085812
                                                         1.661071       0.254703
                                                         0.582845       0.127886
                                                         0.184059       0.135599
                          1       8    5dy2             13.230128       1.421148
                                                         4.658958       0.049543
                                                         1.661071       0.147053
                                                         0.582845       0.073835
                                                         0.184059       0.078288
                          1       8    5dyz             13.230128       2.461501
                                                         4.658958       0.085812
                                                         1.661071       0.254703
                                                         0.582845       0.127886
                                                         0.184059       0.135599
                          1       8    5dz2             13.230128       1.421148
                                                         4.658958       0.049543
                                                         1.661071       0.147053
                                                         0.582845       0.073835
                                                         0.184059       0.078288

                          1       9    5fx3             13.230128       0.351491
                                                         4.658958      -0.348904
                                                         1.661071       0.009066
                                                         0.582845       0.437175
                                                         0.184059      -0.000045
                          1       9    5fx2y            13.230128       0.785957
                                                         4.658958      -0.780172
                                                         1.661071       0.020273
                                                         0.582845       0.977552
                                                         0.184059      -0.000100
                          1       9    5fx2z            13.230128       0.785957
                                                         4.658958      -0.780172
                                                         1.661071       0.020273
                                                         0.582845       0.977552
                                                         0.184059      -0.000100
                          1       9    5fxy2            13.230128       0.785957
                                                         4.658958      -0.780172
                                                         1.661071       0.020273
                                                         0.582845       0.977552
                                                         0.184059      -0.000100
                          1       9    5fxyz            13.230128       1.361318
                                                         4.658958      -1.351298
                                                         1.661071       0.035114
                                                         0.582845       1.693170
                                                         0.184059      -0.000173
                          1       9    5fxz2            13.230128       0.785957
                                                         4.658958      -0.780172
                                                         1.661071       0.020273
                                                         0.582845       0.977552
                                                         0.184059      -0.000100
                          1       9    5fy3             13.230128       0.351491
                                                         4.658958      -0.348904
                                                         1.661071       0.009066
                                                         0.582845       0.437175
                                                         0.184059      -0.000045
                          1       9    5fy2z            13.230128       0.785957
                                                         4.658958      -0.780172
                                                         1.661071       0.020273
                                                         0.582845       0.977552
                                                         0.184059      -0.000100
                          1       9    5fyz2            13.230128       0.785957
                                                         4.658958      -0.780172
                                                         1.661071       0.020273
                                                         0.582845       0.977552
                                                         0.184059      -0.000100
                          1       9    5fz3             13.230128       0.351491
                                                         4.658958      -0.348904
                                                         1.661071       0.009066
                                                         0.582845       0.437175
                                                         0.184059      -0.000045

       Atomic covalent radius [Angstrom]:                                  0.720

       Atomic van der Waals radius [Angstrom]:                             1.470

     GTH Potential information for                                    GTH-PBE-q7

       Description:                       Goedecker-Teter-Hutter pseudopotential
                                           Goedecker et al., PRB 54, 1703 (1996)
                                          Hartwigsen et al., PRB 58, 3641 (1998)
                                                      Krack, TCA 114, 145 (2005)

       Gaussian exponent of the core charge distribution:              10.823746
       Electronic configuration (s p d ...):                               2   5

       Parameters of the local part of the GTH pseudopotential:

                          rloc        C1          C2          C3          C4
                        0.214930  -21.573028    3.199776

       Parameters of the non-local part of the GTH (SOC) pseudopotential:

                   l      r(l)      h(i,j,l)
                                    k(i,j,l)
                   0    0.194684   23.743540
                   1    0.186156    0.000000
                                    0.012614


 MOLECULE KIND INFORMATION


 All atoms are their own molecule, skipping detailed information


 TOTAL NUMBERS AND MAXIMUM NUMBERS

  Total number of            - Atomic kinds:                                   1
                             - Atoms:                                          8
                             - Shell sets:                                     8
                             - Shells:                                        72
                             - Primitive Cartesian functions:                 40
                             - Cartesian basis functions:                    272
                             - Spherical basis functions:                    232

  Maximum angular momentum of- Orbital basis functions:                        3
                             - Local part of the GTH pseudopotential:          2
                             - Non-local part of the GTH pseudopotential:      1


 MODULE QUICKSTEP: ATOMIC COORDINATES IN ANGSTROM

   Atom Kind Element         X             Y             Z       Z(eff)     Mass
      1    1 F     9      1.494682      1.217172      0.647338   7.0000  18.9984
      2    1 F     9      3.851374      2.467878      6.229727   7.0000  18.9984
      3    1 F     9      4.259896      1.217172      2.791194   7.0000  18.9984
      4    1 F     9      1.086161      2.467878      4.085871   7.0000  18.9984
      5    1 F     9      4.576232      3.059697      0.647338   7.0000  18.9984
      6    1 F     9      0.769824      0.625353      6.229727   7.0000  18.9984
      7    1 F     9      1.178346      3.059697      2.791194   7.0000  18.9984
      8    1 F     9      4.167711      0.625353      4.085871   7.0000  18.9984



 SCF PARAMETERS         Density guess:                                    ATOMIC
                        --------------------------------------------------------
                        max_scf:                                             500
                        max_scf_history:                                       0
                        max_diis:                                              4
                        --------------------------------------------------------
                        eps_scf:                                        1.00E-09
                        eps_scf_history:                                0.00E+00
                        eps_diis:                                       1.00E-01
                        eps_eigval:                                     1.00E-05
                        --------------------------------------------------------
                        level_shift [a.u.]:                             0.000000
                        added MOs                                       204    0
                        --------------------------------------------------------
                        Mixing method:                            BROYDEN_MIXING
                                                charge density mixing in g-space
                        --------------------------------------------------------
                        No outer SCF

 PW_GRID| Information for grid number                                          1
 PW_GRID| Grid distributed over                                     8 processors
 PW_GRID| Real space group dimensions                                     8    1
 PW_GRID| the grid is blocked:                                                NO
 PW_GRID| Cutoff [a.u.]                                                    500.0
 PW_GRID| spherical cutoff:                                                   NO
 PW_GRID|   Bounds   1            -60      59                Points:         120
 PW_GRID|   Bounds   2            -36      35                Points:          72
 PW_GRID|   Bounds   3            -67      67                Points:         135
 PW_GRID| Volume element (a.u.^3)  0.9036E-03     Volume (a.u.^3)      1054.0042
 PW_GRID| Grid span                                                    FULLSPACE
 PW_GRID|   Distribution                         Average         Max         Min
 PW_GRID|   G-Vectors                           145800.0      145800      145800
 PW_GRID|   G-Rays                                1215.0        1215        1215
 PW_GRID|   Real Space Points                   145800.0      145800      145800

 PW_GRID| Information for grid number                                          2
 PW_GRID| Number of the reference grid                                         1
 PW_GRID| Grid distributed over                                     8 processors
 PW_GRID| Real space group dimensions                                     8    1
 PW_GRID| the grid is blocked:                                                NO
 PW_GRID| Cutoff [a.u.]                                                    166.7
 PW_GRID| spherical cutoff:                                                   NO
 PW_GRID|   Bounds   1            -36      35                Points:          72
 PW_GRID|   Bounds   2            -22      22                Points:          45
 PW_GRID|   Bounds   3            -40      39                Points:          80
 PW_GRID| Volume element (a.u.^3)  0.4066E-02     Volume (a.u.^3)      1054.0042
 PW_GRID| Grid span                                                    FULLSPACE
 PW_GRID|   Distribution                         Average         Max         Min
 PW_GRID|   G-Vectors                            32400.0       32688       32040
 PW_GRID|   G-Rays                                 450.0         454         445
 PW_GRID|   Real Space Points                    32400.0       32400       32400

 PW_GRID| Information for grid number                                          3
 PW_GRID| Number of the reference grid                                         1
 PW_GRID| Grid distributed over                                     8 processors
 PW_GRID| Real space group dimensions                                     8    1
 PW_GRID| the grid is blocked:                                                NO
 PW_GRID| Cutoff [a.u.]                                                     55.6
 PW_GRID| spherical cutoff:                                                   NO
 PW_GRID|   Bounds   1            -20      19                Points:          40
 PW_GRID|   Bounds   2            -12      11                Points:          24
 PW_GRID|   Bounds   3            -22      22                Points:          45
 PW_GRID| Volume element (a.u.^3)  0.2440E-01     Volume (a.u.^3)      1054.0042
 PW_GRID| Grid span                                                    FULLSPACE
 PW_GRID|   Distribution                         Average         Max         Min
 PW_GRID|   G-Vectors                             5400.0        5560        5280
 PW_GRID|   G-Rays                                 135.0         139         132
 PW_GRID|   Real Space Points                     5400.0        5400        5400

 PW_GRID| Information for grid number                                          4
 PW_GRID| Number of the reference grid                                         1
 PW_GRID| Grid distributed over                                     8 processors
 PW_GRID| Real space group dimensions                                     8    1
 PW_GRID| the grid is blocked:                                                NO
 PW_GRID| Cutoff [a.u.]                                                     18.5
 PW_GRID| spherical cutoff:                                                   NO
 PW_GRID|   Bounds   1            -12      11                Points:          24
 PW_GRID|   Bounds   2             -7       7                Points:          15
 PW_GRID|   Bounds   3            -12      12                Points:          25
 PW_GRID| Volume element (a.u.^3)  0.1171         Volume (a.u.^3)      1054.0042
 PW_GRID| Grid span                                                    FULLSPACE
 PW_GRID|   Distribution                         Average         Max         Min
 PW_GRID|   G-Vectors                             1125.0        1152        1080
 PW_GRID|   G-Rays                                  46.9          48          45
 PW_GRID|   Real Space Points                     1125.0        1125        1125

 POISSON| Solver                                                        PERIODIC
 POISSON| Periodicity                                                        XYZ

 RS_GRID| Information for grid number                                          1
 RS_GRID|   Bounds   1            -60      59                Points:         120
 RS_GRID|   Bounds   2            -36      35                Points:          72
 RS_GRID|   Bounds   3            -67      67                Points:         135
 RS_GRID| Real space fully replicated
 RS_GRID| Group size                                                           1

 RS_GRID| Information for grid number                                          2
 RS_GRID|   Bounds   1            -36      35                Points:          72
 RS_GRID|   Bounds   2            -22      22                Points:          45
 RS_GRID|   Bounds   3            -40      39                Points:          80
 RS_GRID| Real space fully replicated
 RS_GRID| Group size                                                           1

 RS_GRID| Information for grid number                                          3
 RS_GRID|   Bounds   1            -20      19                Points:          40
 RS_GRID|   Bounds   2            -12      11                Points:          24
 RS_GRID|   Bounds   3            -22      22                Points:          45
 RS_GRID| Real space fully replicated
 RS_GRID| Group size                                                           1

 RS_GRID| Information for grid number                                          4
 RS_GRID|   Bounds   1            -12      11                Points:          24
 RS_GRID|   Bounds   2             -7       7                Points:          15
 RS_GRID|   Bounds   3            -12      12                Points:          25
 RS_GRID| Real space fully replicated
 RS_GRID| Group size                                                           1

 Number of electrons:                                                         56
 Number of occupied orbitals:                                                 28
 Number of molecular orbitals:                                               232

 Number of orbital functions:                                                232
 Number of independent orbital functions:                                    232

 Extrapolation method: initial_guess

 Atomic guess: The first density matrix is obtained in terms of atomic orbitals
               and electronic configurations assigned to each atomic kind

 Guess for atomic kind: F

 Electronic structure
    Total number of core electrons                                          2.00
    Total number of valence electrons                                       7.00
    Total number of electrons                                               9.00
    Multiplicity                                                   not specified
    S   [  2.00] 2.00
    P      5.00


 *******************************************************************************
                  Iteration          Convergence                     Energy [au]
 *******************************************************************************
                          1         1.47188                     -23.752466109825
                          2         1.46265                     -23.762636152079
                          3        0.133946                     -23.937199306451
                          4        0.601496E-02                 -23.938951812246
                          5        0.256100E-04                 -23.938954291346
                          6        0.504752E-06                 -23.938954291370

 Energy components [Hartree]           Total Energy ::          -23.938954291370
                                        Band Energy ::           -4.156708318506
                                     Kinetic Energy ::           18.800019433751
                                   Potential Energy ::          -42.738973725121
                                      Virial (-V/T) ::            2.273347316248
                                        Core Energy ::          -40.723580319163
                                          XC Energy ::           -4.362577982292
                                     Coulomb Energy ::           21.147204010085
                       Total Pseudopotential Energy ::          -59.557978613763
                       Local Pseudopotential Energy ::          -61.262411517606
                    Nonlocal Pseudopotential Energy ::            1.704432903843
                                        Confinement ::            0.343788608493

 Orbital energies  State     L     Occupation   Energy[a.u.]          Energy[eV]

                       1     0          2.000      -1.085365          -29.534271

                       1     1          5.000      -0.397196          -10.808249


 Total Electron Density at R=0:                                         0.000088
 Re-scaling the density matrix to get the right number of electrons
                  # Electrons              Trace(P)               Scaling factor
                           56                56.000                        1.000


 SCF WAVEFUNCTION OPTIMIZATION

  Step     Update method      Time    Convergence         Total energy    Change
  ------------------------------------------------------------------------------
     1 NoMix/Diag. 0.50E-01    4.2     0.74274221      -193.5637422878 -1.94E+02
     2 Broy./Diag. 0.50E-01    4.0     0.00237654      -192.1096225595  1.45E+00
     3 Broy./Diag. 0.50E-01    4.0     0.04664837      -193.1073460579 -9.98E-01
     4 Broy./Diag. 0.50E-01    4.0     0.00019258      -194.1943169006 -1.09E+00
     5 Broy./Diag. 0.50E-01    4.1     0.00805814      -193.6185409134  5.76E-01
     6 Broy./Diag. 0.50E-01    4.0     0.00004773      -193.1452844404  4.73E-01
     7 Broy./Diag. 0.50E-01    4.1     0.00228702      -193.2983634429 -1.53E-01
     8 Broy./Diag. 0.50E-01    4.1     0.00003242      -193.3887853652 -9.04E-02
     9 Broy./Diag. 0.50E-01    4.1     0.00053857      -193.3545532778  3.42E-02
    10 Broy./Diag. 0.50E-01    4.1     0.00001408      -193.3102873640  4.43E-02
    11 Broy./Diag. 0.50E-01    4.0     0.00017073      -193.3181944610 -7.91E-03
    12 Broy./Diag. 0.50E-01    4.1     0.00000465      -193.3206909581 -2.50E-03
    13 Broy./Diag. 0.50E-01    4.1     0.00005042      -193.3203882084  3.03E-04
    14 Broy./Diag. 0.50E-01    4.1     0.00000148      -193.3196135142  7.75E-04
    15 Broy./Diag. 0.50E-01    4.1     0.00000573      -193.3197604939 -1.47E-04
    16 Broy./Diag. 0.50E-01    4.1     0.00000449      -193.3200739272 -3.13E-04
    17 Broy./Diag. 0.50E-01    4.1     0.00000127      -193.3200768731 -2.95E-06
    18 Broy./Diag. 0.50E-01    4.1     0.00000350      -193.3197440373  3.33E-04
    19 Broy./Diag. 0.50E-01    4.0     0.00000066      -193.3195817842  1.62E-04
    20 Broy./Diag. 0.50E-01    4.1     0.00000563      -193.3197768501 -1.95E-04
    21 Broy./Diag. 0.50E-01    4.1     0.00000024      -193.3199596117 -1.83E-04
    22 Broy./Diag. 0.50E-01    4.0     0.00000137      -193.3198462109  1.13E-04
    23 Broy./Diag. 0.50E-01    4.0     0.00000026      -193.3197765541  6.97E-05
    24 Broy./Diag. 0.50E-01    4.0     0.00000039      -193.3197776536 -1.10E-06
    25 Broy./Diag. 0.50E-01    4.1     0.00000049      -193.3197760608  1.59E-06
    26 Broy./Diag. 0.50E-01    4.0     0.00000054      -193.3197600821  1.60E-05
    27 Broy./Diag. 0.50E-01    4.0     0.00000021      -193.3197602333 -1.51E-07
    28 Broy./Diag. 0.50E-01    4.0     0.00000025      -193.3197780538 -1.78E-05
    29 Broy./Diag. 0.50E-01    4.0     0.00000021      -193.3197832181 -5.16E-06
    30 Broy./Diag. 0.50E-01    4.0     0.00000031      -193.3197637372  1.95E-05
    31 Broy./Diag. 0.50E-01    4.0     0.00000005      -193.3197530298  1.07E-05
    32 Broy./Diag. 0.50E-01    4.0     0.00000017      -193.3197666026 -1.36E-05
    33 Broy./Diag. 0.50E-01    4.0     0.00000006      -193.3197721395 -5.54E-06
    34 Broy./Diag. 0.50E-01    4.0     0.00000007      -193.3197633218  8.82E-06
    35 Broy./Diag. 0.50E-01    4.0     0.00000006      -193.3197582396  5.08E-06
    36 Broy./Diag. 0.50E-01    4.0     0.00000004      -193.3197583031 -6.35E-08
    37 Broy./Diag. 0.50E-01    4.0     0.00000001      -193.3197580857  2.17E-07
    38 Broy./Diag. 0.50E-01    4.0     0.00000002      -193.3197568463  1.24E-06
    39 Broy./Diag. 0.50E-01    4.0     0.00000001      -193.3197567524  9.39E-08
    40 Broy./Diag. 0.50E-01    4.0     0.00000002      -193.3197581921 -1.44E-06
    41 Broy./Diag. 0.50E-01    4.0     8.4614E-09      -193.3197592489 -1.06E-06
    42 Broy./Diag. 0.50E-01    4.0     0.00000001      -193.3197585828  6.66E-07
    43 Broy./Diag. 0.50E-01    4.0     7.3915E-09      -193.3197582318  3.51E-07
    44 Broy./Diag. 0.50E-01    4.0     0.00000002      -193.3197593552 -1.12E-06
    45 Broy./Diag. 0.50E-01    4.1     3.5260E-09      -193.3197602870 -9.32E-07
    46 Broy./Diag. 0.50E-01    4.0     8.7461E-09      -193.3197602004  8.66E-08
    47 Broy./Diag. 0.50E-01    4.0     1.4850E-09      -193.3197600997  1.01E-07
    48 Broy./Diag. 0.50E-01    4.0     3.7729E-09      -193.3197602136 -1.14E-07
    49 Broy./Diag. 0.50E-01    4.0     1.0055E-09      -193.3197601873  2.63E-08
    50 Broy./Diag. 0.50E-01    4.0     2.7303E-09      -193.3197599213  2.66E-07
    51 Broy./Diag. 0.50E-01    4.0     2.5335E-09      -193.3197596821  2.39E-07
    52 Broy./Diag. 0.50E-01    4.0     2.5111E-09      -193.3197597196 -3.75E-08
    53 Broy./Diag. 0.50E-01    4.0     1.5430E-09      -193.3197598284 -1.09E-07
    54 Broy./Diag. 0.50E-01    4.0     3.8352E-09      -193.3197596974  1.31E-07
    55 Broy./Diag. 0.50E-01    4.0     8.6421E-10      -193.3197596114  8.61E-08

  *** SCF run converged in    55 steps ***


  Electronic density on regular grids:        -56.0000000000       -0.0000000000
  Core density on regular grids:               56.0000000000       -0.0000000000
  Total charge density on r-space grids:       -0.0000000000
  Total charge density g-space grids:          -0.0000000000

  Overlap energy of the core charge distribution:               0.00000000000000
  Self energy of the core charge distribution:               -514.49946177890274
  Core Hamiltonian energy:                                    142.92069516349588
  Hartree energy:                                             214.84790437382171
  Exchange-correlation energy:                                -36.58889736976877

  Total energy:                                              -193.31975961135390

 !-----------------------------------------------------------------------------!
                     Mulliken Population Analysis

 #  Atom  Element  Kind  Atomic population                           Net charge
       1     F        1          6.999999                              0.000001
       2     F        1          6.999999                              0.000001
       3     F        1          7.000001                             -0.000001
       4     F        1          7.000001                             -0.000001
       5     F        1          6.999999                              0.000001
       6     F        1          6.999999                              0.000001
       7     F        1          7.000001                             -0.000001
       8     F        1          7.000001                             -0.000001
 # Total charge                             56.000000                 -0.000000

 !-----------------------------------------------------------------------------!

 !-----------------------------------------------------------------------------!
                           Hirshfeld Charges

  #Atom  Element  Kind  Ref Charge     Population                    Net charge
      1       F      1       7.000          7.000                         0.000
      2       F      1       7.000          7.000                         0.000
      3       F      1       7.000          7.000                        -0.000
      4       F      1       7.000          7.000                        -0.000
      5       F      1       7.000          7.000                         0.000
      6       F      1       7.000          7.000                         0.000
      7       F      1       7.000          7.000                        -0.000
      8       F      1       7.000          7.000                        -0.000

  Total Charge                                                            0.000
 !-----------------------------------------------------------------------------!

 KPOINTS| Band Structure Calculation
 KPOINTS| Number of k-point sets                                               1
 KPOINTS| Number of added MOs/bands                                           -1
 KPOINTS| Number of k-points in set    1                                     148
 KPOINTS| In units of b-vector [2pi/Bohr]
 KPOINTS| Special point     1 not specifi     0.000000     0.000000     0.000000
 KPOINTS| Special point     2 not specifi     0.340639     0.340639     0.000000
 KPOINTS| Special point     3 not specifi    -0.500000     0.500000     0.000000
 KPOINTS| Special point     4 not specifi     0.000000     0.000000     0.000000
 KPOINTS| Time for k-point line                                            2.347

 ENERGY| Total FORCE_EVAL ( QS ) energy [hartree]           -193.319759611353902

 -------------------------------------------------------------------------------
 -                                                                             -
 -                                DBCSR STATISTICS                             -
 -                                                                             -
 -------------------------------------------------------------------------------
 COUNTER                                    TOTAL       BLAS       SMM       ACC
 flops inhomo. stacks                           0       0.0%      0.0%      0.0%
 flops total                         0.000000E+00       0.0%      0.0%      0.0%
 flops max/rank                      0.000000E+00       0.0%      0.0%      0.0%
 matmuls inhomo. stacks                         0       0.0%      0.0%      0.0%
 matmuls total                                  0       0.0%      0.0%      0.0%
 number of processed stacks                     0       0.0%      0.0%      0.0%
 average stack size                                     0.0       0.0       0.0
 marketing flops                     0.000000E+00
 -------------------------------------------------------------------------------
 -                                                                             -
 -                      DBCSR MESSAGE PASSING PERFORMANCE                      -
 -                                                                             -
 -------------------------------------------------------------------------------
 ROUTINE             CALLS      AVE VOLUME [Bytes]
 MP_Bcast                1                     12.
 MP_Allreduce           19                     21.
 MP_Alltoall       1171896                  27487.
 -------------------------------------------------------------------------------

 -------------------------------------------------------------------------------
 -                                                                             -
 -                                DBM STATISTICS                               -
 -                                                                             -
 -------------------------------------------------------------------------------
    M  x    N  x    K                                          COUNT     PERCENT
 -------------------------------------------------------------------------------

 -------------------------------------------------------------------------------
 -                                                                             -
 -                                GRID STATISTICS                              -
 -                                                                             -
 -------------------------------------------------------------------------------
 LP    KERNEL             BACKEND                              COUNT     PERCENT
 6     collocate general  CPU                                 484736      50.45%
 6     integrate general  CPU                                 476080      49.55%
 0     collocate general  CPU                                     16       0.00%
 0     integrate general  CPU                                      8       0.00%
 -------------------------------------------------------------------------------

 MEMORY| Estimated peak process memory [MiB]                                 643

 -------------------------------------------------------------------------------
 ----                             MULTIGRID INFO                            ----
 -------------------------------------------------------------------------------
 count for grid        1:          45816          cutoff [a.u.]          500.00
 count for grid        2:          19680          cutoff [a.u.]          166.67
 count for grid        3:           9168          cutoff [a.u.]           55.56
 count for grid        4:           6576          cutoff [a.u.]           18.52
 total gridlevel count  :          81240

 -------------------------------------------------------------------------------
 -                                                                             -
 -                         MESSAGE PASSING PERFORMANCE                         -
 -                                                                             -
 -------------------------------------------------------------------------------

 ROUTINE             CALLS      AVE VOLUME [Bytes]
 MP_Group                6
 MP_Bcast           511558                   8490.
 MP_Allreduce        34716                    783.
 MP_Sync                 4
 MP_Alltoall           995                6487904.
 MP_SendRecv          1582                 376503.
 MP_ISendRecv         1547                 373056.
 MP_Wait            352543
 MP_comm_split           4
 MP_ISend           373004                  12287.
 MP_IRecv           596096                   7697.
 -------------------------------------------------------------------------------


 -------------------------------------------------------------------------------
 -                                                                             -
 -                           R E F E R E N C E S                               -
 -                                                                             -
 -------------------------------------------------------------------------------
 
 CP2K version 2025.1 (Development Version), the CP2K developers group (2025).
 CP2K is freely available from https://www.cp2k.org/ .
 
 T. D. Kuehne, M. Iannuzzi, M. Del Ben, V. V. Rybkin, P. Seewald, F. Stein, T. 
 Laino, R. Z. Khaliullin, O. Schuett, F. Schiffmann, D. Golze, J. Wilhelm, S. 
 Chulkov, M. H. Bani-Hashemian, V. Weber, U. Borstnik, M. Taillefumier, A. S. 
 Jakobovits, A. Lazzaro, H. Pabst, T. Mueller, R. Schade, M. Guidon, S. 
 Andermatt, N. Holmberg, G. K. Schenter, A. Hehn, A. Bussy, F. Belleflamme, G. 
 Tabacchi, A. Gloess, M. Lass, I. Bethune, C. J. Mundy, C. Plessl, M. Watkins, 
 J. VandeVondele, M. Krack, J. Hutter.
 J. Chem. Phys. 152, 194103 (2020).
 CP2K: An electronic structure and molecular dynamics software package - 
 Quickstep: Efficient and accurate electronic structure calculations.
 https://doi.org/10.1063/5.0007045

 O. Schuett, P. Messmer, J. Hutter, J. VandeVondele.
 Electronic Structure Calculations on Graphics Processing Units, 173-190 (2016).
 GPU-Accelerated Sparse Matrix-Matrix Multiplication for Linear Scaling Density 
 Functional Theory.
 https://doi.org/10.1002/9781118670712.ch8

 J. Hutter, M. Iannuzzi, F. Schiffmann, J. VandeVondele.
 WIREs Comput Mol Sci. 4, 15-25 (2014).
 CP2K: atomistic simulations of condensed matter systems.
 https://doi.org/10.1002/wcms.1159

 U. Borstnik, J. VandeVondele, V. Weber, J. Hutter.
 Parallel Comput. 40, 47-58 (2014).
 Sparse matrix multiplication: The distributed block-compressed sparse row 
 library.
 https://doi.org/10.1016/j.parco.2014.03.012

 J. VandeVondele, J. Hutter.
 J. Chem. Phys. 127, 114105 (2007).
 Gaussian basis sets for accurate calculations on molecular systems in gas and 
 condensed phases.
 https://doi.org/10.1063/1.2770708

 J. VandeVondele, M. Krack, F. Mohamed, M. Parrinello, T. Chassaing, J. Hutter.
 Comput. Phys. Commun. 167, 103-128 (2005).
 QUICKSTEP: Fast and accurate density functional calculations using a mixed 
 Gaussian and plane waves approach.
 https://doi.org/10.1016/j.cpc.2004.12.014

 M. Krack.
 Theor. Chem. Acc. 114, 145-152 (2005).
 Pseudopotentials for H to Kr optimized for gradient-corrected 
 exchange-correlation functionals.
 https://doi.org/10.1007/s00214-005-0655-y

 M. Frigo, S. G. Johnson.
 Proc. IEEE 93, 216-231 (2005).
 The design and implementation of FFTW3.
 https://doi.org/10.1109/JPROC.2004.840301

 C. Hartwigsen, S. Goedecker, J. Hutter.
 Phys. Rev. B 58, 3641-3662 (1998).
 Relativistic separable dual-space Gaussian pseudopotentials from H to Rn.
 https://doi.org/10.1103/PhysRevB.58.3641

 G. Lippert, J. Hutter, M. Parrinello.
 Mol. Phys. 92, 477-487 (1997).
 A hybrid Gaussian and plane wave density functional scheme.
 https://doi.org/10.1080/002689797170220

 S. Goedecker, M. Teter, J. Hutter.
 Phys. Rev. B 54, 1703-1710 (1996).
 Separable dual-space Gaussian pseudopotentials.
 https://doi.org/10.1103/PhysRevB.54.1703

 J. P. Perdew, K. Burke, M. Ernzerhof.
 Phys. Rev. Lett. 77, 3865-3868 (1996).
 Generalized gradient approximation made simple.
 https://doi.org/10.1103/PhysRevLett.77.3865


 -------------------------------------------------------------------------------
 -                                                                             -
 -                                T I M I N G                                  -
 -                                                                             -
 -------------------------------------------------------------------------------
 SUBROUTINE                       CALLS  ASD         SELF TIME        TOTAL TIME
                                MAXIMUM       AVERAGE  MAXIMUM  AVERAGE  MAXIMUM
 CP2K                                 1  1.0    0.018    0.021  227.724  227.725
 qs_energies                          1  2.0    0.012    0.084  226.460  226.501
 scf_env_do_scf                       1  3.0    0.000    0.000  223.818  223.819
 scf_env_do_scf_inner_loop           55  4.0    0.012    0.015  223.818  223.819
 do_general_diag_kp                  56  5.9    0.370    0.390  213.590  214.471
 qs_scf_new_mos_kp                   55  5.0    0.001    0.001  211.383  212.287
 kpoint_density_transform            55  7.0    0.125    0.134   52.139   52.263
 rskp_transform                   28456  7.0   40.875   46.315   40.875   46.315
 cp_cfm_geeig                      1797  6.9    0.023    0.028   42.220   42.870
 dbcsr_complete_redistribute      85678  8.3    5.604    5.787   35.284   41.779
 dbcsr_desymmetrize_deep         114430  7.5    3.040    3.330   24.215   38.952
 copy_dbcsr_to_fm                 57518  7.0    0.670    0.705   35.154   35.718
 mp_alltoall_i22                 200108  8.8   12.411   33.986   12.411   33.986
 cp_cfm_heevd                      1797  7.9    0.004    0.004   30.062   30.616
 cp_cfm_heevd_base                 1797  8.9   30.058   30.612   30.058   30.612
 cp_fm_start_copy_general         85072  7.3    5.727    6.289   30.390   30.525
 transform_dmat                   14080  8.0   19.887   22.285   19.887   22.285
 mp_allgather_i                  170144  8.3   21.142   21.352   21.142   21.352
 copy_fm_to_dbcsr                 28160  8.0    0.182    0.191   13.453   19.987
 mp_alltoall_d11v                600324  9.4   13.328   14.482   13.328   14.482
 hybrid_alltoall_any             114430  8.5    0.495    0.517    7.716    8.631
 dbcsr_finalize                  204004  8.8    1.050    1.172    7.887    8.534
 cp_cfm_triangular_multiply        5391  7.9    8.291    8.358    8.291    8.358
 qs_ks_update_qs_env                 55  5.0    0.000    0.000    5.791    6.330
 kpoint_density_matrices             55  7.0    0.106    0.109    5.891    5.959
 cp_fm_finish_copy_general        35348  7.8    5.731    5.780    5.808    5.860
 rebuild_ks_matrix                   55  6.0    0.000    0.000    5.308    5.847
 qs_ks_build_kohn_sham_matrix        55  7.0    0.024    0.025    5.308    5.846
 parallel_gemm_fm                  7040  8.0    0.009    0.010    5.602    5.665
 parallel_gemm_fm_gemm             7040  9.0    0.009    0.010    5.592    5.655
 cp_fm_gemm                        7040 10.0    5.583    5.646    5.583    5.646
 dbcsr_merge_all                  85678 10.3    2.163    2.520    4.485    4.975
 mp_alltoall_i11v                371464  9.0    4.258    4.917    4.258    4.917
 mp_cart_sub                     115038  9.0    4.797    4.833    4.797    4.833
 qs_rho_update_rho_low               56  5.0    0.000    0.000    3.937    3.942
 calculate_rho_elec                  56  6.0    0.069    0.073    3.936    3.942
 sum_up_and_integrate                55  8.0    0.001    0.001    3.364    3.908
 integrate_v_rspace                  55  9.0    0.038    0.062    3.361    3.905
 mp_cart_create                   57525  9.0    3.099    3.133    3.099    3.133
 grid_integrate_task_list            55 10.0    2.576    3.092    2.576    3.092
 grid_collocate_task_list            56  7.0    2.548    2.957    2.548    2.957
 mp_bcast_iv                     340442  8.3    2.085    2.382    2.085    2.382
 fft_wrap_pw1pw2                    995 10.0    0.010    0.011    2.075    2.088
 density_rs2pw                       56  7.0    0.002    0.002    1.314    2.041
 dbcsr_work_create               200108  8.8    1.233    1.290    1.935    2.023
 dbcsr_create_new                309809  8.4    1.539    1.632    1.843    1.968
 fft_wrap_pw1pw2_500                662 11.3    0.155    0.159    1.924    1.940
 cp_cfm_cholesky_decompose         1797  7.9    1.806    1.841    1.806    1.841
 cp_cfm_triangular_invert          1797  7.9    1.817    1.825    1.817    1.825
 copy_dbcsr_to_fm_bc              57518  8.0    1.034    1.056    1.709    1.735
 transfer_rs2pw                     226  8.0    0.002    0.003    0.938    1.684
 fft3d_ps                           995 12.0    0.739    0.749    1.648    1.664
 copy_fm_to_dbcsr_bc              28160  9.0    0.491    0.516    1.557    1.636
 dbcsr_work_destroy_all          200108  9.8    0.950    0.962    1.581    1.604
 transfer_rs2pw_500                  58  8.9    0.187    0.203    0.814    1.568
 qs_vxc_create                       55  8.0    0.001    0.001    1.523    1.525
 xc_vxc_pw_create                    55  9.0    0.063    0.063    1.522    1.524
 tree_to_linear_d                 85678 11.3    1.395    1.446    1.395    1.446
 mp_sendrecv_dv                    1582 10.0    0.700    1.428    0.700    1.428
 gspace_mixing                       54  5.0    0.056    0.056    1.410    1.411
 dbcsr_iterator_start            576153  9.1    1.165    1.177    1.370    1.399
 dbcsr_copy                       50582  7.9    0.183    0.195    1.228    1.395
 dbcsr_data_release             2949143 10.2    1.286    1.324    1.286    1.324
 dbcsr_data_new                 2144130  9.8    1.234    1.310    1.234    1.310
 kpoint_set_mo_occupation            55  7.0    0.203    0.205    0.901    1.302
 broyden_mixing                      54  6.0    1.145    1.161    1.172    1.176
 dbcsr_copy_into_existing         28362 10.0    0.838    0.989    1.006    1.160
 mp_sum_dm3                          55  8.0    0.698    1.100    0.698    1.100
 dbcsr_destroy                   287589  8.3    0.500    0.522    0.984    1.052
 create_qs_kind_set                   1  2.0    0.000    0.000    1.028    1.028
 read_qs_kind                         1  3.0    0.613    0.621    1.028    1.028
 xc_pw_derive                       330 11.0    0.001    0.001    0.968    0.974
 write_kpoints_restart               55  5.0    0.003    0.006    0.950    0.951
 dbcsr_iterator_stop             576153  9.1    0.697    0.707    0.827    0.837
 xc_rho_set_and_dset_create          55 10.0    0.036    0.037    0.817    0.821
 mp_alltoall_z22v                   995 14.0    0.785    0.794    0.785    0.794
 mp_waitall_1                    352543  8.3    0.455    0.768    0.455    0.768
 potential_pw2rs                     55 10.0    0.004    0.005    0.747    0.753
 mp_bcast_im                     170144  8.3    0.636    0.721    0.636    0.721
 quick_finalize                  114430  9.5    0.389    0.403    0.679    0.701
 dbcsr_data_copy_aa2              85678 11.3    0.534    0.655    0.534    0.655
 mp_isend_dv                      85664  8.3    0.549    0.641    0.549    0.641
 xc_pw_divergence                    55 10.0    0.001    0.001    0.633    0.640
 cp_cfm_scale_and_add_fm           7188  6.9    0.602    0.620    0.602    0.620
 mp_comm_free                    172599  9.0    0.517    0.597    0.517    0.597
 cp_fm_write_unformatted            606  6.0    0.193    0.488    0.249    0.551
 x_to_yz                            550 13.2    0.075    0.077    0.519    0.523
 transfer_pw2rs                     221 11.0    0.001    0.002    0.517    0.518
 evaluate_core_matrix_traces         55  6.0    0.000    0.000    0.483    0.483
 calculate_ptrace_kp                110  7.0    0.017    0.018    0.483    0.483
 dbcsr_set                       166243  8.2    0.179    0.184    0.441    0.478
 parser_read_line                134065  4.0    0.044    0.047    0.472    0.476
 dbcsr_dot                        22221  8.0    0.257    0.278    0.470    0.476
 parser_read_line_low               153  5.2    0.048    0.209    0.427    0.434
 broadcast_input_information        153  6.2    0.100    0.105    0.379    0.410
 yz_to_x                            445 12.8    0.040    0.043    0.382    0.391
 transfer_pw2rs_500                  56 11.9    0.195    0.203    0.379    0.391
 dbcsr_reserve_all_blocks         28160 10.0    0.050    0.054    0.351    0.368
 dbcsr_reserve_blocks             29906 10.7    0.310    0.325    0.341    0.358
 self_consistency_check              55  5.0    0.016    0.017    0.318    0.345
 dbcsr_sort_indices              230014 10.9    0.336    0.345    0.336    0.345
 cp_cfm_to_fm                      1797  6.9    0.315    0.323    0.315    0.323
 dbcsr_zero                      166243  9.2    0.262    0.297    0.262    0.297
 cp_sm_mix                        11110  6.0    0.122    0.134    0.246    0.287
 xc_functional_eval                  55 11.0    0.000    0.001    0.277    0.280
 pbe_lda_eval                        55 12.0    0.276    0.280    0.276    0.280
 mp_sum_d                         23083  8.8    0.178    0.251    0.178    0.251
 cp_cfm_to_cfm_columns             1797  7.9    0.221    0.228    0.221    0.228
 dbcsr_iterator_seek             576153 10.1    0.205    0.221    0.205    0.221
 dbcsr_make_index_exist          309809  9.4    0.191    0.212    0.191    0.212
 mp_bcast_i_src                     612  7.2    0.169    0.201    0.169    0.201
 merge_index                      85678 11.3    0.173    0.195    0.173    0.195
 mp_send_dv                         606  7.0    0.048    0.189    0.048    0.189
 cp_fm_to_fm_matrix                3520  8.0    0.181    0.188    0.181    0.188
 mp_irecv_iv                     340288  8.3    0.022    0.175    0.022    0.175
 mp_max_d                         11112  7.0    0.098    0.171    0.098    0.171
 mp_sum_dv                          350  3.6    0.082    0.164    0.082    0.164
 pw_scatter_p                       550 12.2    0.146    0.149    0.146    0.149
 cp_fm_cleanup_copy_general       60432  7.0    0.096    0.097    0.142    0.144
 dbcsr_switch_data_area          114430 10.5    0.102    0.103    0.134    0.136
 init_scf_run                         1  3.0    0.000    0.000    0.122    0.129
 scf_env_initial_rho_setup            1  4.0    0.000    0.000    0.122    0.129
 mp_isend_iv                     191560  8.3    0.034    0.126    0.034    0.126
 qs_energies_init_hamiltonians        1  3.0    0.000    0.000    0.125    0.125
 pw_poisson_solve                    55  8.0    0.001    0.001    0.117    0.118
 mp_bcast_am_src                    153  7.2    0.100    0.104    0.109    0.113
 transfer_pw2rs_170                  55 12.0    0.049    0.052    0.105    0.113
 dbcsr_distribution_new           85680  8.6    0.083    0.110    0.083    0.110
 mp_isendrecv_dv                   1547 13.0    0.051    0.106    0.051    0.106
 fft_wrap_pw1pw2_170                111 10.5    0.007    0.008    0.099    0.101
 transfer_rs2pw_170                  56  9.0    0.039    0.040    0.092    0.101
 dbcsr_get_data_size_used        200108  9.8    0.092    0.096    0.092    0.096
 cp_dbcsr_alloc_block_from_nbl     1746  5.5    0.039    0.046    0.081    0.092
 pw_integral_ab_c1d_c1d_gs           55  9.0    0.080    0.081    0.082    0.083
 mp_irecv_im2                    170144  8.3    0.010    0.083    0.010    0.083
 restraint_control                    1  2.0    0.000    0.000    0.041    0.082
 mp_sum_i                             4  2.8    0.041    0.082    0.041    0.082
 build_core_hamiltonian_matrix        1  4.0    0.001    0.001    0.068    0.079
 dbcsr_make_dbcsr_index          230014 10.9    0.072    0.075    0.072    0.075
 cp_fm_create                       478  4.2    0.071    0.073    0.071    0.073
 pw_gather_p                        445 11.8    0.070    0.071    0.070    0.071
 qs_env_update_s_mstruct              1  4.0    0.000    0.000    0.052    0.065
 topology_control                     1  2.0    0.000    0.000    0.063    0.063
 mp_recv_dv                        1818  7.0    0.008    0.062    0.008    0.062
 mp_irecv_dv                      85664  8.3    0.053    0.057    0.053    0.057
 mp_isend_im2                     95780  8.3    0.015    0.057    0.015    0.057
 qs_init_subsys                       1  2.0    0.002    0.002    0.054    0.055
 calculate_rho_core                   1  5.0    0.001    0.002    0.037    0.054
 qs_env_setup                         1  3.0    0.000    0.000    0.051    0.052
 qs_env_rebuild_pw_env                2  3.5    0.000    0.000    0.051    0.052
 pw_env_rebuild                       1  5.0    0.000    0.001    0.051    0.051
 pw_grid_setup                        4  6.0    0.000    0.000    0.049    0.049
 pw_grid_setup_internal               4  7.0    0.001    0.001    0.049    0.049
 kpoint_initialize_mos                2  2.5    0.000    0.001    0.047    0.049
 read_cell_cif                        2  4.5    0.002    0.004    0.043    0.044
 coordinate_control                   1  3.0    0.000    0.001    0.038    0.038
 pw_derive                          495 11.3    0.037    0.038    0.037    0.038
 coordinate_control_READ_COORDI       1  4.0    0.000    0.000    0.038    0.038
 read_coordinate_cif                  1  5.0    0.002    0.002    0.037    0.038
 pw_copy                            825 10.5    0.037    0.038    0.037    0.038
 pw_grid_sort                         4  8.0    0.024    0.025    0.031    0.033
 mp_sum_dm                           54  7.0    0.017    0.032    0.017    0.032
 mixing_allocate                      1  3.0    0.001    0.001    0.025    0.030
 fft_wrap_pw1pw2_60                 111 10.5    0.002    0.002    0.029    0.029
 transfer_pw2rs_60                   55 12.0    0.009    0.009    0.024    0.027
 scf_post_calculation_gpw             1  3.0    0.000    0.000    0.027    0.027
 write_available_results              1  4.0    0.000    0.000    0.027    0.027
 write_mo_free_results                1  5.0    0.002    0.002    0.027    0.027
 pw_copy_from_array                 550 12.2    0.024    0.027    0.024    0.027
 mixing_init                          1  5.0    0.025    0.027    0.027    0.027
 pw_poisson_set                      56  8.9    0.001    0.001    0.023    0.024
 transfer_rs2pw_60                   56  9.0    0.007    0.008    0.022    0.023
 -------------------------------------------------------------------------------

 The number of warnings for this run is : 1
 
 -------------------------------------------------------------------------------
  **** **** ******  **  PROGRAM ENDED AT                 2025-08-04 02:21:07.504
 ***** ** ***  *** **   PROGRAM RAN ON                              i03r11c01s02
 **    ****   ******    PROGRAM RAN BY                                   di38fab
 ***** **    ** ** **   PROGRAM PROCESS ID                                601171
  **** **  *******  **  PROGRAM STOPPED IN /hppfs/scratch/04/di38fab/09_GTH/Delt
                                           a_Set/F/TZV2P-MOLOPT-PBE-GTH/8x8x8
