 DBCSR| CPU Multiplication driver                                           BLAS (U)
 DBCSR| Multrec recursion limit                                              512 (U)
 DBCSR| Multiplication stack size                                           1000 (D)
 DBCSR| Maximum elements for images                                    UNLIMITED (U)
 DBCSR| Multiplicative factor virtual images                                   1 (U)
 DBCSR| Use multiplication densification                                       T (D)
 DBCSR| Multiplication size stacks                                             3 (U)
 DBCSR| Use memory pool for CPU allocation                                     F (U)
 DBCSR| Number of 3D layers                                               SINGLE (U)
 DBCSR| Use MPI memory allocation                                              F (U)
 DBCSR| Use RMA algorithm                                                      F (U)
 DBCSR| Use Communication thread                                               T (U)
 DBCSR| Communication thread load                                             45 (D)
 DBCSR| MPI: My process id                                                     0
 DBCSR| MPI: Number of processes                                               8
 DBCSR| OMP: Current number of threads                                        12
 DBCSR| OMP: Max number of threads                                            12
 DBCSR| Split modifier for TAS multiplication algorithm                  1.0E+00 (U)


  **** **** ******  **  PROGRAM STARTED AT               2025-08-04 04:06:10.779
 ***** ** ***  *** **   PROGRAM STARTED ON                          i03r10c01s03
 **    ****   ******    PROGRAM STARTED BY                               di38fab
 ***** **    ** ** **   PROGRAM PROCESS ID                                469420
  **** **  *******  **  PROGRAM STARTED IN /hppfs/scratch/04/di38fab/09_GTH/Delt
                                           a_Set/Cs/TZV2P-MOLOPT-PBE-GTH/8x8x8

 CP2K| version string:                 CP2K version 2025.1 (Development Version)
 CP2K| source code revision number:                                  git:3130539
 CP2K| cp2kflags: omp libint fftw3 libxc parallel scalapack max_contr=4         
 CP2K| is freely available from                            https://www.cp2k.org/
 CP2K| Program compiled at                         Tue Jun  3 16:14:32 CEST 2025
 CP2K| Program compiled on                                               login01
 CP2K| Program compiled for                                        Supermuc-foss
 CP2K| Data directory path                  /hppfs/work/pn36zo/di38fab/cp2k/data
 CP2K| Input file name                                                    GW.inp

 GLOBAL| Force Environment number                                              1
 GLOBAL| Basis set file name            /hppfs/scratch/04/di38fab/09_GTH/BASIS_A
 GLOBAL| Potential file name            /hppfs/work/pn36zo/di38fab/cp2k/data/GTH
 GLOBAL| MM Potential file name                                     MM_POTENTIAL
 GLOBAL| Coordinate file name                                             Cs.cif
 GLOBAL| Method name                                                        CP2K
 GLOBAL| Project name                                                       WSe2
 GLOBAL| Run type                                                         ENERGY
 GLOBAL| FFT library                                                       FFTW3
 GLOBAL| Diagonalization library                                       ScaLAPACK
 GLOBAL| Cholesky decomposition library                                ScaLAPACK
 GLOBAL| DGEMM library                                                      BLAS
 GLOBAL| Orthonormality check for eigenvectors                          DISABLED
 GLOBAL| Matrix multiplication library                                 ScaLAPACK
 GLOBAL| All-to-all communication in single precision                          F
 GLOBAL| FFTs using library dependent lengths                                  F
 GLOBAL| Grid backend                                                       AUTO
 GLOBAL| Global print level                                               MEDIUM
 GLOBAL| MPI I/O enabled                                                       T
 GLOBAL| Total number of message passing processes                             8
 GLOBAL| Number of threads for this process                                   12
 GLOBAL| This output is from process                                           0
 GLOBAL| OpenMP stack size per thread (OMP_STACKSIZE)                    default
 GLOBAL| CPU model name             Intel(R) Xeon(R) Platinum 8174 CPU @ 3.10GHz

 MEMORY| system memory details [Kb]
 MEMORY|                        rank 0           min           max       average
 MEMORY| MemTotal             98436708      98436660      98436708      98436684
 MEMORY| MemFree              85184684      85184684      85357964      85271324
 MEMORY| Buffers                     0             0             0             0
 MEMORY| Cached                2373444       2347064       2373444       2360254
 MEMORY| Slab                  1209648       1194296       1209648       1201972
 MEMORY| SReclaimable           268816        265628        268816        267222
 MEMORY| MemLikelyFree        87826944      87826944      87970656      87898800


 *** Fundamental physical constants (SI units) ***

 *** Literature: B. J. Mohr and B. N. Taylor,
 ***             CODATA recommended values of the fundamental physical
 ***             constants: 2006, Web Version 5.1
 ***             http://physics.nist.gov/constants

 Speed of light in vacuum [m/s]                             2.99792458000000E+08
 Magnetic constant or permeability of vacuum [N/A**2]       1.25663706143592E-06
 Electric constant or permittivity of vacuum [F/m]          8.85418781762039E-12
 Planck constant (h) [J*s]                                  6.62606896000000E-34
 Planck constant (h-bar) [J*s]                              1.05457162825177E-34
 Elementary charge [C]                                      1.60217648700000E-19
 Electron mass [kg]                                         9.10938215000000E-31
 Electron g factor [ ]                                     -2.00231930436220E+00
 Proton mass [kg]                                           1.67262163700000E-27
 Fine-structure constant                                    7.29735253760000E-03
 Rydberg constant [1/m]                                     1.09737315685270E+07
 Avogadro constant [1/mol]                                  6.02214179000000E+23
 Boltzmann constant [J/K]                                   1.38065040000000E-23
 Atomic mass unit [kg]                                      1.66053878200000E-27
 Bohr radius [m]                                            5.29177208590000E-11

 *** Conversion factors ***

 [u] -> [a.u.]                                              1.82288848426455E+03
 [Angstrom] -> [Bohr] = [a.u.]                              1.88972613288564E+00
 [a.u.] = [Bohr] -> [Angstrom]                              5.29177208590000E-01
 [a.u.] -> [s]                                              2.41888432650478E-17
 [a.u.] -> [fs]                                             2.41888432650478E-02
 [a.u.] -> [J]                                              4.35974393937059E-18
 [a.u.] -> [N]                                              8.23872205491840E-08
 [a.u.] -> [K]                                              3.15774647902944E+05
 [a.u.] -> [kJ/mol]                                         2.62549961709828E+03
 [a.u.] -> [kcal/mol]                                       6.27509468713739E+02
 [a.u.] -> [Pa]                                             2.94210107994716E+13
 [a.u.] -> [bar]                                            2.94210107994716E+08
 [a.u.] -> [atm]                                            2.90362800883016E+08
 [a.u.] -> [eV]                                             2.72113838565563E+01
 [a.u.] -> [Hz]                                             6.57968392072181E+15
 [a.u.] -> [1/cm] (wave numbers)                            2.19474631370540E+05
 [a.u./Bohr**2] -> [1/cm]                                   5.14048714338585E+03
 

 CELL_TOP| Volume [angstrom^3]:                                       233.919110
 CELL_TOP| Vector a [angstrom     6.162     0.000     0.000   |a| =     6.161530
 CELL_TOP| Vector b [angstrom     0.000     6.162     0.000   |b| =     6.161530
 CELL_TOP| Vector c [angstrom     0.000     0.000     6.162   |c| =     6.161530
 CELL_TOP| Angle (b,c), alpha [degree]:                                90.000000
 CELL_TOP| Angle (a,c), beta  [degree]:                                90.000000
 CELL_TOP| Angle (a,b), gamma [degree]:                                90.000000
 CELL_TOP| Numerically orthorhombic:                                         YES
 CELL_TOP| Periodicity                                                       XYZ

 CELL_CIF| Volume [angstrom^3]:                                       233.919110
 CELL_CIF| Vector a [angstrom     6.162     0.000     0.000   |a| =     6.161530
 CELL_CIF| Vector b [angstrom     0.000     6.162     0.000   |b| =     6.161530
 CELL_CIF| Vector c [angstrom     0.000     0.000     6.162   |c| =     6.161530
 CELL_CIF| Angle (b,c), alpha [degree]:                                90.000000
 CELL_CIF| Angle (a,c), beta  [degree]:                                90.000000
 CELL_CIF| Angle (a,b), gamma [degree]:                                90.000000
 CELL_CIF| Numerically orthorhombic:                                         YES
 CELL_CIF| Periodicity                                                       XYZ

 GENERATE|  Preliminary Number of Bonds generated:                             0
 GENERATE|  Achieved consistency in connectivity generation.

 CELL| Volume [angstrom^3]:                                           233.919110
 CELL| Vector a [angstrom]:       6.162     0.000     0.000   |a| =     6.161530
 CELL| Vector b [angstrom]:       0.000     6.162     0.000   |b| =     6.161530
 CELL| Vector c [angstrom]:       0.000     0.000     6.162   |c| =     6.161530
 CELL| Angle (b,c), alpha [degree]:                                    90.000000
 CELL| Angle (a,c), beta  [degree]:                                    90.000000
 CELL| Angle (a,b), gamma [degree]:                                    90.000000
 CELL| Numerically orthorhombic:                                             YES
 CELL| Periodicity                                                           XYZ

 CELL_REF| Volume [angstrom^3]:                                       233.919110
 CELL_REF| Vector a [angstrom     6.162     0.000     0.000   |a| =     6.161530
 CELL_REF| Vector b [angstrom     0.000     6.162     0.000   |b| =     6.161530
 CELL_REF| Vector c [angstrom     0.000     0.000     6.162   |c| =     6.161530
 CELL_REF| Angle (b,c), alpha [degree]:                                90.000000
 CELL_REF| Angle (a,c), beta  [degree]:                                90.000000
 CELL_REF| Angle (a,b), gamma [degree]:                                90.000000
 CELL_REF| Numerically orthorhombic:                                         YES
 CELL_REF| Periodicity                                                       XYZ

 *** WARNING in cryssym.F:180 :: Symmetry library SPGLIB not available ***


 *******************************************************************************
                                    Kpoints
 *******************************************************************************
 BRILLOUIN| K-point scheme                                        Monkhorst-Pack
 BRILLOUIN| K-Point grid                                             8    8    8
 BRILLOUIN| Accuracy in Symmetry determination                      0.100000E-05
 BRILLOUIN| K-Point point group symmetrization                               OFF
 BRILLOUIN| Wavefunction type                                            COMPLEX
 BRILLOUIN| List of Kpoints [2 Pi/Bohr]                                      256
 BRILLOUIN| Number           Weight            X              Y              Z
 BRILLOUIN|     1           0.00391       -0.43750       -0.43750       -0.43750
 BRILLOUIN|     2           0.00391       -0.43750       -0.43750       -0.31250
 BRILLOUIN|     3           0.00391       -0.43750       -0.43750       -0.18750
 BRILLOUIN|     4           0.00391       -0.43750       -0.43750       -0.06250
 BRILLOUIN|     5           0.00391       -0.43750       -0.43750        0.06250
 BRILLOUIN|     6           0.00391       -0.43750       -0.43750        0.18750
 BRILLOUIN|     7           0.00391       -0.43750       -0.43750        0.31250
 BRILLOUIN|     8           0.00391       -0.43750       -0.43750        0.43750
 BRILLOUIN|     9           0.00391       -0.43750       -0.31250       -0.43750
 BRILLOUIN|    10           0.00391       -0.43750       -0.31250       -0.31250
 BRILLOUIN|    11           0.00391       -0.43750       -0.31250       -0.18750
 BRILLOUIN|    12           0.00391       -0.43750       -0.31250       -0.06250
 BRILLOUIN|    13           0.00391       -0.43750       -0.31250        0.06250
 BRILLOUIN|    14           0.00391       -0.43750       -0.31250        0.18750
 BRILLOUIN|    15           0.00391       -0.43750       -0.31250        0.31250
 BRILLOUIN|    16           0.00391       -0.43750       -0.31250        0.43750
 BRILLOUIN|    17           0.00391       -0.43750       -0.18750       -0.43750
 BRILLOUIN|    18           0.00391       -0.43750       -0.18750       -0.31250
 BRILLOUIN|    19           0.00391       -0.43750       -0.18750       -0.18750
 BRILLOUIN|    20           0.00391       -0.43750       -0.18750       -0.06250
 BRILLOUIN|    21           0.00391       -0.43750       -0.18750        0.06250
 BRILLOUIN|    22           0.00391       -0.43750       -0.18750        0.18750
 BRILLOUIN|    23           0.00391       -0.43750       -0.18750        0.31250
 BRILLOUIN|    24           0.00391       -0.43750       -0.18750        0.43750
 BRILLOUIN|    25           0.00391       -0.43750       -0.06250       -0.43750
 BRILLOUIN|    26           0.00391       -0.43750       -0.06250       -0.31250
 BRILLOUIN|    27           0.00391       -0.43750       -0.06250       -0.18750
 BRILLOUIN|    28           0.00391       -0.43750       -0.06250       -0.06250
 BRILLOUIN|    29           0.00391       -0.43750       -0.06250        0.06250
 BRILLOUIN|    30           0.00391       -0.43750       -0.06250        0.18750
 BRILLOUIN|    31           0.00391       -0.43750       -0.06250        0.31250
 BRILLOUIN|    32           0.00391       -0.43750       -0.06250        0.43750
 BRILLOUIN|    33           0.00391       -0.43750        0.06250       -0.43750
 BRILLOUIN|    34           0.00391       -0.43750        0.06250       -0.31250
 BRILLOUIN|    35           0.00391       -0.43750        0.06250       -0.18750
 BRILLOUIN|    36           0.00391       -0.43750        0.06250       -0.06250
 BRILLOUIN|    37           0.00391       -0.43750        0.06250        0.06250
 BRILLOUIN|    38           0.00391       -0.43750        0.06250        0.18750
 BRILLOUIN|    39           0.00391       -0.43750        0.06250        0.31250
 BRILLOUIN|    40           0.00391       -0.43750        0.06250        0.43750
 BRILLOUIN|    41           0.00391       -0.43750        0.18750       -0.43750
 BRILLOUIN|    42           0.00391       -0.43750        0.18750       -0.31250
 BRILLOUIN|    43           0.00391       -0.43750        0.18750       -0.18750
 BRILLOUIN|    44           0.00391       -0.43750        0.18750       -0.06250
 BRILLOUIN|    45           0.00391       -0.43750        0.18750        0.06250
 BRILLOUIN|    46           0.00391       -0.43750        0.18750        0.18750
 BRILLOUIN|    47           0.00391       -0.43750        0.18750        0.31250
 BRILLOUIN|    48           0.00391       -0.43750        0.18750        0.43750
 BRILLOUIN|    49           0.00391       -0.43750        0.31250       -0.43750
 BRILLOUIN|    50           0.00391       -0.43750        0.31250       -0.31250
 BRILLOUIN|    51           0.00391       -0.43750        0.31250       -0.18750
 BRILLOUIN|    52           0.00391       -0.43750        0.31250       -0.06250
 BRILLOUIN|    53           0.00391       -0.43750        0.31250        0.06250
 BRILLOUIN|    54           0.00391       -0.43750        0.31250        0.18750
 BRILLOUIN|    55           0.00391       -0.43750        0.31250        0.31250
 BRILLOUIN|    56           0.00391       -0.43750        0.31250        0.43750
 BRILLOUIN|    57           0.00391       -0.43750        0.43750       -0.43750
 BRILLOUIN|    58           0.00391       -0.43750        0.43750       -0.31250
 BRILLOUIN|    59           0.00391       -0.43750        0.43750       -0.18750
 BRILLOUIN|    60           0.00391       -0.43750        0.43750       -0.06250
 BRILLOUIN|    61           0.00391       -0.43750        0.43750        0.06250
 BRILLOUIN|    62           0.00391       -0.43750        0.43750        0.18750
 BRILLOUIN|    63           0.00391       -0.43750        0.43750        0.31250
 BRILLOUIN|    64           0.00391       -0.43750        0.43750        0.43750
 BRILLOUIN|    65           0.00391       -0.31250       -0.43750       -0.43750
 BRILLOUIN|    66           0.00391       -0.31250       -0.43750       -0.31250
 BRILLOUIN|    67           0.00391       -0.31250       -0.43750       -0.18750
 BRILLOUIN|    68           0.00391       -0.31250       -0.43750       -0.06250
 BRILLOUIN|    69           0.00391       -0.31250       -0.43750        0.06250
 BRILLOUIN|    70           0.00391       -0.31250       -0.43750        0.18750
 BRILLOUIN|    71           0.00391       -0.31250       -0.43750        0.31250
 BRILLOUIN|    72           0.00391       -0.31250       -0.43750        0.43750
 BRILLOUIN|    73           0.00391       -0.31250       -0.31250       -0.43750
 BRILLOUIN|    74           0.00391       -0.31250       -0.31250       -0.31250
 BRILLOUIN|    75           0.00391       -0.31250       -0.31250       -0.18750
 BRILLOUIN|    76           0.00391       -0.31250       -0.31250       -0.06250
 BRILLOUIN|    77           0.00391       -0.31250       -0.31250        0.06250
 BRILLOUIN|    78           0.00391       -0.31250       -0.31250        0.18750
 BRILLOUIN|    79           0.00391       -0.31250       -0.31250        0.31250
 BRILLOUIN|    80           0.00391       -0.31250       -0.31250        0.43750
 BRILLOUIN|    81           0.00391       -0.31250       -0.18750       -0.43750
 BRILLOUIN|    82           0.00391       -0.31250       -0.18750       -0.31250
 BRILLOUIN|    83           0.00391       -0.31250       -0.18750       -0.18750
 BRILLOUIN|    84           0.00391       -0.31250       -0.18750       -0.06250
 BRILLOUIN|    85           0.00391       -0.31250       -0.18750        0.06250
 BRILLOUIN|    86           0.00391       -0.31250       -0.18750        0.18750
 BRILLOUIN|    87           0.00391       -0.31250       -0.18750        0.31250
 BRILLOUIN|    88           0.00391       -0.31250       -0.18750        0.43750
 BRILLOUIN|    89           0.00391       -0.31250       -0.06250       -0.43750
 BRILLOUIN|    90           0.00391       -0.31250       -0.06250       -0.31250
 BRILLOUIN|    91           0.00391       -0.31250       -0.06250       -0.18750
 BRILLOUIN|    92           0.00391       -0.31250       -0.06250       -0.06250
 BRILLOUIN|    93           0.00391       -0.31250       -0.06250        0.06250
 BRILLOUIN|    94           0.00391       -0.31250       -0.06250        0.18750
 BRILLOUIN|    95           0.00391       -0.31250       -0.06250        0.31250
 BRILLOUIN|    96           0.00391       -0.31250       -0.06250        0.43750
 BRILLOUIN|    97           0.00391       -0.31250        0.06250       -0.43750
 BRILLOUIN|    98           0.00391       -0.31250        0.06250       -0.31250
 BRILLOUIN|    99           0.00391       -0.31250        0.06250       -0.18750
 BRILLOUIN|   100           0.00391       -0.31250        0.06250       -0.06250
 BRILLOUIN|   101           0.00391       -0.31250        0.06250        0.06250
 BRILLOUIN|   102           0.00391       -0.31250        0.06250        0.18750
 BRILLOUIN|   103           0.00391       -0.31250        0.06250        0.31250
 BRILLOUIN|   104           0.00391       -0.31250        0.06250        0.43750
 BRILLOUIN|   105           0.00391       -0.31250        0.18750       -0.43750
 BRILLOUIN|   106           0.00391       -0.31250        0.18750       -0.31250
 BRILLOUIN|   107           0.00391       -0.31250        0.18750       -0.18750
 BRILLOUIN|   108           0.00391       -0.31250        0.18750       -0.06250
 BRILLOUIN|   109           0.00391       -0.31250        0.18750        0.06250
 BRILLOUIN|   110           0.00391       -0.31250        0.18750        0.18750
 BRILLOUIN|   111           0.00391       -0.31250        0.18750        0.31250
 BRILLOUIN|   112           0.00391       -0.31250        0.18750        0.43750
 BRILLOUIN|   113           0.00391       -0.31250        0.31250       -0.43750
 BRILLOUIN|   114           0.00391       -0.31250        0.31250       -0.31250
 BRILLOUIN|   115           0.00391       -0.31250        0.31250       -0.18750
 BRILLOUIN|   116           0.00391       -0.31250        0.31250       -0.06250
 BRILLOUIN|   117           0.00391       -0.31250        0.31250        0.06250
 BRILLOUIN|   118           0.00391       -0.31250        0.31250        0.18750
 BRILLOUIN|   119           0.00391       -0.31250        0.31250        0.31250
 BRILLOUIN|   120           0.00391       -0.31250        0.31250        0.43750
 BRILLOUIN|   121           0.00391       -0.31250        0.43750       -0.43750
 BRILLOUIN|   122           0.00391       -0.31250        0.43750       -0.31250
 BRILLOUIN|   123           0.00391       -0.31250        0.43750       -0.18750
 BRILLOUIN|   124           0.00391       -0.31250        0.43750       -0.06250
 BRILLOUIN|   125           0.00391       -0.31250        0.43750        0.06250
 BRILLOUIN|   126           0.00391       -0.31250        0.43750        0.18750
 BRILLOUIN|   127           0.00391       -0.31250        0.43750        0.31250
 BRILLOUIN|   128           0.00391       -0.31250        0.43750        0.43750
 BRILLOUIN|   129           0.00391       -0.18750       -0.43750       -0.43750
 BRILLOUIN|   130           0.00391       -0.18750       -0.43750       -0.31250
 BRILLOUIN|   131           0.00391       -0.18750       -0.43750       -0.18750
 BRILLOUIN|   132           0.00391       -0.18750       -0.43750       -0.06250
 BRILLOUIN|   133           0.00391       -0.18750       -0.43750        0.06250
 BRILLOUIN|   134           0.00391       -0.18750       -0.43750        0.18750
 BRILLOUIN|   135           0.00391       -0.18750       -0.43750        0.31250
 BRILLOUIN|   136           0.00391       -0.18750       -0.43750        0.43750
 BRILLOUIN|   137           0.00391       -0.18750       -0.31250       -0.43750
 BRILLOUIN|   138           0.00391       -0.18750       -0.31250       -0.31250
 BRILLOUIN|   139           0.00391       -0.18750       -0.31250       -0.18750
 BRILLOUIN|   140           0.00391       -0.18750       -0.31250       -0.06250
 BRILLOUIN|   141           0.00391       -0.18750       -0.31250        0.06250
 BRILLOUIN|   142           0.00391       -0.18750       -0.31250        0.18750
 BRILLOUIN|   143           0.00391       -0.18750       -0.31250        0.31250
 BRILLOUIN|   144           0.00391       -0.18750       -0.31250        0.43750
 BRILLOUIN|   145           0.00391       -0.18750       -0.18750       -0.43750
 BRILLOUIN|   146           0.00391       -0.18750       -0.18750       -0.31250
 BRILLOUIN|   147           0.00391       -0.18750       -0.18750       -0.18750
 BRILLOUIN|   148           0.00391       -0.18750       -0.18750       -0.06250
 BRILLOUIN|   149           0.00391       -0.18750       -0.18750        0.06250
 BRILLOUIN|   150           0.00391       -0.18750       -0.18750        0.18750
 BRILLOUIN|   151           0.00391       -0.18750       -0.18750        0.31250
 BRILLOUIN|   152           0.00391       -0.18750       -0.18750        0.43750
 BRILLOUIN|   153           0.00391       -0.18750       -0.06250       -0.43750
 BRILLOUIN|   154           0.00391       -0.18750       -0.06250       -0.31250
 BRILLOUIN|   155           0.00391       -0.18750       -0.06250       -0.18750
 BRILLOUIN|   156           0.00391       -0.18750       -0.06250       -0.06250
 BRILLOUIN|   157           0.00391       -0.18750       -0.06250        0.06250
 BRILLOUIN|   158           0.00391       -0.18750       -0.06250        0.18750
 BRILLOUIN|   159           0.00391       -0.18750       -0.06250        0.31250
 BRILLOUIN|   160           0.00391       -0.18750       -0.06250        0.43750
 BRILLOUIN|   161           0.00391       -0.18750        0.06250       -0.43750
 BRILLOUIN|   162           0.00391       -0.18750        0.06250       -0.31250
 BRILLOUIN|   163           0.00391       -0.18750        0.06250       -0.18750
 BRILLOUIN|   164           0.00391       -0.18750        0.06250       -0.06250
 BRILLOUIN|   165           0.00391       -0.18750        0.06250        0.06250
 BRILLOUIN|   166           0.00391       -0.18750        0.06250        0.18750
 BRILLOUIN|   167           0.00391       -0.18750        0.06250        0.31250
 BRILLOUIN|   168           0.00391       -0.18750        0.06250        0.43750
 BRILLOUIN|   169           0.00391       -0.18750        0.18750       -0.43750
 BRILLOUIN|   170           0.00391       -0.18750        0.18750       -0.31250
 BRILLOUIN|   171           0.00391       -0.18750        0.18750       -0.18750
 BRILLOUIN|   172           0.00391       -0.18750        0.18750       -0.06250
 BRILLOUIN|   173           0.00391       -0.18750        0.18750        0.06250
 BRILLOUIN|   174           0.00391       -0.18750        0.18750        0.18750
 BRILLOUIN|   175           0.00391       -0.18750        0.18750        0.31250
 BRILLOUIN|   176           0.00391       -0.18750        0.18750        0.43750
 BRILLOUIN|   177           0.00391       -0.18750        0.31250       -0.43750
 BRILLOUIN|   178           0.00391       -0.18750        0.31250       -0.31250
 BRILLOUIN|   179           0.00391       -0.18750        0.31250       -0.18750
 BRILLOUIN|   180           0.00391       -0.18750        0.31250       -0.06250
 BRILLOUIN|   181           0.00391       -0.18750        0.31250        0.06250
 BRILLOUIN|   182           0.00391       -0.18750        0.31250        0.18750
 BRILLOUIN|   183           0.00391       -0.18750        0.31250        0.31250
 BRILLOUIN|   184           0.00391       -0.18750        0.31250        0.43750
 BRILLOUIN|   185           0.00391       -0.18750        0.43750       -0.43750
 BRILLOUIN|   186           0.00391       -0.18750        0.43750       -0.31250
 BRILLOUIN|   187           0.00391       -0.18750        0.43750       -0.18750
 BRILLOUIN|   188           0.00391       -0.18750        0.43750       -0.06250
 BRILLOUIN|   189           0.00391       -0.18750        0.43750        0.06250
 BRILLOUIN|   190           0.00391       -0.18750        0.43750        0.18750
 BRILLOUIN|   191           0.00391       -0.18750        0.43750        0.31250
 BRILLOUIN|   192           0.00391       -0.18750        0.43750        0.43750
 BRILLOUIN|   193           0.00391       -0.06250       -0.43750       -0.43750
 BRILLOUIN|   194           0.00391       -0.06250       -0.43750       -0.31250
 BRILLOUIN|   195           0.00391       -0.06250       -0.43750       -0.18750
 BRILLOUIN|   196           0.00391       -0.06250       -0.43750       -0.06250
 BRILLOUIN|   197           0.00391       -0.06250       -0.43750        0.06250
 BRILLOUIN|   198           0.00391       -0.06250       -0.43750        0.18750
 BRILLOUIN|   199           0.00391       -0.06250       -0.43750        0.31250
 BRILLOUIN|   200           0.00391       -0.06250       -0.43750        0.43750
 BRILLOUIN|   201           0.00391       -0.06250       -0.31250       -0.43750
 BRILLOUIN|   202           0.00391       -0.06250       -0.31250       -0.31250
 BRILLOUIN|   203           0.00391       -0.06250       -0.31250       -0.18750
 BRILLOUIN|   204           0.00391       -0.06250       -0.31250       -0.06250
 BRILLOUIN|   205           0.00391       -0.06250       -0.31250        0.06250
 BRILLOUIN|   206           0.00391       -0.06250       -0.31250        0.18750
 BRILLOUIN|   207           0.00391       -0.06250       -0.31250        0.31250
 BRILLOUIN|   208           0.00391       -0.06250       -0.31250        0.43750
 BRILLOUIN|   209           0.00391       -0.06250       -0.18750       -0.43750
 BRILLOUIN|   210           0.00391       -0.06250       -0.18750       -0.31250
 BRILLOUIN|   211           0.00391       -0.06250       -0.18750       -0.18750
 BRILLOUIN|   212           0.00391       -0.06250       -0.18750       -0.06250
 BRILLOUIN|   213           0.00391       -0.06250       -0.18750        0.06250
 BRILLOUIN|   214           0.00391       -0.06250       -0.18750        0.18750
 BRILLOUIN|   215           0.00391       -0.06250       -0.18750        0.31250
 BRILLOUIN|   216           0.00391       -0.06250       -0.18750        0.43750
 BRILLOUIN|   217           0.00391       -0.06250       -0.06250       -0.43750
 BRILLOUIN|   218           0.00391       -0.06250       -0.06250       -0.31250
 BRILLOUIN|   219           0.00391       -0.06250       -0.06250       -0.18750
 BRILLOUIN|   220           0.00391       -0.06250       -0.06250       -0.06250
 BRILLOUIN|   221           0.00391       -0.06250       -0.06250        0.06250
 BRILLOUIN|   222           0.00391       -0.06250       -0.06250        0.18750
 BRILLOUIN|   223           0.00391       -0.06250       -0.06250        0.31250
 BRILLOUIN|   224           0.00391       -0.06250       -0.06250        0.43750
 BRILLOUIN|   225           0.00391       -0.06250        0.06250       -0.43750
 BRILLOUIN|   226           0.00391       -0.06250        0.06250       -0.31250
 BRILLOUIN|   227           0.00391       -0.06250        0.06250       -0.18750
 BRILLOUIN|   228           0.00391       -0.06250        0.06250       -0.06250
 BRILLOUIN|   229           0.00391       -0.06250        0.06250        0.06250
 BRILLOUIN|   230           0.00391       -0.06250        0.06250        0.18750
 BRILLOUIN|   231           0.00391       -0.06250        0.06250        0.31250
 BRILLOUIN|   232           0.00391       -0.06250        0.06250        0.43750
 BRILLOUIN|   233           0.00391       -0.06250        0.18750       -0.43750
 BRILLOUIN|   234           0.00391       -0.06250        0.18750       -0.31250
 BRILLOUIN|   235           0.00391       -0.06250        0.18750       -0.18750
 BRILLOUIN|   236           0.00391       -0.06250        0.18750       -0.06250
 BRILLOUIN|   237           0.00391       -0.06250        0.18750        0.06250
 BRILLOUIN|   238           0.00391       -0.06250        0.18750        0.18750
 BRILLOUIN|   239           0.00391       -0.06250        0.18750        0.31250
 BRILLOUIN|   240           0.00391       -0.06250        0.18750        0.43750
 BRILLOUIN|   241           0.00391       -0.06250        0.31250       -0.43750
 BRILLOUIN|   242           0.00391       -0.06250        0.31250       -0.31250
 BRILLOUIN|   243           0.00391       -0.06250        0.31250       -0.18750
 BRILLOUIN|   244           0.00391       -0.06250        0.31250       -0.06250
 BRILLOUIN|   245           0.00391       -0.06250        0.31250        0.06250
 BRILLOUIN|   246           0.00391       -0.06250        0.31250        0.18750
 BRILLOUIN|   247           0.00391       -0.06250        0.31250        0.31250
 BRILLOUIN|   248           0.00391       -0.06250        0.31250        0.43750
 BRILLOUIN|   249           0.00391       -0.06250        0.43750       -0.43750
 BRILLOUIN|   250           0.00391       -0.06250        0.43750       -0.31250
 BRILLOUIN|   251           0.00391       -0.06250        0.43750       -0.18750
 BRILLOUIN|   252           0.00391       -0.06250        0.43750       -0.06250
 BRILLOUIN|   253           0.00391       -0.06250        0.43750        0.06250
 BRILLOUIN|   254           0.00391       -0.06250        0.43750        0.18750
 BRILLOUIN|   255           0.00391       -0.06250        0.43750        0.31250
 BRILLOUIN|   256           0.00391       -0.06250        0.43750        0.43750
 *******************************************************************************

 *******************************************************************************
 *******************************************************************************
 **                                                                           **
 **     #####                         ##              ##                      **
 **    ##   ##            ##          ##              ##                      **
 **   ##     ##                       ##            ######                    **
 **   ##     ##  ##   ##  ##   #####  ##  ##   ####   ##    #####    #####    **
 **   ##     ##  ##   ##  ##  ##      ## ##   ##      ##   ##   ##  ##   ##   **
 **   ##  ## ##  ##   ##  ##  ##      ####     ###    ##   ######   ######    **
 **    ##  ###   ##   ##  ##  ##      ## ##      ##   ##   ##       ##        **
 **     #######   #####   ##   #####  ##  ##  ####    ##    #####   ##        **
 **           ##                                                    ##        **
 **                                                                           **
 **                                                ... make the atoms dance   **
 **                                                                           **
 **            Copyright (C) by CP2K developers group (2000-2025)             **
 **                      J. Chem. Phys. 152, 194103 (2020)                    **
 **                                                                           **
 *******************************************************************************

 DFT| Spin restricted Kohn-Sham (RKS) calculation                            RKS
 DFT| Multiplicity                                                             1
 DFT| Number of spin states                                                    1
 DFT| Charge                                                                   0
 DFT| Self-interaction correction (SIC)                                       NO
 DFT| Cutoffs: density                                              1.000000E-10
 DFT|          gradient                                             1.000000E-10
 DFT|          tau                                                  1.000000E-10
 DFT|          cutoff_smoothing_range                               0.000000E+00
 DFT| XC density smoothing                                                  NONE
 DFT| XC derivatives                                                          PW

 FUNCTIONAL| PBE:
 FUNCTIONAL| J.P.Perdew, K.Burke, M.Ernzerhof, Phys. Rev. Letter, vol. 77, n 18,
 FUNCTIONAL|  pp. 3865-3868, (1996) {spin unpolarized}                          


 QS| Method:                                                                 GPW
 QS| Density plane wave grid type                        NON-SPHERICAL FULLSPACE
 QS| Number of grid levels:                                                    4
 QS| Density cutoff [a.u.]:                                                500.0
 QS| Multi grid cutoff [a.u.]: 1) grid level                               500.0
 QS|                           2) grid level                               166.7
 QS|                           3) grid level                                55.6
 QS|                           4) grid level                                18.5
 QS| Grid level progression factor:                                          3.0
 QS| Relative density cutoff [a.u.]:                                        50.0
 QS| Interaction thresholds: eps_pgf_orb:                                1.0E-16
 QS|                         eps_filter_matrix:                          0.0E+00
 QS|                         eps_core_charge:                            1.0E-18
 QS|                         eps_rho_gspace:                             1.0E-16
 QS|                         eps_rho_rspace:                             1.0E-16
 QS|                         eps_gvg_rspace:                             1.0E-08
 QS|                         eps_ppl:                                    1.0E-02
 QS|                         eps_ppnl:                                   1.0E-10


 ATOMIC KIND INFORMATION

  1. Atomic kind: Cs                                    Number of atoms:       2

     Orbital Basis Set                                   TZV2P-MOLOPT-GGA-GTH-q9

       Number of orbital shell sets:                                           1
       Number of orbital shells:                                               9
       Number of primitive Cartesian functions:                                6
       Number of Cartesian basis functions:                                   25
       Number of spherical basis functions:                                   23
       Norm type:                                                              2

       Normalised Cartesian orbitals:

                        Set   Shell   Orbital            Exponent    Coefficient

                          1       1    2s                2.035867       0.176613
                                                         1.802354      -0.198165
                                                         0.568861      -0.018974
                                                         0.248074      -0.063221
                                                         0.093841       0.042887
                                                         0.032420       0.045949

                          1       2    3s                2.035867       2.215469
                                                         1.802354      -2.685067
                                                         0.568861       0.256779
                                                         0.248074       0.227106
                                                         0.093841       0.022269
                                                         0.032420      -0.033064

                          1       3    4s                2.035867       0.012989
                                                         1.802354      -0.086157
                                                         0.568861       0.093807
                                                         0.248074       0.374247
                                                         0.093841      -0.386541
                                                         0.032420       0.097119

                          1       4    5s                2.035867       0.347436
                                                         1.802354       0.379158
                                                         0.568861       0.039871
                                                         0.248074       0.071552
                                                         0.093841       0.019012
                                                         0.032420       0.002533

                          1       5    3px               2.035867       1.829718
                                                         1.802354      -2.190788
                                                         0.568861       0.319163
                                                         0.248074       0.171844
                                                         0.093841       0.006999
                                                         0.032420      -0.010139
                          1       5    3py               2.035867       1.829718
                                                         1.802354      -2.190788
                                                         0.568861       0.319163
                                                         0.248074       0.171844
                                                         0.093841       0.006999
                                                         0.032420      -0.010139
                          1       5    3pz               2.035867       1.829718
                                                         1.802354      -2.190788
                                                         0.568861       0.319163
                                                         0.248074       0.171844
                                                         0.093841       0.006999
                                                         0.032420      -0.010139

                          1       6    4px               2.035867       0.528393
                                                         1.802354      -0.613553
                                                         0.568861       0.069120
                                                         0.248074       0.033160
                                                         0.093841       0.015375
                                                         0.032420       0.014706
                          1       6    4py               2.035867       0.528393
                                                         1.802354      -0.613553
                                                         0.568861       0.069120
                                                         0.248074       0.033160
                                                         0.093841       0.015375
                                                         0.032420       0.014706
                          1       6    4pz               2.035867       0.528393
                                                         1.802354      -0.613553
                                                         0.568861       0.069120
                                                         0.248074       0.033160
                                                         0.093841       0.015375
                                                         0.032420       0.014706

                          1       7    5px               2.035867       1.742473
                                                         1.802354      -1.759975
                                                         0.568861       1.545103
                                                         0.248074      -0.751404
                                                         0.093841       0.114911
                                                         0.032420      -0.008788
                          1       7    5py               2.035867       1.742473
                                                         1.802354      -1.759975
                                                         0.568861       1.545103
                                                         0.248074      -0.751404
                                                         0.093841       0.114911
                                                         0.032420      -0.008788
                          1       7    5pz               2.035867       1.742473
                                                         1.802354      -1.759975
                                                         0.568861       1.545103
                                                         0.248074      -0.751404
                                                         0.093841       0.114911
                                                         0.032420      -0.008788

                          1       8    4dx2              2.035867      -0.882597
                                                         1.802354       0.966050
                                                         0.568861      -0.081465
                                                         0.248074      -0.051336
                                                         0.093841      -0.012608
                                                         0.032420      -0.001190
                          1       8    4dxy              2.035867      -1.528702
                                                         1.802354       1.673247
                                                         0.568861      -0.141101
                                                         0.248074      -0.088916
                                                         0.093841      -0.021838
                                                         0.032420      -0.002062
                          1       8    4dxz              2.035867      -1.528702
                                                         1.802354       1.673247
                                                         0.568861      -0.141101
                                                         0.248074      -0.088916
                                                         0.093841      -0.021838
                                                         0.032420      -0.002062
                          1       8    4dy2              2.035867      -0.882597
                                                         1.802354       0.966050
                                                         0.568861      -0.081465
                                                         0.248074      -0.051336
                                                         0.093841      -0.012608
                                                         0.032420      -0.001190
                          1       8    4dyz              2.035867      -1.528702
                                                         1.802354       1.673247
                                                         0.568861      -0.141101
                                                         0.248074      -0.088916
                                                         0.093841      -0.021838
                                                         0.032420      -0.002062
                          1       8    4dz2              2.035867      -0.882597
                                                         1.802354       0.966050
                                                         0.568861      -0.081465
                                                         0.248074      -0.051336
                                                         0.093841      -0.012608
                                                         0.032420      -0.001190

                          1       9    5dx2              2.035867       0.275430
                                                         1.802354       0.149415
                                                         0.568861      -0.108774
                                                         0.248074      -0.083647
                                                         0.093841      -0.001037
                                                         0.032420       0.003496
                          1       9    5dxy              2.035867       0.477059
                                                         1.802354       0.258794
                                                         0.568861      -0.188402
                                                         0.248074      -0.144880
                                                         0.093841      -0.001796
                                                         0.032420       0.006056
                          1       9    5dxz              2.035867       0.477059
                                                         1.802354       0.258794
                                                         0.568861      -0.188402
                                                         0.248074      -0.144880
                                                         0.093841      -0.001796
                                                         0.032420       0.006056
                          1       9    5dy2              2.035867       0.275430
                                                         1.802354       0.149415
                                                         0.568861      -0.108774
                                                         0.248074      -0.083647
                                                         0.093841      -0.001037
                                                         0.032420       0.003496
                          1       9    5dyz              2.035867       0.477059
                                                         1.802354       0.258794
                                                         0.568861      -0.188402
                                                         0.248074      -0.144880
                                                         0.093841      -0.001796
                                                         0.032420       0.006056
                          1       9    5dz2              2.035867       0.275430
                                                         1.802354       0.149415
                                                         0.568861      -0.108774
                                                         0.248074      -0.083647
                                                         0.093841      -0.001037
                                                         0.032420       0.003496

       Atomic covalent radius [Angstrom]:                                  2.350

       Atomic van der Waals radius [Angstrom]:                             3.430

     GTH Potential information for                                    GTH-PBE-q9

       Description:                       Goedecker-Teter-Hutter pseudopotential
                                           Goedecker et al., PRB 54, 1703 (1996)
                                          Hartwigsen et al., PRB 58, 3641 (1998)
                                                      Krack, TCA 114, 145 (2005)

       Gaussian exponent of the core charge distribution:               1.714678
       Electronic configuration (s p d ...):                               3   6

       Parameters of the local part of the GTH pseudopotential:

                          rloc        C1          C2          C3          C4
                        0.540000   33.313317   -2.921217

       Parameters of the non-local part of the GTH (SOC) pseudopotential:

                   l      r(l)      h(i,j,l)
                                    k(i,j,l)
                   0    0.461896   -3.322927    2.455653
                                    2.455653   -3.170235
                   1    0.366359   -4.950764    0.840390    0.000000
                                    0.840390   -0.994363    0.000000
                                    0.000000    0.000000    0.000000
                                    1.479015   -4.820068    0.716375
                                   -4.820068    6.895837   -1.695253
                                    0.716375   -1.695253    1.204825
                   2    0.761502    0.198407
                                    0.010605
                   3    0.597015   -1.550567
                                    0.003222


 MOLECULE KIND INFORMATION


 All atoms are their own molecule, skipping detailed information


 TOTAL NUMBERS AND MAXIMUM NUMBERS

  Total number of            - Atomic kinds:                                   1
                             - Atoms:                                          2
                             - Shell sets:                                     2
                             - Shells:                                        18
                             - Primitive Cartesian functions:                 12
                             - Cartesian basis functions:                     50
                             - Spherical basis functions:                     46

  Maximum angular momentum of- Orbital basis functions:                        2
                             - Local part of the GTH pseudopotential:          2
                             - Non-local part of the GTH pseudopotential:      5


 MODULE QUICKSTEP: ATOMIC COORDINATES IN ANGSTROM

   Atom Kind Element         X             Y             Z       Z(eff)     Mass
      1    1 Cs   55      0.000000      0.000000      0.000000   9.0000 132.9055
      2    1 Cs   55      3.080765      3.080765      3.080765   9.0000 132.9055



 SCF PARAMETERS         Density guess:                                    ATOMIC
                        --------------------------------------------------------
                        max_scf:                                             500
                        max_scf_history:                                       0
                        max_diis:                                              4
                        --------------------------------------------------------
                        eps_scf:                                        1.00E-09
                        eps_scf_history:                                0.00E+00
                        eps_diis:                                       1.00E-01
                        eps_eigval:                                     1.00E-05
                        --------------------------------------------------------
                        level_shift [a.u.]:                             0.000000
                        added MOs                                        37    0
                        --------------------------------------------------------
                        Mixing method:                            BROYDEN_MIXING
                                                charge density mixing in g-space
                        --------------------------------------------------------
                        Smear method:                                FERMI_DIRAC
                        Electronic temperature [K]:                        300.0
                        Electronic temperature [a.u.]:                  9.50E-04
                        Accuracy threshold:                             1.00E-10
                        --------------------------------------------------------
                        No outer SCF

 PW_GRID| Information for grid number                                          1
 PW_GRID| Grid distributed over                                     8 processors
 PW_GRID| Real space group dimensions                                     8    1
 PW_GRID| the grid is blocked:                                                NO
 PW_GRID| Cutoff [a.u.]                                                    500.0
 PW_GRID| spherical cutoff:                                                   NO
 PW_GRID|   Bounds   1            -60      59                Points:         120
 PW_GRID|   Bounds   2            -60      59                Points:         120
 PW_GRID|   Bounds   3            -60      59                Points:         120
 PW_GRID| Volume element (a.u.^3)  0.9135E-03     Volume (a.u.^3)      1578.5644
 PW_GRID| Grid span                                                    FULLSPACE
 PW_GRID|   Distribution                         Average         Max         Min
 PW_GRID|   G-Vectors                           216000.0      216000      216000
 PW_GRID|   G-Rays                                1800.0        1800        1800
 PW_GRID|   Real Space Points                   216000.0      216000      216000

 PW_GRID| Information for grid number                                          2
 PW_GRID| Number of the reference grid                                         1
 PW_GRID| Grid distributed over                                     8 processors
 PW_GRID| Real space group dimensions                                     8    1
 PW_GRID| the grid is blocked:                                                NO
 PW_GRID| Cutoff [a.u.]                                                    166.7
 PW_GRID| spherical cutoff:                                                   NO
 PW_GRID|   Bounds   1            -36      35                Points:          72
 PW_GRID|   Bounds   2            -36      35                Points:          72
 PW_GRID|   Bounds   3            -36      35                Points:          72
 PW_GRID| Volume element (a.u.^3)  0.4229E-02     Volume (a.u.^3)      1578.5644
 PW_GRID| Grid span                                                    FULLSPACE
 PW_GRID|   Distribution                         Average         Max         Min
 PW_GRID|   G-Vectors                            46656.0       46872       46512
 PW_GRID|   G-Rays                                 648.0         651         646
 PW_GRID|   Real Space Points                    46656.0       46656       46656

 PW_GRID| Information for grid number                                          3
 PW_GRID| Number of the reference grid                                         1
 PW_GRID| Grid distributed over                                     8 processors
 PW_GRID| Real space group dimensions                                     8    1
 PW_GRID| the grid is blocked:                                                NO
 PW_GRID| Cutoff [a.u.]                                                     55.6
 PW_GRID| spherical cutoff:                                                   NO
 PW_GRID|   Bounds   1            -20      19                Points:          40
 PW_GRID|   Bounds   2            -20      19                Points:          40
 PW_GRID|   Bounds   3            -20      19                Points:          40
 PW_GRID| Volume element (a.u.^3)  0.2467E-01     Volume (a.u.^3)      1578.5644
 PW_GRID| Grid span                                                    FULLSPACE
 PW_GRID|   Distribution                         Average         Max         Min
 PW_GRID|   G-Vectors                             8000.0        8120        7920
 PW_GRID|   G-Rays                                 200.0         203         198
 PW_GRID|   Real Space Points                     8000.0        8000        8000

 PW_GRID| Information for grid number                                          4
 PW_GRID| Number of the reference grid                                         1
 PW_GRID| Grid distributed over                                     8 processors
 PW_GRID| Real space group dimensions                                     8    1
 PW_GRID| the grid is blocked:                                                NO
 PW_GRID| Cutoff [a.u.]                                                     18.5
 PW_GRID| spherical cutoff:                                                   NO
 PW_GRID|   Bounds   1            -12      11                Points:          24
 PW_GRID|   Bounds   2            -12      11                Points:          24
 PW_GRID|   Bounds   3            -12      11                Points:          24
 PW_GRID| Volume element (a.u.^3)  0.1142         Volume (a.u.^3)      1578.5644
 PW_GRID| Grid span                                                    FULLSPACE
 PW_GRID|   Distribution                         Average         Max         Min
 PW_GRID|   G-Vectors                             1728.0        1800        1680
 PW_GRID|   G-Rays                                  72.0          75          70
 PW_GRID|   Real Space Points                     1728.0        1728        1728

 POISSON| Solver                                                        PERIODIC
 POISSON| Periodicity                                                        XYZ

 RS_GRID| Information for grid number                                          1
 RS_GRID|   Bounds   1            -60      59                Points:         120
 RS_GRID|   Bounds   2            -60      59                Points:         120
 RS_GRID|   Bounds   3            -60      59                Points:         120
 RS_GRID| Real space fully replicated
 RS_GRID| Group size                                                           1

 RS_GRID| Information for grid number                                          2
 RS_GRID|   Bounds   1            -36      35                Points:          72
 RS_GRID|   Bounds   2            -36      35                Points:          72
 RS_GRID|   Bounds   3            -36      35                Points:          72
 RS_GRID| Real space fully replicated
 RS_GRID| Group size                                                           1

 RS_GRID| Information for grid number                                          3
 RS_GRID|   Bounds   1            -20      19                Points:          40
 RS_GRID|   Bounds   2            -20      19                Points:          40
 RS_GRID|   Bounds   3            -20      19                Points:          40
 RS_GRID| Real space fully replicated
 RS_GRID| Group size                                                           1

 RS_GRID| Information for grid number                                          4
 RS_GRID|   Bounds   1            -12      11                Points:          24
 RS_GRID|   Bounds   2            -12      11                Points:          24
 RS_GRID|   Bounds   3            -12      11                Points:          24
 RS_GRID| Real space fully replicated
 RS_GRID| Group size                                                           1

 Number of electrons:                                                         18
 Number of occupied orbitals:                                                  9
 Number of molecular orbitals:                                                46

 Number of orbital functions:                                                 46
 Number of independent orbital functions:                                     46

 Extrapolation method: initial_guess

 Atomic guess: The first density matrix is obtained in terms of atomic orbitals
               and electronic configurations assigned to each atomic kind

 Guess for atomic kind: Cs

 Electronic structure
    Total number of core electrons                                         46.00
    Total number of valence electrons                                       9.00
    Total number of electrons                                              55.00
    Multiplicity                                                   not specified
    S   [  2.00  2.00  2.00  2.00] 2.00  1.00
    P   [  6.00  6.00  6.00] 6.00
    D   [ 10.00 10.00]


 *******************************************************************************
                  Iteration          Convergence                     Energy [au]
 *******************************************************************************
                          1        0.595282                     -19.891457285802
                          2        0.230116                     -19.997438158535
                          3        0.838255E-02                 -20.017379902347
                          4        0.534412E-03                 -20.017427158488
                          5        0.788726E-05                 -20.017427260188
                          6        0.147407E-06                 -20.017427260202

 Energy components [Hartree]           Total Energy ::          -20.017427260202
                                        Band Energy ::           -4.848194516809
                                     Kinetic Energy ::            5.237932807167
                                   Potential Energy ::          -25.255360067369
                                      Virial (-V/T) ::            4.821627347493
                                        Core Energy ::          -33.072704295016
                                          XC Energy ::           -3.048267870981
                                     Coulomb Energy ::           16.103544905795
                       Total Pseudopotential Energy ::          -38.350309577807
                       Local Pseudopotential Energy ::          -37.275312894807
                    Nonlocal Pseudopotential Energy ::           -1.074996683000
                                        Confinement ::            0.396724756237

 Orbital energies  State     L     Occupation   Energy[a.u.]          Energy[eV]

                       1     0          2.000      -0.964454          -26.244124
                       2     0          1.000      -0.056352           -1.533423

                       1     1          6.000      -0.477156          -12.984068


 Total Electron Density at R=0:                                         0.000068
 Re-scaling the density matrix to get the right number of electrons
                  # Electrons              Trace(P)               Scaling factor
                           18                18.000                        1.000


 SCF WAVEFUNCTION OPTIMIZATION

  Step     Update method      Time    Convergence         Total energy    Change
  ------------------------------------------------------------------------------
     1 NoMix/Diag. 0.10E+00    4.4     0.55165960       -40.3336843367 -4.03E+01
     2 Broy./Diag. 0.10E+00    4.6     0.00019262       -40.2860539258  4.76E-02
     3 Broy./Diag. 0.10E+00    4.5     0.00373492       -40.3262346725 -4.02E-02
     4 Broy./Diag. 0.10E+00    4.5     0.00032927       -40.3456508729 -1.94E-02
     5 Broy./Diag. 0.10E+00    4.5     0.00262293       -40.3533767556 -7.73E-03
     6 Broy./Diag. 0.10E+00    4.6     0.00016789       -40.3451019679  8.27E-03
     7 Broy./Diag. 0.10E+00    4.6     0.00100291       -40.3303699489  1.47E-02
     8 Broy./Diag. 0.10E+00    4.6     0.00001557       -40.3245322769  5.84E-03
     9 Broy./Diag. 0.10E+00    4.6     0.00012222       -40.3239066403  6.26E-04
    10 Broy./Diag. 0.10E+00    4.6     0.00000456       -40.3233195107  5.87E-04
    11 Broy./Diag. 0.10E+00    4.6     0.00003633       -40.3238386017 -5.19E-04
    12 Broy./Diag. 0.10E+00    4.6     0.00000109       -40.3238087737  2.98E-05
    13 Broy./Diag. 0.10E+00    4.6     0.00001087       -40.3237153835  9.34E-05
    14 Broy./Diag. 0.10E+00    4.6     0.00000050       -40.3236686880  4.67E-05
    15 Broy./Diag. 0.10E+00    4.6     0.00000064       -40.3236534871  1.52E-05
    16 Broy./Diag. 0.10E+00    4.6     0.00000125       -40.3236428789  1.06E-05
    17 Broy./Diag. 0.10E+00    4.6     0.00000008       -40.3236416741  1.20E-06
    18 Broy./Diag. 0.10E+00    4.6     0.00000096       -40.3236465909 -4.92E-06
    19 Broy./Diag. 0.10E+00    4.6     0.00000004       -40.3236503325 -3.74E-06
    20 Broy./Diag. 0.10E+00    4.6     0.00000015       -40.3236476442  2.69E-06
    21 Broy./Diag. 0.10E+00    4.6     4.4184E-09       -40.3236464756  1.17E-06
    22 Broy./Diag. 0.10E+00    4.6     0.00000001       -40.3236463596  1.16E-07
    23 Broy./Diag. 0.10E+00    4.6     8.7692E-09       -40.3236465089 -1.49E-07
    24 Broy./Diag. 0.10E+00    4.6     6.3957E-09       -40.3236466810 -1.72E-07
    25 Broy./Diag. 0.10E+00    4.6     9.3315E-09       -40.3236467560 -7.50E-08
    26 Broy./Diag. 0.10E+00    4.6     4.6551E-09       -40.3236467666 -1.07E-08
    27 Broy./Diag. 0.10E+00    4.6     2.7036E-09       -40.3236467248  4.18E-08
    28 Broy./Diag. 0.10E+00    4.6     3.0729E-09       -40.3236466741  5.07E-08
    29 Broy./Diag. 0.10E+00    4.6     4.8014E-09       -40.3236466295  4.46E-08
    30 Broy./Diag. 0.10E+00    4.6     4.9047E-10       -40.3236466159  1.36E-08

  *** SCF run converged in    30 steps ***


  Electronic density on regular grids:        -18.0000000000        0.0000000000
  Core density on regular grids:               18.0000000000        0.0000000000
  Total charge density on r-space grids:        0.0000000000
  Total charge density g-space grids:           0.0000000000

  Overlap energy of the core charge distribution:               0.00000000000000
  Self energy of the core charge distribution:                -84.62843753216346
  Core Hamiltonian energy:                                     16.34406617897644
  Hartree energy:                                              34.26003032236970
  Exchange-correlation energy:                                 -6.29911651548901
  Electronic entropic energy:                                  -0.00018906958729
  Fermi energy:                                                 0.06086979463137

  Total energy:                                               -40.32364661589325

 !-----------------------------------------------------------------------------!
                     Mulliken Population Analysis

 #  Atom  Element  Kind  Atomic population                           Net charge
       1     Cs       1          9.000000                              0.000000
       2     Cs       1          9.000000                              0.000000
 # Total charge                             18.000000                  0.000000

 !-----------------------------------------------------------------------------!

 !-----------------------------------------------------------------------------!
                           Hirshfeld Charges

  #Atom  Element  Kind  Ref Charge     Population                    Net charge
      1       Cs     1       9.000          9.000                         0.000
      2       Cs     1       9.000          9.000                         0.000

  Total Charge                                                            0.000
 !-----------------------------------------------------------------------------!

 KPOINTS| Band Structure Calculation
 KPOINTS| Number of k-point sets                                               1
 KPOINTS| Number of added MOs/bands                                           -1
 KPOINTS| Number of k-points in set    1                                     148
 KPOINTS| In units of b-vector [2pi/Bohr]
 KPOINTS| Special point     1 not specifi     0.000000     0.000000     0.000000
 KPOINTS| Special point     2 not specifi     0.500000    -0.500000     0.500000
 KPOINTS| Special point     3 not specifi     0.000000     0.000000     0.500000
 KPOINTS| Special point     4 not specifi     0.000000     0.000000     0.000000
 KPOINTS| Time for k-point line                                            1.779

 ENERGY| Total FORCE_EVAL ( QS ) energy [hartree]            -40.323646615893246

 -------------------------------------------------------------------------------
 -                                                                             -
 -                                DBCSR STATISTICS                             -
 -                                                                             -
 -------------------------------------------------------------------------------
 COUNTER                                    TOTAL       BLAS       SMM       ACC
 flops inhomo. stacks                           0       0.0%      0.0%      0.0%
 flops total                         0.000000E+00       0.0%      0.0%      0.0%
 flops max/rank                      0.000000E+00       0.0%      0.0%      0.0%
 matmuls inhomo. stacks                         0       0.0%      0.0%      0.0%
 matmuls total                                  0       0.0%      0.0%      0.0%
 number of processed stacks                     0       0.0%      0.0%      0.0%
 average stack size                                     0.0       0.0       0.0
 marketing flops                     0.000000E+00
 -------------------------------------------------------------------------------
 -                                                                             -
 -                      DBCSR MESSAGE PASSING PERFORMANCE                      -
 -                                                                             -
 -------------------------------------------------------------------------------
 ROUTINE             CALLS      AVE VOLUME [Bytes]
 MP_Bcast                1                     12.
 MP_Allreduce           19                     21.
 MP_Alltoall        663896                   3533.
 -------------------------------------------------------------------------------

 -------------------------------------------------------------------------------
 -                                                                             -
 -                                DBM STATISTICS                               -
 -                                                                             -
 -------------------------------------------------------------------------------
    M  x    N  x    K                                          COUNT     PERCENT
 -------------------------------------------------------------------------------

 -------------------------------------------------------------------------------
 -                                                                             -
 -                                GRID STATISTICS                              -
 -                                                                             -
 -------------------------------------------------------------------------------
 LP    KERNEL             BACKEND                              COUNT     PERCENT
 4     collocate ortho    CPU                                 247256      50.82%
 4     integrate ortho    CPU                                 239280      49.18%
 0     collocate general  CPU                                      4       0.00%
 0     integrate general  CPU                                      2       0.00%
 -------------------------------------------------------------------------------

 MEMORY| Estimated peak process memory [MiB]                                 607

 -------------------------------------------------------------------------------
 ----                             MULTIGRID INFO                            ----
 -------------------------------------------------------------------------------
 count for grid        1:          10376          cutoff [a.u.]          500.00
 count for grid        2:          47358          cutoff [a.u.]          166.67
 count for grid        3:          20366          cutoff [a.u.]           55.56
 count for grid        4:          29664          cutoff [a.u.]           18.52
 total gridlevel count  :         107764

 -------------------------------------------------------------------------------
 -                                                                             -
 -                         MESSAGE PASSING PERFORMANCE                         -
 -                                                                             -
 -------------------------------------------------------------------------------

 ROUTINE             CALLS      AVE VOLUME [Bytes]
 MP_Group                6
 MP_Bcast           281147                  16163.
 MP_Allreduce        91381                     43.
 MP_Sync                 4
 MP_Alltoall           545                9587537.
 MP_SendRecv           882                 563549.
 MP_ISendRecv          847                 554547.
 MP_Wait            193443
 MP_comm_split           4
 MP_ISend           205004                    522.
 MP_IRecv           327296                    320.
 -------------------------------------------------------------------------------


 -------------------------------------------------------------------------------
 -                                                                             -
 -                           R E F E R E N C E S                               -
 -                                                                             -
 -------------------------------------------------------------------------------
 
 CP2K version 2025.1 (Development Version), the CP2K developers group (2025).
 CP2K is freely available from https://www.cp2k.org/ .
 
 T. D. Kuehne, M. Iannuzzi, M. Del Ben, V. V. Rybkin, P. Seewald, F. Stein, T. 
 Laino, R. Z. Khaliullin, O. Schuett, F. Schiffmann, D. Golze, J. Wilhelm, S. 
 Chulkov, M. H. Bani-Hashemian, V. Weber, U. Borstnik, M. Taillefumier, A. S. 
 Jakobovits, A. Lazzaro, H. Pabst, T. Mueller, R. Schade, M. Guidon, S. 
 Andermatt, N. Holmberg, G. K. Schenter, A. Hehn, A. Bussy, F. Belleflamme, G. 
 Tabacchi, A. Gloess, M. Lass, I. Bethune, C. J. Mundy, C. Plessl, M. Watkins, 
 J. VandeVondele, M. Krack, J. Hutter.
 J. Chem. Phys. 152, 194103 (2020).
 CP2K: An electronic structure and molecular dynamics software package - 
 Quickstep: Efficient and accurate electronic structure calculations.
 https://doi.org/10.1063/5.0007045

 O. Schuett, P. Messmer, J. Hutter, J. VandeVondele.
 Electronic Structure Calculations on Graphics Processing Units, 173-190 (2016).
 GPU-Accelerated Sparse Matrix-Matrix Multiplication for Linear Scaling Density 
 Functional Theory.
 https://doi.org/10.1002/9781118670712.ch8

 J. Hutter, M. Iannuzzi, F. Schiffmann, J. VandeVondele.
 WIREs Comput Mol Sci. 4, 15-25 (2014).
 CP2K: atomistic simulations of condensed matter systems.
 https://doi.org/10.1002/wcms.1159

 U. Borstnik, J. VandeVondele, V. Weber, J. Hutter.
 Parallel Comput. 40, 47-58 (2014).
 Sparse matrix multiplication: The distributed block-compressed sparse row 
 library.
 https://doi.org/10.1016/j.parco.2014.03.012

 J. VandeVondele, J. Hutter.
 J. Chem. Phys. 127, 114105 (2007).
 Gaussian basis sets for accurate calculations on molecular systems in gas and 
 condensed phases.
 https://doi.org/10.1063/1.2770708

 J. VandeVondele, M. Krack, F. Mohamed, M. Parrinello, T. Chassaing, J. Hutter.
 Comput. Phys. Commun. 167, 103-128 (2005).
 QUICKSTEP: Fast and accurate density functional calculations using a mixed 
 Gaussian and plane waves approach.
 https://doi.org/10.1016/j.cpc.2004.12.014

 M. Krack.
 Theor. Chem. Acc. 114, 145-152 (2005).
 Pseudopotentials for H to Kr optimized for gradient-corrected 
 exchange-correlation functionals.
 https://doi.org/10.1007/s00214-005-0655-y

 M. Frigo, S. G. Johnson.
 Proc. IEEE 93, 216-231 (2005).
 The design and implementation of FFTW3.
 https://doi.org/10.1109/JPROC.2004.840301

 C. Hartwigsen, S. Goedecker, J. Hutter.
 Phys. Rev. B 58, 3641-3662 (1998).
 Relativistic separable dual-space Gaussian pseudopotentials from H to Rn.
 https://doi.org/10.1103/PhysRevB.58.3641

 G. Lippert, J. Hutter, M. Parrinello.
 Mol. Phys. 92, 477-487 (1997).
 A hybrid Gaussian and plane wave density functional scheme.
 https://doi.org/10.1080/002689797170220

 S. Goedecker, M. Teter, J. Hutter.
 Phys. Rev. B 54, 1703-1710 (1996).
 Separable dual-space Gaussian pseudopotentials.
 https://doi.org/10.1103/PhysRevB.54.1703

 J. P. Perdew, K. Burke, M. Ernzerhof.
 Phys. Rev. Lett. 77, 3865-3868 (1996).
 Generalized gradient approximation made simple.
 https://doi.org/10.1103/PhysRevLett.77.3865


 -------------------------------------------------------------------------------
 -                                                                             -
 -                                T I M I N G                                  -
 -                                                                             -
 -------------------------------------------------------------------------------
 SUBROUTINE                       CALLS  ASD         SELF TIME        TOTAL TIME
                                MAXIMUM       AVERAGE  MAXIMUM  AVERAGE  MAXIMUM
 CP2K                                 1  1.0    0.019    0.028  142.716  142.716
 qs_energies                          1  2.0    0.006    0.022  141.489  141.499
 scf_env_do_scf                       1  3.0    0.000    0.000  138.529  138.530
 scf_env_do_scf_inner_loop           30  4.0    0.027    0.030  138.529  138.529
 do_general_diag_kp                  31  5.9    0.168    0.205  128.152  129.231
 qs_scf_new_mos_kp                   30  5.0    0.000    0.000  126.409  127.478
 mp_alltoall_i22                 113308  8.8   83.675  102.962   83.675  102.962
 dbcsr_desymmetrize_deep          64630  7.4    0.953    1.142   63.416   76.664
 rskp_transform                   15656  6.9   11.832   63.664   11.832   63.664
 dbcsr_complete_redistribute      48678  8.2    1.531    1.874   39.095   44.866
 kpoint_density_transform            30  7.0    0.072    0.092   36.446   36.527
 copy_fm_to_dbcsr                 15360  8.0    0.088    0.100   29.208   34.831
 transform_dmat                    7680  8.0    5.625   30.407    5.625   30.407
 copy_dbcsr_to_fm                 33318  6.9    0.325    0.375   16.047   16.256
 qs_ks_update_qs_env                 30  5.0    0.000    0.000    4.265    8.969
 rebuild_ks_matrix                   30  6.0    0.000    0.000    3.382    8.086
 qs_ks_build_kohn_sham_matrix        30  7.0    0.051    0.053    3.382    8.086
 sum_up_and_integrate                30  8.0    0.000    0.000    1.669    6.348
 integrate_v_rspace                  30  9.0    0.020    0.101    1.667    6.346
 grid_integrate_task_list            30 10.0    1.073    5.695    1.073    5.695
 qs_rho_update_rho_low               31  5.0    0.000    0.000    4.571    4.585
 calculate_rho_elec                  31  6.0    0.051    0.065    4.571    4.585
 dbcsr_finalize                  129720  8.4    0.557    0.621    3.949    4.287
 transfer_rs2pw                     126  8.0    0.002    0.002    3.439    4.162
 density_rs2pw                       31  7.0    0.001    0.001    3.434    4.078
 transfer_rs2pw_500                  33  8.9    0.186    0.195    3.330    4.047
 mp_sendrecv_dv                     882 10.0    3.206    3.923    3.206    3.923
 cp_fm_start_copy_general         46672  7.3    0.626    0.939    3.839    3.919
 mp_alltoall_d11v                339924  9.3    3.474    3.720    3.474    3.720
 grid_collocate_task_list            31  7.0    1.081    3.691    1.081    3.691
 mp_cart_sub                      66638  8.9    2.770    2.794    2.770    2.794
 hybrid_alltoall_any              64630  8.4    0.254    0.292    2.308    2.476
 dbcsr_merge_all                  48678 10.2    1.379    1.517    2.285    2.451
 mp_alltoall_i11v                210664  9.0    1.951    2.010    1.951    2.010
 mp_allgather_i                   93344  8.3    1.580    1.729    1.580    1.729
 fft_wrap_pw1pw2                    545 10.0    0.006    0.006    1.643    1.661
 mp_cart_create                   33325  8.9    1.549    1.606    1.549    1.606
 fft_wrap_pw1pw2_500                362 11.3    0.132    0.136    1.535    1.555
 write_kpoints_restart               30  5.0    0.007    0.009    1.504    1.505
 fft3d_ps                           545 12.0    0.558    0.575    1.280    1.302
 cp_cfm_geeig_canon                 997  6.9    0.006    0.006    1.275    1.289
 mp_bcast_iv                     186844  8.3    1.116    1.280    1.116    1.280
 qs_vxc_create                       30  8.0    0.000    0.001    1.201    1.205
 xc_vxc_pw_create                    30  9.0    0.050    0.050    1.201    1.205
 cp_cfm_heevd                      1994  7.9    0.002    0.002    1.176    1.189
 cp_cfm_heevd_base                 1994  8.9    1.174    1.187    1.174    1.187
 dbcsr_work_create               113308  8.8    0.658    0.699    1.057    1.157
 dbcsr_create_new                229401  8.1    0.856    0.955    1.026    1.154
 gspace_mixing                       29  5.0    0.045    0.045    1.089    1.089
 create_qs_kind_set                   1  2.0    0.000    0.000    1.020    1.020
 read_qs_kind                         1  3.0    0.622    0.628    1.020    1.020
 dbcsr_dot                        60181  8.0    0.255    0.385    0.971    1.005
 broyden_mixing                      29  6.0    0.881    0.898    0.906    0.910
 dbcsr_iterator_start            399296  8.9    0.745    0.770    0.855    0.895
 evaluate_core_matrix_traces         30  6.0    0.000    0.000    0.882    0.882
 calculate_ptrace_kp                 60  7.0    0.045    0.047    0.882    0.882
 dbcsr_copy                       76543  7.0    0.345    0.392    0.656    0.866
 dbcsr_data_new                 1223364  9.7    0.700    0.816    0.700    0.816
 dbcsr_work_destroy_all          113308  9.8    0.533    0.539    0.802    0.808
 xc_pw_derive                       180 11.0    0.001    0.001    0.761    0.770
 copy_fm_to_dbcsr_bc              15360  9.0    0.194    0.228    0.668    0.765
 tree_to_linear_d                 48678 11.2    0.716    0.750    0.716    0.750
 copy_dbcsr_to_fm_bc              33318  7.9    0.312    0.339    0.702    0.736
 mp_sum_d                         60839  8.9    0.647    0.734    0.647    0.734
 xc_rho_set_and_dset_create          30 10.0    0.026    0.033    0.656    0.672
 mp_alltoall_z22v                   545 14.0    0.630    0.650    0.630    0.650
 dbcsr_data_release             1751920 10.1    0.594    0.630    0.594    0.630
 cp_dbcsr_alloc_block_from_nbl     7203  5.1    0.118    0.545    0.137    0.614
 self_consistency_check              30  5.0    0.043    0.046    0.586    0.608
 potential_pw2rs                     30 10.0    0.003    0.003    0.574    0.584
 cp_fm_write_unformatted           2006  6.0    0.396    0.565    0.400    0.583
 dbcsr_iterator_stop             399296  8.9    0.473    0.479    0.559    0.566
 dbcsr_destroy                   169221  8.1    0.272    0.297    0.491    0.552
 qs_energies_init_hamiltonians        1  3.0    0.000    0.000    0.536    0.536
 cp_sm_mix                        30090  6.0    0.083    0.155    0.500    0.529
 kpoint_set_mo_occupation            30  7.0    0.468    0.470    0.492    0.506
 xc_pw_divergence                    30 10.0    0.000    0.000    0.489    0.498
 parser_read_line                135946  4.0    0.045    0.048    0.454    0.459
 mp_waitall_1                    193443  8.3    0.263    0.445    0.263    0.445
 parser_read_line_low               155  5.2    0.049    0.205    0.409    0.415
 x_to_yz                            300 13.2    0.055    0.056    0.403    0.415
 transfer_pw2rs                     121 11.0    0.001    0.001    0.394    0.395
 build_core_hamiltonian_matrix        1  4.0    0.004    0.004    0.124    0.392
 mp_max_d                         30092  7.0    0.345    0.391    0.345    0.391
 broadcast_input_information        155  6.2    0.099    0.104    0.360    0.390
 qs_env_update_s_mstruct              1  4.0    0.000    0.000    0.327    0.383
 mp_bcast_im                      93344  8.3    0.335    0.382    0.335    0.382
 calculate_rho_core                   1  5.0    0.002    0.003    0.300    0.373
 dbcsr_copy_into_existing         16363  9.8    0.123    0.275    0.215    0.371
 quick_finalize                   64630  9.4    0.161    0.211    0.269    0.369
 init_scf_run                         1  3.0    0.000    0.000    0.330    0.362
 scf_env_initial_rho_setup            1  4.0    0.000    0.000    0.330    0.362
 yz_to_x                            245 12.8    0.032    0.034    0.314    0.326
 transfer_pw2rs_500                  31 11.9    0.155    0.162    0.293    0.298
 mp_comm_free                     99999  8.9    0.229    0.270    0.229    0.270
 dbcsr_set                       146309  7.6    0.130    0.140    0.189    0.268
 xc_functional_eval                  30 11.0    0.000    0.000    0.225    0.234
 pbe_lda_eval                        30 12.0    0.224    0.233    0.224    0.233
 cp_fm_finish_copy_general        19348  7.8    0.155    0.180    0.179    0.222
 mixing_allocate                      1  3.0    0.006    0.006    0.052    0.188
 calculate_first_density_matrix       1  5.0    0.001    0.001    0.141    0.173
 kpoint_density_matrices             30  7.0    0.012    0.012    0.157    0.173
 mp_bcast_i_src                     620  7.2    0.142    0.172    0.142    0.172
 calculate_atomic_block_dm            1  6.0    0.001    0.001    0.139    0.171
 scf_post_calculation_gpw             1  3.0    0.000    0.000    0.169    0.169
 write_available_results              1  4.0    0.000    0.000    0.169    0.169
 write_mo_free_results                1  5.0    0.002    0.002    0.169    0.169
 dbcsr_reserve_blocks             22563  9.4    0.081    0.135    0.097    0.159
 parallel_gemm_fm                  3840  8.0    0.003    0.004    0.142    0.157
 parallel_gemm_fm_gemm             3840  9.0    0.004    0.004    0.139    0.154
 cp_fm_gemm                        3840 10.0    0.135    0.150    0.135    0.150
 dbcsr_sort_indices              135871 11.0    0.078    0.144    0.078    0.144
 dbcsr_iterator_seek             399296  9.9    0.109    0.139    0.109    0.139
 mp_bcast_am_src                    155  7.2    0.098    0.103    0.117    0.131
 pw_scatter_p                       300 12.2    0.126    0.129    0.126    0.129
 dbcsr_zero                      146309  8.6    0.058    0.128    0.058    0.128
 dbcsr_make_index_exist          229401  9.1    0.108    0.127    0.108    0.127
 dbcsr_reserve_all_blocks         15360 10.0    0.022    0.028    0.102    0.120
 mp_sum_dv                          325  3.4    0.083    0.110    0.083    0.110
 merge_index                      48678 11.2    0.098    0.107    0.098    0.107
 build_overlap_matrix_low             1  5.0    0.008    0.014    0.031    0.104
 build_kinetic_matrix_low             1  5.0    0.008    0.013    0.032    0.102
 pw_poisson_solve                    30  8.0    0.000    0.000    0.100    0.101
 calculate_ecore_overlap              1  4.0    0.000    0.000    0.078    0.096
 qs_env_rebuild_rho                   1  5.0    0.000    0.000    0.025    0.092
 qs_rho_rebuild                       1  6.0    0.003    0.003    0.025    0.092
 hirshfeld_integration                1  6.0    0.020    0.081    0.091    0.091
 mp_irecv_iv                     186688  8.3    0.011    0.090    0.011    0.090
 qs_init_subsys                       1  2.0    0.001    0.002    0.088    0.088
 transfer_rs2pw_170                  31  9.0    0.037    0.040    0.083    0.087
 cp_cfm_gemm                       2991  7.9    0.084    0.086    0.084    0.086
 qs_env_setup                         1  3.0    0.000    0.000    0.085    0.086
 qs_env_rebuild_pw_env                2  3.5    0.000    0.000    0.085    0.086
 pw_env_rebuild                       1  5.0    0.001    0.001    0.084    0.085
 mp_sum_iv                           24  5.3    0.069    0.085    0.069    0.085
 qs_scf_ensure_work_matrices          1  3.0    0.000    0.000    0.068    0.084
 transfer_pw2rs_170                  30 12.0    0.039    0.043    0.076    0.083
 dbcsr_switch_data_area           64630 10.4    0.059    0.059    0.076    0.079
 mp_isend_dv                      47264  8.2    0.073    0.078    0.073    0.078
 mp_isendrecv_dv                    847 13.0    0.035    0.076    0.035    0.076
 fft_wrap_pw1pw2_170                 61 10.5    0.006    0.006    0.073    0.076
 pw_grid_setup                        4  6.0    0.000    0.000    0.070    0.070
 pw_grid_setup_internal               4  7.0    0.002    0.002    0.070    0.070
 calculate_hirshfeld_normalizat       1  6.0    0.014    0.057    0.069    0.069
 pw_integral_ab_c1d_c1d_gs           30  9.0    0.063    0.064    0.066    0.067
 cp_fm_cleanup_copy_general       33232  7.0    0.040    0.041    0.062    0.066
 mp_isend_iv                     105160  8.3    0.016    0.063    0.016    0.063
 topology_control                     1  2.0    0.000    0.000    0.061    0.062
 pw_gather_p                        245 11.8    0.055    0.056    0.055    0.056
 dbcsr_data_copy_aa2              48678 11.0    0.027    0.050    0.027    0.050
 build_core_ppnl                      1  5.0    0.016    0.050    0.016    0.050
 pw_grid_sort                         4  8.0    0.033    0.035    0.047    0.049
 mp_irecv_im2                     93344  8.3    0.006    0.045    0.006    0.045
 dbcsr_distribution_new           48680  8.6    0.034    0.043    0.034    0.043
 read_cell_cif                        2  4.5    0.002    0.004    0.042    0.043
 pw_copy                            450 10.5    0.039    0.041    0.039    0.041
 dbcsr_get_data_size_used        113308  9.8    0.036    0.041    0.036    0.041
 mp_sum_dm3                          30  8.0    0.024    0.040    0.024    0.040
 coordinate_control                   1  3.0    0.001    0.001    0.037    0.037
 coordinate_control_READ_COORDI       1  4.0    0.000    0.000    0.036    0.037
 pw_derive                          270 11.3    0.035    0.037    0.035    0.037
 read_coordinate_cif                  1  5.0    0.001    0.002    0.036    0.037
 dbcsr_make_dbcsr_index          135871 10.9    0.035    0.035    0.035    0.035
 mixing_init                          1  5.0    0.032    0.035    0.035    0.035
 mp_isend_im2                     52580  8.3    0.007    0.029    0.007    0.029
 mp_irecv_dv                      47264  8.2    0.027    0.028    0.027    0.028
 pw_copy_from_array                 300 12.2    0.024    0.027    0.024    0.027
 mp_sum_dm                           29  7.0    0.017    0.027    0.017    0.027
 pw_poisson_set                      31  8.9    0.000    0.000    0.022    0.023
 fft_wrap_pw1pw2_60                  61 10.5    0.001    0.001    0.021    0.021
 transfer_rs2pw_60                   31  9.0    0.006    0.006    0.019    0.021
 transfer_pw2rs_60                   30 12.0    0.007    0.007    0.018    0.020
 mp_comm_size                     61207  9.0    0.016    0.020    0.016    0.020
 build_core_ppl                       1  5.0    0.004    0.019    0.004    0.019
 restraint_control                    1  2.0    0.000    0.000    0.010    0.018
 mp_sum_i                             4  2.8    0.010    0.018    0.010    0.018
 mp_recv_dv                        6018  7.0    0.002    0.018    0.002    0.018
 pw_axpy                            304  9.3    0.016    0.017    0.016    0.017
 mp_comm_rank                     61207  9.0    0.014    0.015    0.014    0.015
 -------------------------------------------------------------------------------

 The number of warnings for this run is : 1
 
 -------------------------------------------------------------------------------
  **** **** ******  **  PROGRAM ENDED AT                 2025-08-04 04:08:33.800
 ***** ** ***  *** **   PROGRAM RAN ON                              i03r10c01s03
 **    ****   ******    PROGRAM RAN BY                                   di38fab
 ***** **    ** ** **   PROGRAM PROCESS ID                                469420
  **** **  *******  **  PROGRAM STOPPED IN /hppfs/scratch/04/di38fab/09_GTH/Delt
                                           a_Set/Cs/TZV2P-MOLOPT-PBE-GTH/8x8x8
