 DBCSR| CPU Multiplication driver                                           BLAS (U)
 DBCSR| Multrec recursion limit                                              512 (U)
 DBCSR| Multiplication stack size                                           1000 (D)
 DBCSR| Maximum elements for images                                    UNLIMITED (U)
 DBCSR| Multiplicative factor virtual images                                   1 (U)
 DBCSR| Use multiplication densification                                       T (D)
 DBCSR| Multiplication size stacks                                             3 (U)
 DBCSR| Use memory pool for CPU allocation                                     F (U)
 DBCSR| Number of 3D layers                                               SINGLE (U)
 DBCSR| Use MPI memory allocation                                              F (U)
 DBCSR| Use RMA algorithm                                                      F (U)
 DBCSR| Use Communication thread                                               T (U)
 DBCSR| Communication thread load                                             45 (D)
 DBCSR| MPI: My process id                                                     0
 DBCSR| MPI: Number of processes                                               8
 DBCSR| OMP: Current number of threads                                        12
 DBCSR| OMP: Max number of threads                                            12
 DBCSR| Split modifier for TAS multiplication algorithm                  1.0E+00 (U)


  **** **** ******  **  PROGRAM STARTED AT               2025-08-05 04:16:39.796
 ***** ** ***  *** **   PROGRAM STARTED ON                          i04r07c05s06
 **    ****   ******    PROGRAM STARTED BY                               di38fab
 ***** **    ** ** **   PROGRAM PROCESS ID                                427801
  **** **  *******  **  PROGRAM STARTED IN /hppfs/scratch/04/di38fab/09_GTH/Delt
                                           a_Set/Al/aug-DZVP-MOLOPT-GTH-tier-1/8
                                           x8x8

 CP2K| version string:                 CP2K version 2025.1 (Development Version)
 CP2K| source code revision number:                                  git:3130539
 CP2K| cp2kflags: omp libint fftw3 libxc parallel scalapack max_contr=4         
 CP2K| is freely available from                            https://www.cp2k.org/
 CP2K| Program compiled at                         Tue Jun  3 16:14:32 CEST 2025
 CP2K| Program compiled on                                               login01
 CP2K| Program compiled for                                        Supermuc-foss
 CP2K| Data directory path                  /hppfs/work/pn36zo/di38fab/cp2k/data
 CP2K| Input file name                                                    GW.inp

 GLOBAL| Force Environment number                                              1
 GLOBAL| Basis set file name            /hppfs/scratch/04/di38fab/09_GTH/BASIS_A
 GLOBAL| Potential file name            /hppfs/work/pn36zo/di38fab/cp2k/data/GTH
 GLOBAL| MM Potential file name                                     MM_POTENTIAL
 GLOBAL| Coordinate file name                                             Al.cif
 GLOBAL| Method name                                                        CP2K
 GLOBAL| Project name                                                       WSe2
 GLOBAL| Run type                                                         ENERGY
 GLOBAL| FFT library                                                       FFTW3
 GLOBAL| Diagonalization library                                       ScaLAPACK
 GLOBAL| Cholesky decomposition library                                ScaLAPACK
 GLOBAL| DGEMM library                                                      BLAS
 GLOBAL| Orthonormality check for eigenvectors                          DISABLED
 GLOBAL| Matrix multiplication library                                 ScaLAPACK
 GLOBAL| All-to-all communication in single precision                          F
 GLOBAL| FFTs using library dependent lengths                                  F
 GLOBAL| Grid backend                                                       AUTO
 GLOBAL| Global print level                                               MEDIUM
 GLOBAL| MPI I/O enabled                                                       T
 GLOBAL| Total number of message passing processes                             8
 GLOBAL| Number of threads for this process                                   12
 GLOBAL| This output is from process                                           0
 GLOBAL| OpenMP stack size per thread (OMP_STACKSIZE)                    default
 GLOBAL| CPU model name             Intel(R) Xeon(R) Platinum 8174 CPU @ 3.10GHz

 MEMORY| system memory details [Kb]
 MEMORY|                        rank 0           min           max       average
 MEMORY| MemTotal             98436664      98436664      98436664      98436664
 MEMORY| MemFree              84692576      84692576      84701632      84697104
 MEMORY| Buffers                     0             0             0             0
 MEMORY| Cached                2370252       2370252       2379408       2374830
 MEMORY| Slab                  1281412       1245208       1281412       1263310
 MEMORY| SReclaimable           281220        273284        281220        277252
 MEMORY| MemLikelyFree        87344048      87344048      87354324      87349186


 *** Fundamental physical constants (SI units) ***

 *** Literature: B. J. Mohr and B. N. Taylor,
 ***             CODATA recommended values of the fundamental physical
 ***             constants: 2006, Web Version 5.1
 ***             http://physics.nist.gov/constants

 Speed of light in vacuum [m/s]                             2.99792458000000E+08
 Magnetic constant or permeability of vacuum [N/A**2]       1.25663706143592E-06
 Electric constant or permittivity of vacuum [F/m]          8.85418781762039E-12
 Planck constant (h) [J*s]                                  6.62606896000000E-34
 Planck constant (h-bar) [J*s]                              1.05457162825177E-34
 Elementary charge [C]                                      1.60217648700000E-19
 Electron mass [kg]                                         9.10938215000000E-31
 Electron g factor [ ]                                     -2.00231930436220E+00
 Proton mass [kg]                                           1.67262163700000E-27
 Fine-structure constant                                    7.29735253760000E-03
 Rydberg constant [1/m]                                     1.09737315685270E+07
 Avogadro constant [1/mol]                                  6.02214179000000E+23
 Boltzmann constant [J/K]                                   1.38065040000000E-23
 Atomic mass unit [kg]                                      1.66053878200000E-27
 Bohr radius [m]                                            5.29177208590000E-11

 *** Conversion factors ***

 [u] -> [a.u.]                                              1.82288848426455E+03
 [Angstrom] -> [Bohr] = [a.u.]                              1.88972613288564E+00
 [a.u.] = [Bohr] -> [Angstrom]                              5.29177208590000E-01
 [a.u.] -> [s]                                              2.41888432650478E-17
 [a.u.] -> [fs]                                             2.41888432650478E-02
 [a.u.] -> [J]                                              4.35974393937059E-18
 [a.u.] -> [N]                                              8.23872205491840E-08
 [a.u.] -> [K]                                              3.15774647902944E+05
 [a.u.] -> [kJ/mol]                                         2.62549961709828E+03
 [a.u.] -> [kcal/mol]                                       6.27509468713739E+02
 [a.u.] -> [Pa]                                             2.94210107994716E+13
 [a.u.] -> [bar]                                            2.94210107994716E+08
 [a.u.] -> [atm]                                            2.90362800883016E+08
 [a.u.] -> [eV]                                             2.72113838565563E+01
 [a.u.] -> [Hz]                                             6.57968392072181E+15
 [a.u.] -> [1/cm] (wave numbers)                            2.19474631370540E+05
 [a.u./Bohr**2] -> [1/cm]                                   5.14048714338585E+03
 

 CELL_TOP| Volume [angstrom^3]:                                        65.949547
 CELL_TOP| Vector a [angstrom     4.040     0.000     0.000   |a| =     4.040210
 CELL_TOP| Vector b [angstrom     0.000     4.040     0.000   |b| =     4.040210
 CELL_TOP| Vector c [angstrom     0.000     0.000     4.040   |c| =     4.040210
 CELL_TOP| Angle (b,c), alpha [degree]:                                90.000000
 CELL_TOP| Angle (a,c), beta  [degree]:                                90.000000
 CELL_TOP| Angle (a,b), gamma [degree]:                                90.000000
 CELL_TOP| Numerically orthorhombic:                                         YES
 CELL_TOP| Periodicity                                                       XYZ

 CELL_CIF| Volume [angstrom^3]:                                        65.949547
 CELL_CIF| Vector a [angstrom     4.040     0.000     0.000   |a| =     4.040210
 CELL_CIF| Vector b [angstrom     0.000     4.040     0.000   |b| =     4.040210
 CELL_CIF| Vector c [angstrom     0.000     0.000     4.040   |c| =     4.040210
 CELL_CIF| Angle (b,c), alpha [degree]:                                90.000000
 CELL_CIF| Angle (a,c), beta  [degree]:                                90.000000
 CELL_CIF| Angle (a,b), gamma [degree]:                                90.000000
 CELL_CIF| Numerically orthorhombic:                                         YES
 CELL_CIF| Periodicity                                                       XYZ

 GENERATE|  Preliminary Number of Bonds generated:                             0
 GENERATE|  Achieved consistency in connectivity generation.

 CELL| Volume [angstrom^3]:                                            65.949547
 CELL| Vector a [angstrom]:       4.040     0.000     0.000   |a| =     4.040210
 CELL| Vector b [angstrom]:       0.000     4.040     0.000   |b| =     4.040210
 CELL| Vector c [angstrom]:       0.000     0.000     4.040   |c| =     4.040210
 CELL| Angle (b,c), alpha [degree]:                                    90.000000
 CELL| Angle (a,c), beta  [degree]:                                    90.000000
 CELL| Angle (a,b), gamma [degree]:                                    90.000000
 CELL| Numerically orthorhombic:                                             YES
 CELL| Periodicity                                                           XYZ

 CELL_REF| Volume [angstrom^3]:                                        65.949547
 CELL_REF| Vector a [angstrom     4.040     0.000     0.000   |a| =     4.040210
 CELL_REF| Vector b [angstrom     0.000     4.040     0.000   |b| =     4.040210
 CELL_REF| Vector c [angstrom     0.000     0.000     4.040   |c| =     4.040210
 CELL_REF| Angle (b,c), alpha [degree]:                                90.000000
 CELL_REF| Angle (a,c), beta  [degree]:                                90.000000
 CELL_REF| Angle (a,b), gamma [degree]:                                90.000000
 CELL_REF| Numerically orthorhombic:                                         YES
 CELL_REF| Periodicity                                                       XYZ

 *** WARNING in cryssym.F:180 :: Symmetry library SPGLIB not available ***


 *******************************************************************************
                                    Kpoints
 *******************************************************************************
 BRILLOUIN| K-point scheme                                        Monkhorst-Pack
 BRILLOUIN| K-Point grid                                             8    8    8
 BRILLOUIN| Accuracy in Symmetry determination                      0.100000E-05
 BRILLOUIN| K-Point point group symmetrization                               OFF
 BRILLOUIN| Wavefunction type                                            COMPLEX
 BRILLOUIN| List of Kpoints [2 Pi/Bohr]                                      256
 BRILLOUIN| Number           Weight            X              Y              Z
 BRILLOUIN|     1           0.00391       -0.43750       -0.43750       -0.43750
 BRILLOUIN|     2           0.00391       -0.43750       -0.43750       -0.31250
 BRILLOUIN|     3           0.00391       -0.43750       -0.43750       -0.18750
 BRILLOUIN|     4           0.00391       -0.43750       -0.43750       -0.06250
 BRILLOUIN|     5           0.00391       -0.43750       -0.43750        0.06250
 BRILLOUIN|     6           0.00391       -0.43750       -0.43750        0.18750
 BRILLOUIN|     7           0.00391       -0.43750       -0.43750        0.31250
 BRILLOUIN|     8           0.00391       -0.43750       -0.43750        0.43750
 BRILLOUIN|     9           0.00391       -0.43750       -0.31250       -0.43750
 BRILLOUIN|    10           0.00391       -0.43750       -0.31250       -0.31250
 BRILLOUIN|    11           0.00391       -0.43750       -0.31250       -0.18750
 BRILLOUIN|    12           0.00391       -0.43750       -0.31250       -0.06250
 BRILLOUIN|    13           0.00391       -0.43750       -0.31250        0.06250
 BRILLOUIN|    14           0.00391       -0.43750       -0.31250        0.18750
 BRILLOUIN|    15           0.00391       -0.43750       -0.31250        0.31250
 BRILLOUIN|    16           0.00391       -0.43750       -0.31250        0.43750
 BRILLOUIN|    17           0.00391       -0.43750       -0.18750       -0.43750
 BRILLOUIN|    18           0.00391       -0.43750       -0.18750       -0.31250
 BRILLOUIN|    19           0.00391       -0.43750       -0.18750       -0.18750
 BRILLOUIN|    20           0.00391       -0.43750       -0.18750       -0.06250
 BRILLOUIN|    21           0.00391       -0.43750       -0.18750        0.06250
 BRILLOUIN|    22           0.00391       -0.43750       -0.18750        0.18750
 BRILLOUIN|    23           0.00391       -0.43750       -0.18750        0.31250
 BRILLOUIN|    24           0.00391       -0.43750       -0.18750        0.43750
 BRILLOUIN|    25           0.00391       -0.43750       -0.06250       -0.43750
 BRILLOUIN|    26           0.00391       -0.43750       -0.06250       -0.31250
 BRILLOUIN|    27           0.00391       -0.43750       -0.06250       -0.18750
 BRILLOUIN|    28           0.00391       -0.43750       -0.06250       -0.06250
 BRILLOUIN|    29           0.00391       -0.43750       -0.06250        0.06250
 BRILLOUIN|    30           0.00391       -0.43750       -0.06250        0.18750
 BRILLOUIN|    31           0.00391       -0.43750       -0.06250        0.31250
 BRILLOUIN|    32           0.00391       -0.43750       -0.06250        0.43750
 BRILLOUIN|    33           0.00391       -0.43750        0.06250       -0.43750
 BRILLOUIN|    34           0.00391       -0.43750        0.06250       -0.31250
 BRILLOUIN|    35           0.00391       -0.43750        0.06250       -0.18750
 BRILLOUIN|    36           0.00391       -0.43750        0.06250       -0.06250
 BRILLOUIN|    37           0.00391       -0.43750        0.06250        0.06250
 BRILLOUIN|    38           0.00391       -0.43750        0.06250        0.18750
 BRILLOUIN|    39           0.00391       -0.43750        0.06250        0.31250
 BRILLOUIN|    40           0.00391       -0.43750        0.06250        0.43750
 BRILLOUIN|    41           0.00391       -0.43750        0.18750       -0.43750
 BRILLOUIN|    42           0.00391       -0.43750        0.18750       -0.31250
 BRILLOUIN|    43           0.00391       -0.43750        0.18750       -0.18750
 BRILLOUIN|    44           0.00391       -0.43750        0.18750       -0.06250
 BRILLOUIN|    45           0.00391       -0.43750        0.18750        0.06250
 BRILLOUIN|    46           0.00391       -0.43750        0.18750        0.18750
 BRILLOUIN|    47           0.00391       -0.43750        0.18750        0.31250
 BRILLOUIN|    48           0.00391       -0.43750        0.18750        0.43750
 BRILLOUIN|    49           0.00391       -0.43750        0.31250       -0.43750
 BRILLOUIN|    50           0.00391       -0.43750        0.31250       -0.31250
 BRILLOUIN|    51           0.00391       -0.43750        0.31250       -0.18750
 BRILLOUIN|    52           0.00391       -0.43750        0.31250       -0.06250
 BRILLOUIN|    53           0.00391       -0.43750        0.31250        0.06250
 BRILLOUIN|    54           0.00391       -0.43750        0.31250        0.18750
 BRILLOUIN|    55           0.00391       -0.43750        0.31250        0.31250
 BRILLOUIN|    56           0.00391       -0.43750        0.31250        0.43750
 BRILLOUIN|    57           0.00391       -0.43750        0.43750       -0.43750
 BRILLOUIN|    58           0.00391       -0.43750        0.43750       -0.31250
 BRILLOUIN|    59           0.00391       -0.43750        0.43750       -0.18750
 BRILLOUIN|    60           0.00391       -0.43750        0.43750       -0.06250
 BRILLOUIN|    61           0.00391       -0.43750        0.43750        0.06250
 BRILLOUIN|    62           0.00391       -0.43750        0.43750        0.18750
 BRILLOUIN|    63           0.00391       -0.43750        0.43750        0.31250
 BRILLOUIN|    64           0.00391       -0.43750        0.43750        0.43750
 BRILLOUIN|    65           0.00391       -0.31250       -0.43750       -0.43750
 BRILLOUIN|    66           0.00391       -0.31250       -0.43750       -0.31250
 BRILLOUIN|    67           0.00391       -0.31250       -0.43750       -0.18750
 BRILLOUIN|    68           0.00391       -0.31250       -0.43750       -0.06250
 BRILLOUIN|    69           0.00391       -0.31250       -0.43750        0.06250
 BRILLOUIN|    70           0.00391       -0.31250       -0.43750        0.18750
 BRILLOUIN|    71           0.00391       -0.31250       -0.43750        0.31250
 BRILLOUIN|    72           0.00391       -0.31250       -0.43750        0.43750
 BRILLOUIN|    73           0.00391       -0.31250       -0.31250       -0.43750
 BRILLOUIN|    74           0.00391       -0.31250       -0.31250       -0.31250
 BRILLOUIN|    75           0.00391       -0.31250       -0.31250       -0.18750
 BRILLOUIN|    76           0.00391       -0.31250       -0.31250       -0.06250
 BRILLOUIN|    77           0.00391       -0.31250       -0.31250        0.06250
 BRILLOUIN|    78           0.00391       -0.31250       -0.31250        0.18750
 BRILLOUIN|    79           0.00391       -0.31250       -0.31250        0.31250
 BRILLOUIN|    80           0.00391       -0.31250       -0.31250        0.43750
 BRILLOUIN|    81           0.00391       -0.31250       -0.18750       -0.43750
 BRILLOUIN|    82           0.00391       -0.31250       -0.18750       -0.31250
 BRILLOUIN|    83           0.00391       -0.31250       -0.18750       -0.18750
 BRILLOUIN|    84           0.00391       -0.31250       -0.18750       -0.06250
 BRILLOUIN|    85           0.00391       -0.31250       -0.18750        0.06250
 BRILLOUIN|    86           0.00391       -0.31250       -0.18750        0.18750
 BRILLOUIN|    87           0.00391       -0.31250       -0.18750        0.31250
 BRILLOUIN|    88           0.00391       -0.31250       -0.18750        0.43750
 BRILLOUIN|    89           0.00391       -0.31250       -0.06250       -0.43750
 BRILLOUIN|    90           0.00391       -0.31250       -0.06250       -0.31250
 BRILLOUIN|    91           0.00391       -0.31250       -0.06250       -0.18750
 BRILLOUIN|    92           0.00391       -0.31250       -0.06250       -0.06250
 BRILLOUIN|    93           0.00391       -0.31250       -0.06250        0.06250
 BRILLOUIN|    94           0.00391       -0.31250       -0.06250        0.18750
 BRILLOUIN|    95           0.00391       -0.31250       -0.06250        0.31250
 BRILLOUIN|    96           0.00391       -0.31250       -0.06250        0.43750
 BRILLOUIN|    97           0.00391       -0.31250        0.06250       -0.43750
 BRILLOUIN|    98           0.00391       -0.31250        0.06250       -0.31250
 BRILLOUIN|    99           0.00391       -0.31250        0.06250       -0.18750
 BRILLOUIN|   100           0.00391       -0.31250        0.06250       -0.06250
 BRILLOUIN|   101           0.00391       -0.31250        0.06250        0.06250
 BRILLOUIN|   102           0.00391       -0.31250        0.06250        0.18750
 BRILLOUIN|   103           0.00391       -0.31250        0.06250        0.31250
 BRILLOUIN|   104           0.00391       -0.31250        0.06250        0.43750
 BRILLOUIN|   105           0.00391       -0.31250        0.18750       -0.43750
 BRILLOUIN|   106           0.00391       -0.31250        0.18750       -0.31250
 BRILLOUIN|   107           0.00391       -0.31250        0.18750       -0.18750
 BRILLOUIN|   108           0.00391       -0.31250        0.18750       -0.06250
 BRILLOUIN|   109           0.00391       -0.31250        0.18750        0.06250
 BRILLOUIN|   110           0.00391       -0.31250        0.18750        0.18750
 BRILLOUIN|   111           0.00391       -0.31250        0.18750        0.31250
 BRILLOUIN|   112           0.00391       -0.31250        0.18750        0.43750
 BRILLOUIN|   113           0.00391       -0.31250        0.31250       -0.43750
 BRILLOUIN|   114           0.00391       -0.31250        0.31250       -0.31250
 BRILLOUIN|   115           0.00391       -0.31250        0.31250       -0.18750
 BRILLOUIN|   116           0.00391       -0.31250        0.31250       -0.06250
 BRILLOUIN|   117           0.00391       -0.31250        0.31250        0.06250
 BRILLOUIN|   118           0.00391       -0.31250        0.31250        0.18750
 BRILLOUIN|   119           0.00391       -0.31250        0.31250        0.31250
 BRILLOUIN|   120           0.00391       -0.31250        0.31250        0.43750
 BRILLOUIN|   121           0.00391       -0.31250        0.43750       -0.43750
 BRILLOUIN|   122           0.00391       -0.31250        0.43750       -0.31250
 BRILLOUIN|   123           0.00391       -0.31250        0.43750       -0.18750
 BRILLOUIN|   124           0.00391       -0.31250        0.43750       -0.06250
 BRILLOUIN|   125           0.00391       -0.31250        0.43750        0.06250
 BRILLOUIN|   126           0.00391       -0.31250        0.43750        0.18750
 BRILLOUIN|   127           0.00391       -0.31250        0.43750        0.31250
 BRILLOUIN|   128           0.00391       -0.31250        0.43750        0.43750
 BRILLOUIN|   129           0.00391       -0.18750       -0.43750       -0.43750
 BRILLOUIN|   130           0.00391       -0.18750       -0.43750       -0.31250
 BRILLOUIN|   131           0.00391       -0.18750       -0.43750       -0.18750
 BRILLOUIN|   132           0.00391       -0.18750       -0.43750       -0.06250
 BRILLOUIN|   133           0.00391       -0.18750       -0.43750        0.06250
 BRILLOUIN|   134           0.00391       -0.18750       -0.43750        0.18750
 BRILLOUIN|   135           0.00391       -0.18750       -0.43750        0.31250
 BRILLOUIN|   136           0.00391       -0.18750       -0.43750        0.43750
 BRILLOUIN|   137           0.00391       -0.18750       -0.31250       -0.43750
 BRILLOUIN|   138           0.00391       -0.18750       -0.31250       -0.31250
 BRILLOUIN|   139           0.00391       -0.18750       -0.31250       -0.18750
 BRILLOUIN|   140           0.00391       -0.18750       -0.31250       -0.06250
 BRILLOUIN|   141           0.00391       -0.18750       -0.31250        0.06250
 BRILLOUIN|   142           0.00391       -0.18750       -0.31250        0.18750
 BRILLOUIN|   143           0.00391       -0.18750       -0.31250        0.31250
 BRILLOUIN|   144           0.00391       -0.18750       -0.31250        0.43750
 BRILLOUIN|   145           0.00391       -0.18750       -0.18750       -0.43750
 BRILLOUIN|   146           0.00391       -0.18750       -0.18750       -0.31250
 BRILLOUIN|   147           0.00391       -0.18750       -0.18750       -0.18750
 BRILLOUIN|   148           0.00391       -0.18750       -0.18750       -0.06250
 BRILLOUIN|   149           0.00391       -0.18750       -0.18750        0.06250
 BRILLOUIN|   150           0.00391       -0.18750       -0.18750        0.18750
 BRILLOUIN|   151           0.00391       -0.18750       -0.18750        0.31250
 BRILLOUIN|   152           0.00391       -0.18750       -0.18750        0.43750
 BRILLOUIN|   153           0.00391       -0.18750       -0.06250       -0.43750
 BRILLOUIN|   154           0.00391       -0.18750       -0.06250       -0.31250
 BRILLOUIN|   155           0.00391       -0.18750       -0.06250       -0.18750
 BRILLOUIN|   156           0.00391       -0.18750       -0.06250       -0.06250
 BRILLOUIN|   157           0.00391       -0.18750       -0.06250        0.06250
 BRILLOUIN|   158           0.00391       -0.18750       -0.06250        0.18750
 BRILLOUIN|   159           0.00391       -0.18750       -0.06250        0.31250
 BRILLOUIN|   160           0.00391       -0.18750       -0.06250        0.43750
 BRILLOUIN|   161           0.00391       -0.18750        0.06250       -0.43750
 BRILLOUIN|   162           0.00391       -0.18750        0.06250       -0.31250
 BRILLOUIN|   163           0.00391       -0.18750        0.06250       -0.18750
 BRILLOUIN|   164           0.00391       -0.18750        0.06250       -0.06250
 BRILLOUIN|   165           0.00391       -0.18750        0.06250        0.06250
 BRILLOUIN|   166           0.00391       -0.18750        0.06250        0.18750
 BRILLOUIN|   167           0.00391       -0.18750        0.06250        0.31250
 BRILLOUIN|   168           0.00391       -0.18750        0.06250        0.43750
 BRILLOUIN|   169           0.00391       -0.18750        0.18750       -0.43750
 BRILLOUIN|   170           0.00391       -0.18750        0.18750       -0.31250
 BRILLOUIN|   171           0.00391       -0.18750        0.18750       -0.18750
 BRILLOUIN|   172           0.00391       -0.18750        0.18750       -0.06250
 BRILLOUIN|   173           0.00391       -0.18750        0.18750        0.06250
 BRILLOUIN|   174           0.00391       -0.18750        0.18750        0.18750
 BRILLOUIN|   175           0.00391       -0.18750        0.18750        0.31250
 BRILLOUIN|   176           0.00391       -0.18750        0.18750        0.43750
 BRILLOUIN|   177           0.00391       -0.18750        0.31250       -0.43750
 BRILLOUIN|   178           0.00391       -0.18750        0.31250       -0.31250
 BRILLOUIN|   179           0.00391       -0.18750        0.31250       -0.18750
 BRILLOUIN|   180           0.00391       -0.18750        0.31250       -0.06250
 BRILLOUIN|   181           0.00391       -0.18750        0.31250        0.06250
 BRILLOUIN|   182           0.00391       -0.18750        0.31250        0.18750
 BRILLOUIN|   183           0.00391       -0.18750        0.31250        0.31250
 BRILLOUIN|   184           0.00391       -0.18750        0.31250        0.43750
 BRILLOUIN|   185           0.00391       -0.18750        0.43750       -0.43750
 BRILLOUIN|   186           0.00391       -0.18750        0.43750       -0.31250
 BRILLOUIN|   187           0.00391       -0.18750        0.43750       -0.18750
 BRILLOUIN|   188           0.00391       -0.18750        0.43750       -0.06250
 BRILLOUIN|   189           0.00391       -0.18750        0.43750        0.06250
 BRILLOUIN|   190           0.00391       -0.18750        0.43750        0.18750
 BRILLOUIN|   191           0.00391       -0.18750        0.43750        0.31250
 BRILLOUIN|   192           0.00391       -0.18750        0.43750        0.43750
 BRILLOUIN|   193           0.00391       -0.06250       -0.43750       -0.43750
 BRILLOUIN|   194           0.00391       -0.06250       -0.43750       -0.31250
 BRILLOUIN|   195           0.00391       -0.06250       -0.43750       -0.18750
 BRILLOUIN|   196           0.00391       -0.06250       -0.43750       -0.06250
 BRILLOUIN|   197           0.00391       -0.06250       -0.43750        0.06250
 BRILLOUIN|   198           0.00391       -0.06250       -0.43750        0.18750
 BRILLOUIN|   199           0.00391       -0.06250       -0.43750        0.31250
 BRILLOUIN|   200           0.00391       -0.06250       -0.43750        0.43750
 BRILLOUIN|   201           0.00391       -0.06250       -0.31250       -0.43750
 BRILLOUIN|   202           0.00391       -0.06250       -0.31250       -0.31250
 BRILLOUIN|   203           0.00391       -0.06250       -0.31250       -0.18750
 BRILLOUIN|   204           0.00391       -0.06250       -0.31250       -0.06250
 BRILLOUIN|   205           0.00391       -0.06250       -0.31250        0.06250
 BRILLOUIN|   206           0.00391       -0.06250       -0.31250        0.18750
 BRILLOUIN|   207           0.00391       -0.06250       -0.31250        0.31250
 BRILLOUIN|   208           0.00391       -0.06250       -0.31250        0.43750
 BRILLOUIN|   209           0.00391       -0.06250       -0.18750       -0.43750
 BRILLOUIN|   210           0.00391       -0.06250       -0.18750       -0.31250
 BRILLOUIN|   211           0.00391       -0.06250       -0.18750       -0.18750
 BRILLOUIN|   212           0.00391       -0.06250       -0.18750       -0.06250
 BRILLOUIN|   213           0.00391       -0.06250       -0.18750        0.06250
 BRILLOUIN|   214           0.00391       -0.06250       -0.18750        0.18750
 BRILLOUIN|   215           0.00391       -0.06250       -0.18750        0.31250
 BRILLOUIN|   216           0.00391       -0.06250       -0.18750        0.43750
 BRILLOUIN|   217           0.00391       -0.06250       -0.06250       -0.43750
 BRILLOUIN|   218           0.00391       -0.06250       -0.06250       -0.31250
 BRILLOUIN|   219           0.00391       -0.06250       -0.06250       -0.18750
 BRILLOUIN|   220           0.00391       -0.06250       -0.06250       -0.06250
 BRILLOUIN|   221           0.00391       -0.06250       -0.06250        0.06250
 BRILLOUIN|   222           0.00391       -0.06250       -0.06250        0.18750
 BRILLOUIN|   223           0.00391       -0.06250       -0.06250        0.31250
 BRILLOUIN|   224           0.00391       -0.06250       -0.06250        0.43750
 BRILLOUIN|   225           0.00391       -0.06250        0.06250       -0.43750
 BRILLOUIN|   226           0.00391       -0.06250        0.06250       -0.31250
 BRILLOUIN|   227           0.00391       -0.06250        0.06250       -0.18750
 BRILLOUIN|   228           0.00391       -0.06250        0.06250       -0.06250
 BRILLOUIN|   229           0.00391       -0.06250        0.06250        0.06250
 BRILLOUIN|   230           0.00391       -0.06250        0.06250        0.18750
 BRILLOUIN|   231           0.00391       -0.06250        0.06250        0.31250
 BRILLOUIN|   232           0.00391       -0.06250        0.06250        0.43750
 BRILLOUIN|   233           0.00391       -0.06250        0.18750       -0.43750
 BRILLOUIN|   234           0.00391       -0.06250        0.18750       -0.31250
 BRILLOUIN|   235           0.00391       -0.06250        0.18750       -0.18750
 BRILLOUIN|   236           0.00391       -0.06250        0.18750       -0.06250
 BRILLOUIN|   237           0.00391       -0.06250        0.18750        0.06250
 BRILLOUIN|   238           0.00391       -0.06250        0.18750        0.18750
 BRILLOUIN|   239           0.00391       -0.06250        0.18750        0.31250
 BRILLOUIN|   240           0.00391       -0.06250        0.18750        0.43750
 BRILLOUIN|   241           0.00391       -0.06250        0.31250       -0.43750
 BRILLOUIN|   242           0.00391       -0.06250        0.31250       -0.31250
 BRILLOUIN|   243           0.00391       -0.06250        0.31250       -0.18750
 BRILLOUIN|   244           0.00391       -0.06250        0.31250       -0.06250
 BRILLOUIN|   245           0.00391       -0.06250        0.31250        0.06250
 BRILLOUIN|   246           0.00391       -0.06250        0.31250        0.18750
 BRILLOUIN|   247           0.00391       -0.06250        0.31250        0.31250
 BRILLOUIN|   248           0.00391       -0.06250        0.31250        0.43750
 BRILLOUIN|   249           0.00391       -0.06250        0.43750       -0.43750
 BRILLOUIN|   250           0.00391       -0.06250        0.43750       -0.31250
 BRILLOUIN|   251           0.00391       -0.06250        0.43750       -0.18750
 BRILLOUIN|   252           0.00391       -0.06250        0.43750       -0.06250
 BRILLOUIN|   253           0.00391       -0.06250        0.43750        0.06250
 BRILLOUIN|   254           0.00391       -0.06250        0.43750        0.18750
 BRILLOUIN|   255           0.00391       -0.06250        0.43750        0.31250
 BRILLOUIN|   256           0.00391       -0.06250        0.43750        0.43750
 *******************************************************************************

 *******************************************************************************
 *******************************************************************************
 **                                                                           **
 **     #####                         ##              ##                      **
 **    ##   ##            ##          ##              ##                      **
 **   ##     ##                       ##            ######                    **
 **   ##     ##  ##   ##  ##   #####  ##  ##   ####   ##    #####    #####    **
 **   ##     ##  ##   ##  ##  ##      ## ##   ##      ##   ##   ##  ##   ##   **
 **   ##  ## ##  ##   ##  ##  ##      ####     ###    ##   ######   ######    **
 **    ##  ###   ##   ##  ##  ##      ## ##      ##   ##   ##       ##        **
 **     #######   #####   ##   #####  ##  ##  ####    ##    #####   ##        **
 **           ##                                                    ##        **
 **                                                                           **
 **                                                ... make the atoms dance   **
 **                                                                           **
 **            Copyright (C) by CP2K developers group (2000-2025)             **
 **                      J. Chem. Phys. 152, 194103 (2020)                    **
 **                                                                           **
 *******************************************************************************

 DFT| Spin restricted Kohn-Sham (RKS) calculation                            RKS
 DFT| Multiplicity                                                             1
 DFT| Number of spin states                                                    1
 DFT| Charge                                                                   0
 DFT| Self-interaction correction (SIC)                                       NO
 DFT| Cutoffs: density                                              1.000000E-10
 DFT|          gradient                                             1.000000E-10
 DFT|          tau                                                  1.000000E-10
 DFT|          cutoff_smoothing_range                               0.000000E+00
 DFT| XC density smoothing                                                  NONE
 DFT| XC derivatives                                                          PW

 FUNCTIONAL| PBE:
 FUNCTIONAL| J.P.Perdew, K.Burke, M.Ernzerhof, Phys. Rev. Letter, vol. 77, n 18,
 FUNCTIONAL|  pp. 3865-3868, (1996) {spin unpolarized}                          


 QS| Method:                                                                 GPW
 QS| Density plane wave grid type                        NON-SPHERICAL FULLSPACE
 QS| Number of grid levels:                                                    4
 QS| Density cutoff [a.u.]:                                                500.0
 QS| Multi grid cutoff [a.u.]: 1) grid level                               500.0
 QS|                           2) grid level                               166.7
 QS|                           3) grid level                                55.6
 QS|                           4) grid level                                18.5
 QS| Grid level progression factor:                                          3.0
 QS| Relative density cutoff [a.u.]:                                        50.0
 QS| Interaction thresholds: eps_pgf_orb:                                1.0E-16
 QS|                         eps_filter_matrix:                          0.0E+00
 QS|                         eps_core_charge:                            1.0E-18
 QS|                         eps_rho_gspace:                             1.0E-16
 QS|                         eps_rho_rspace:                             1.0E-16
 QS|                         eps_gvg_rspace:                             1.0E-08
 QS|                         eps_ppl:                                    1.0E-02
 QS|                         eps_ppnl:                                   1.0E-10


 ATOMIC KIND INFORMATION

  1. Atomic kind: Al                                    Number of atoms:       4

     Orbital Basis Set                                aug-DZVP-MOLOPT-GTH-tier-1

       Number of orbital shell sets:                                           1
       Number of orbital shells:                                               8
       Number of primitive Cartesian functions:                                5
       Number of Cartesian basis functions:                                   24
       Number of spherical basis functions:                                   22
       Norm type:                                                              2

       Normalised Cartesian orbitals:

                        Set   Shell   Orbital            Exponent    Coefficient

                          1       1    2s                0.078268      -0.047918
                                                         0.125000       0.000000
                                                         0.242419      -0.255413
                                                         0.454181       0.176942
                                                         1.212902       0.147703

                          1       2    3s                0.078268      -0.188268
                                                         0.125000       0.000000
                                                         0.242419       0.451244
                                                         0.454181      -0.282782
                                                         1.212902      -0.205400

                          1       3    4s                0.078268       0.289466
                                                         0.125000      -0.330906
                                                         0.242419       0.045031
                                                         0.454181       0.058673
                                                         1.212902       0.122806

                          1       4    3px               0.078268      -0.027375
                                                         0.125000       0.000000
                                                         0.242419      -0.164202
                                                         0.454181       0.028714
                                                         1.212902       0.054476
                          1       4    3py               0.078268      -0.027375
                                                         0.125000       0.000000
                                                         0.242419      -0.164202
                                                         0.454181       0.028714
                                                         1.212902       0.054476
                          1       4    3pz               0.078268      -0.027375
                                                         0.125000       0.000000
                                                         0.242419      -0.164202
                                                         0.454181       0.028714
                                                         1.212902       0.054476

                          1       5    4px               0.078268      -0.077717
                                                         0.125000       0.000000
                                                         0.242419       0.284420
                                                         0.454181       0.034524
                                                         1.212902      -0.161995
                          1       5    4py               0.078268      -0.077717
                                                         0.125000       0.000000
                                                         0.242419       0.284420
                                                         0.454181       0.034524
                                                         1.212902      -0.161995
                          1       5    4pz               0.078268      -0.077717
                                                         0.125000       0.000000
                                                         0.242419       0.284420
                                                         0.454181       0.034524
                                                         1.212902      -0.161995

                          1       6    5px               0.078268      -0.025287
                                                         0.125000       0.201130
                                                         0.242419      -0.128242
                                                         0.454181      -0.060579
                                                         1.212902       0.026231
                          1       6    5py               0.078268      -0.025287
                                                         0.125000       0.201130
                                                         0.242419      -0.128242
                                                         0.454181      -0.060579
                                                         1.212902       0.026231
                          1       6    5pz               0.078268      -0.025287
                                                         0.125000       0.201130
                                                         0.242419      -0.128242
                                                         0.454181      -0.060579
                                                         1.212902       0.026231

                          1       7    4dx2              0.078268       0.004803
                                                         0.125000       0.000000
                                                         0.242419       0.083046
                                                         0.454181       0.086552
                                                         1.212902       0.283929
                          1       7    4dxy              0.078268       0.008319
                                                         0.125000       0.000000
                                                         0.242419       0.143840
                                                         0.454181       0.149912
                                                         1.212902       0.491779
                          1       7    4dxz              0.078268       0.008319
                                                         0.125000       0.000000
                                                         0.242419       0.143840
                                                         0.454181       0.149912
                                                         1.212902       0.491779
                          1       7    4dy2              0.078268       0.004803
                                                         0.125000       0.000000
                                                         0.242419       0.083046
                                                         0.454181       0.086552
                                                         1.212902       0.283929
                          1       7    4dyz              0.078268       0.008319
                                                         0.125000       0.000000
                                                         0.242419       0.143840
                                                         0.454181       0.149912
                                                         1.212902       0.491779
                          1       7    4dz2              0.078268       0.004803
                                                         0.125000       0.000000
                                                         0.242419       0.083046
                                                         0.454181       0.086552
                                                         1.212902       0.283929

                          1       8    5dx2              0.078268      -0.003034
                                                         0.125000       0.025560
                                                         0.242419       0.048294
                                                         0.454181       0.097414
                                                         1.212902       0.234618
                          1       8    5dxy              0.078268      -0.005255
                                                         0.125000       0.044271
                                                         0.242419       0.083648
                                                         0.454181       0.168726
                                                         1.212902       0.406370
                          1       8    5dxz              0.078268      -0.005255
                                                         0.125000       0.044271
                                                         0.242419       0.083648
                                                         0.454181       0.168726
                                                         1.212902       0.406370
                          1       8    5dy2              0.078268      -0.003034
                                                         0.125000       0.025560
                                                         0.242419       0.048294
                                                         0.454181       0.097414
                                                         1.212902       0.234618
                          1       8    5dyz              0.078268      -0.005255
                                                         0.125000       0.044271
                                                         0.242419       0.083648
                                                         0.454181       0.168726
                                                         1.212902       0.406370
                          1       8    5dz2              0.078268      -0.003034
                                                         0.125000       0.025560
                                                         0.242419       0.048294
                                                         0.454181       0.097414
                                                         1.212902       0.234618

       Atomic covalent radius [Angstrom]:                                  1.180

       Atomic van der Waals radius [Angstrom]:                             1.840

     GTH Potential information for                                       GTH-PBE

       Description:                       Goedecker-Teter-Hutter pseudopotential
                                           Goedecker et al., PRB 54, 1703 (1996)
                                          Hartwigsen et al., PRB 58, 3641 (1998)
                                                      Krack, TCA 114, 145 (2005)

       Gaussian exponent of the core charge distribution:               2.469136
       Electronic configuration (s p d ...):                               2   1

       Parameters of the local part of the GTH pseudopotential:

                          rloc        C1          C2          C3          C4
                        0.450000   -7.554761

       Parameters of the non-local part of the GTH (SOC) pseudopotential:

                   l      r(l)      h(i,j,l)
                                    k(i,j,l)
                   0    0.487435    6.959938   -1.888836
                                   -1.888836    2.438477
                   1    0.562189    1.865299    0.000000
                                    0.000000    0.000000
                                    0.013237   -0.012651
                                   -0.012651    0.014969


 MOLECULE KIND INFORMATION


 All atoms are their own molecule, skipping detailed information


 TOTAL NUMBERS AND MAXIMUM NUMBERS

  Total number of            - Atomic kinds:                                   1
                             - Atoms:                                          4
                             - Shell sets:                                     4
                             - Shells:                                        32
                             - Primitive Cartesian functions:                 20
                             - Cartesian basis functions:                     96
                             - Spherical basis functions:                     88

  Maximum angular momentum of- Orbital basis functions:                        2
                             - Local part of the GTH pseudopotential:          0
                             - Non-local part of the GTH pseudopotential:      3


 MODULE QUICKSTEP: ATOMIC COORDINATES IN ANGSTROM

   Atom Kind Element         X             Y             Z       Z(eff)     Mass
      1    1 Al   13      0.000000      0.000000      0.000000   3.0000  26.9815
      2    1 Al   13      0.000000      2.020105      2.020105   3.0000  26.9815
      3    1 Al   13      2.020105      0.000000      2.020105   3.0000  26.9815
      4    1 Al   13      2.020105      2.020105      0.000000   3.0000  26.9815



 SCF PARAMETERS         Density guess:                                    ATOMIC
                        --------------------------------------------------------
                        max_scf:                                             500
                        max_scf_history:                                       0
                        max_diis:                                              4
                        --------------------------------------------------------
                        eps_scf:                                        1.00E-09
                        eps_scf_history:                                0.00E+00
                        eps_diis:                                       1.00E-01
                        eps_eigval:                                     1.00E-05
                        --------------------------------------------------------
                        level_shift [a.u.]:                             0.000000
                        added MOs                                        82    0
                        --------------------------------------------------------
                        Mixing method:                            BROYDEN_MIXING
                                                charge density mixing in g-space
                        --------------------------------------------------------
                        Smear method:                                FERMI_DIRAC
                        Electronic temperature [K]:                        300.0
                        Electronic temperature [a.u.]:                  9.50E-04
                        Accuracy threshold:                             1.00E-10
                        --------------------------------------------------------
                        No outer SCF

 PW_GRID| Information for grid number                                          1
 PW_GRID| Grid distributed over                                     8 processors
 PW_GRID| Real space group dimensions                                     8    1
 PW_GRID| the grid is blocked:                                                NO
 PW_GRID| Cutoff [a.u.]                                                    500.0
 PW_GRID| spherical cutoff:                                                   NO
 PW_GRID|   Bounds   1            -40      39                Points:          80
 PW_GRID|   Bounds   2            -40      39                Points:          80
 PW_GRID|   Bounds   3            -40      39                Points:          80
 PW_GRID| Volume element (a.u.^3)  0.8692E-03     Volume (a.u.^3)       445.0496
 PW_GRID| Grid span                                                    FULLSPACE
 PW_GRID|   Distribution                         Average         Max         Min
 PW_GRID|   G-Vectors                            64000.0       64000       64000
 PW_GRID|   G-Rays                                 800.0         800         800
 PW_GRID|   Real Space Points                    64000.0       64000       64000

 PW_GRID| Information for grid number                                          2
 PW_GRID| Number of the reference grid                                         1
 PW_GRID| Grid distributed over                                     8 processors
 PW_GRID| Real space group dimensions                                     8    1
 PW_GRID| the grid is blocked:                                                NO
 PW_GRID| Cutoff [a.u.]                                                    166.7
 PW_GRID| spherical cutoff:                                                   NO
 PW_GRID|   Bounds   1            -22      22                Points:          45
 PW_GRID|   Bounds   2            -22      22                Points:          45
 PW_GRID|   Bounds   3            -22      22                Points:          45
 PW_GRID| Volume element (a.u.^3)  0.4884E-02     Volume (a.u.^3)       445.0496
 PW_GRID| Grid span                                                    FULLSPACE
 PW_GRID|   Distribution                         Average         Max         Min
 PW_GRID|   G-Vectors                            11390.6       11475       11340
 PW_GRID|   G-Rays                                 253.1         255         252
 PW_GRID|   Real Space Points                    11390.6       12150       10125

 PW_GRID| Information for grid number                                          3
 PW_GRID| Number of the reference grid                                         1
 PW_GRID| Grid distributed over                                     8 processors
 PW_GRID| Real space group dimensions                                     8    1
 PW_GRID| the grid is blocked:                                                NO
 PW_GRID| Cutoff [a.u.]                                                     55.6
 PW_GRID| spherical cutoff:                                                   NO
 PW_GRID|   Bounds   1            -12      12                Points:          25
 PW_GRID|   Bounds   2            -12      12                Points:          25
 PW_GRID|   Bounds   3            -12      12                Points:          25
 PW_GRID| Volume element (a.u.^3)  0.2848E-01     Volume (a.u.^3)       445.0496
 PW_GRID| Grid span                                                    FULLSPACE
 PW_GRID|   Distribution                         Average         Max         Min
 PW_GRID|   G-Vectors                             1953.1        2025        1900
 PW_GRID|   G-Rays                                  78.1          81          76
 PW_GRID|   Real Space Points                     1953.1        2500        1875

 PW_GRID| Information for grid number                                          4
 PW_GRID| Number of the reference grid                                         1
 PW_GRID| Grid distributed over                                     8 processors
 PW_GRID| Real space group dimensions                                     8    1
 PW_GRID| the grid is blocked:                                                NO
 PW_GRID| Cutoff [a.u.]                                                     18.5
 PW_GRID| spherical cutoff:                                                   NO
 PW_GRID|   Bounds   1             -7       7                Points:          15
 PW_GRID|   Bounds   2             -7       7                Points:          15
 PW_GRID|   Bounds   3             -7       7                Points:          15
 PW_GRID| Volume element (a.u.^3)  0.1319         Volume (a.u.^3)       445.0496
 PW_GRID| Grid span                                                    FULLSPACE
 PW_GRID|   Distribution                         Average         Max         Min
 PW_GRID|   G-Vectors                              421.9         435         405
 PW_GRID|   G-Rays                                  28.1          29          27
 PW_GRID|   Real Space Points                      421.9         450         225

 POISSON| Solver                                                        PERIODIC
 POISSON| Periodicity                                                        XYZ

 RS_GRID| Information for grid number                                          1
 RS_GRID|   Bounds   1            -40      39                Points:          80
 RS_GRID|   Bounds   2            -40      39                Points:          80
 RS_GRID|   Bounds   3            -40      39                Points:          80
 RS_GRID| Real space fully replicated
 RS_GRID| Group size                                                           1

 RS_GRID| Information for grid number                                          2
 RS_GRID|   Bounds   1            -22      22                Points:          45
 RS_GRID|   Bounds   2            -22      22                Points:          45
 RS_GRID|   Bounds   3            -22      22                Points:          45
 RS_GRID| Real space fully replicated
 RS_GRID| Group size                                                           1

 RS_GRID| Information for grid number                                          3
 RS_GRID|   Bounds   1            -12      12                Points:          25
 RS_GRID|   Bounds   2            -12      12                Points:          25
 RS_GRID|   Bounds   3            -12      12                Points:          25
 RS_GRID| Real space fully replicated
 RS_GRID| Group size                                                           1

 RS_GRID| Information for grid number                                          4
 RS_GRID|   Bounds   1             -7       7                Points:          15
 RS_GRID|   Bounds   2             -7       7                Points:          15
 RS_GRID|   Bounds   3             -7       7                Points:          15
 RS_GRID| Real space fully replicated
 RS_GRID| Group size                                                           1

 Number of electrons:                                                         12
 Number of occupied orbitals:                                                  6
 Number of molecular orbitals:                                                88

 Number of orbital functions:                                                 88
 Number of independent orbital functions:                                     88

 Extrapolation method: initial_guess

 Atomic guess: The first density matrix is obtained in terms of atomic orbitals
               and electronic configurations assigned to each atomic kind

 Guess for atomic kind: Al

 Electronic structure
    Total number of core electrons                                         10.00
    Total number of valence electrons                                       3.00
    Total number of electrons                                              13.00
    Multiplicity                                                   not specified
    S   [  2.00  2.00] 2.00
    P   [  6.00] 1.00


 *******************************************************************************
                  Iteration          Convergence                     Energy [au]
 *******************************************************************************
                          1        0.300302E-01                  -1.859857853474
                          2        0.582782E-02                  -1.861532133147
                          3        0.104900E-03                  -1.861590771171
                          4        0.225834E-05                  -1.861590789891
                          5        0.105666E-05                  -1.861590789897
                          6        0.690686E-06                  -1.861590789898

 Energy components [Hartree]           Total Energy ::           -1.861590789898
                                        Band Energy ::           -0.558885620732
                                     Kinetic Energy ::            0.688292564490
                                   Potential Energy ::           -2.549883354389
                                      Virial (-V/T) ::            3.704650443633
                                        Core Energy ::           -2.742679254589
                                          XC Energy ::           -0.603411823080
                                     Coulomb Energy ::            1.484500287771
                       Total Pseudopotential Energy ::           -3.485741227355
                       Local Pseudopotential Energy ::           -3.956766306711
                    Nonlocal Pseudopotential Energy ::            0.471025079356
                                        Confinement ::            0.547694082758

 Orbital energies  State     L     Occupation   Energy[a.u.]          Energy[eV]

                       1     0          2.000      -0.249993           -6.802648

                       1     1          1.000      -0.058900           -1.602756


 Total Electron Density at R=0:                                         0.000112
 Re-scaling the density matrix to get the right number of electrons
                  # Electrons              Trace(P)               Scaling factor
                           12                12.000                        1.000


 SCF WAVEFUNCTION OPTIMIZATION

  Step     Update method      Time    Convergence         Total energy    Change
  ------------------------------------------------------------------------------
     1 NoMix/Diag. 0.10E+00    4.1     0.44635937        -8.8551925703 -8.86E+00
     2 Broy./Diag. 0.10E+00    4.2     0.00112413        -8.7839366521  7.13E-02
     3 Broy./Diag. 0.10E+00    4.2     0.00894310        -8.3559403947  4.28E-01
     4 Broy./Diag. 0.10E+00    4.2     0.00320137        -8.3376089322  1.83E-02
     5 Broy./Diag. 0.10E+00    4.2     0.02168713        -8.2905517955  4.71E-02
     6 Broy./Diag. 0.10E+00    4.2     0.00021763        -8.2918010230 -1.25E-03
     7 Broy./Diag. 0.10E+00    4.2     0.00081014        -8.2912787274  5.22E-04
     8 Broy./Diag. 0.10E+00    4.2     0.00002805        -8.2914542519 -1.76E-04
     9 Broy./Diag. 0.10E+00    4.2     0.00029172        -8.2916898241 -2.36E-04
    10 Broy./Diag. 0.10E+00    4.2     0.00001063        -8.2916637951  2.60E-05
    11 Broy./Diag. 0.10E+00    4.2     0.00000612        -8.2916798191 -1.60E-05
    12 Broy./Diag. 0.10E+00    4.3     0.00000042        -8.2916821396 -2.32E-06
    13 Broy./Diag. 0.10E+00    4.2     0.00000064        -8.2916832196 -1.08E-06
    14 Broy./Diag. 0.10E+00    4.2     0.00000037        -8.2916837911 -5.72E-07
    15 Broy./Diag. 0.10E+00    4.2     0.00000001        -8.2916838025 -1.14E-08
    16 Broy./Diag. 0.10E+00    4.2     0.00000010        -8.2916837627  3.98E-08
    17 Broy./Diag. 0.10E+00    4.2     8.6519E-10        -8.2916837829 -2.02E-08

  *** SCF run converged in    17 steps ***


  Electronic density on regular grids:        -12.0000000000       -0.0000000000
  Core density on regular grids:               12.0000000000       -0.0000000000
  Total charge density on r-space grids:       -0.0000000000
  Total charge density g-space grids:          -0.0000000000

  Overlap energy of the core charge distribution:               0.00000000000000
  Self energy of the core charge distribution:                -22.56758334191025
  Core Hamiltonian energy:                                      4.67577603805820
  Hartree energy:                                              12.81715799247811
  Exchange-correlation energy:                                 -3.21691726561276
  Electronic entropic energy:                                  -0.00011720593334
  Fermi energy:                                                 0.25784113740812

  Total energy:                                                -8.29168378292008

 !-----------------------------------------------------------------------------!
                     Mulliken Population Analysis

 #  Atom  Element  Kind  Atomic population                           Net charge
       1     Al       1          3.000000                             -0.000000
       2     Al       1          3.000000                              0.000000
       3     Al       1          3.000000                              0.000000
       4     Al       1          3.000000                              0.000000
 # Total charge                             12.000000                 -0.000000

 !-----------------------------------------------------------------------------!

 !-----------------------------------------------------------------------------!
                           Hirshfeld Charges

  #Atom  Element  Kind  Ref Charge     Population                    Net charge
      1       Al     1       3.000          3.000                        -0.000
      2       Al     1       3.000          3.000                        -0.000
      3       Al     1       3.000          3.000                        -0.000
      4       Al     1       3.000          3.000                        -0.000

  Total Charge                                                           -0.000
 !-----------------------------------------------------------------------------!

 KPOINTS| Band Structure Calculation
 KPOINTS| Number of k-point sets                                               1
 KPOINTS| Number of added MOs/bands                                           -1
 KPOINTS| Number of k-points in set    1                                     148
 KPOINTS| In units of b-vector [2pi/Bohr]
 KPOINTS| Special point     1 not specifi     0.000000     0.000000     0.000000
 KPOINTS| Special point     2 not specifi     0.500000     0.000000     0.500000
 KPOINTS| Special point     3 not specifi     0.625000     0.250000     0.625000
 KPOINTS| Special point     4 not specifi     0.000000     0.000000     0.000000
 KPOINTS| Time for k-point line                                            1.986

 ENERGY| Total FORCE_EVAL ( QS ) energy [hartree]             -8.291683782920078

 -------------------------------------------------------------------------------
 -                                                                             -
 -                                DBCSR STATISTICS                             -
 -                                                                             -
 -------------------------------------------------------------------------------
 COUNTER                                    TOTAL       BLAS       SMM       ACC
 flops inhomo. stacks                           0       0.0%      0.0%      0.0%
 flops total                         0.000000E+00       0.0%      0.0%      0.0%
 flops max/rank                      0.000000E+00       0.0%      0.0%      0.0%
 matmuls inhomo. stacks                         0       0.0%      0.0%      0.0%
 matmuls total                                  0       0.0%      0.0%      0.0%
 number of processed stacks                     0       0.0%      0.0%      0.0%
 average stack size                                     0.0       0.0       0.0
 marketing flops                     0.000000E+00
 -------------------------------------------------------------------------------
 -                                                                             -
 -                      DBCSR MESSAGE PASSING PERFORMANCE                      -
 -                                                                             -
 -------------------------------------------------------------------------------
 ROUTINE             CALLS      AVE VOLUME [Bytes]
 MP_Bcast                1                     12.
 MP_Allreduce           19                     21.
 MP_Alltoall        380188                   3581.
 -------------------------------------------------------------------------------

 -------------------------------------------------------------------------------
 -                                                                             -
 -                                DBM STATISTICS                               -
 -                                                                             -
 -------------------------------------------------------------------------------
    M  x    N  x    K                                          COUNT     PERCENT
 -------------------------------------------------------------------------------

 -------------------------------------------------------------------------------
 -                                                                             -
 -                                GRID STATISTICS                              -
 -                                                                             -
 -------------------------------------------------------------------------------
 LP    KERNEL             BACKEND                              COUNT     PERCENT
 4     collocate ortho    CPU                                 566136      51.43%
 4     integrate ortho    CPU                                 534684      48.57%
 0     collocate general  CPU                                      8       0.00%
 0     integrate general  CPU                                      4       0.00%
 -------------------------------------------------------------------------------

 MEMORY| Estimated peak process memory [MiB]                                 385

 -------------------------------------------------------------------------------
 ----                             MULTIGRID INFO                            ----
 -------------------------------------------------------------------------------
 count for grid        1:              0          cutoff [a.u.]          500.00
 count for grid        2:          27780          cutoff [a.u.]          166.67
 count for grid        3:          30904          cutoff [a.u.]           55.56
 count for grid        4:          56240          cutoff [a.u.]           18.52
 total gridlevel count  :         114924

 -------------------------------------------------------------------------------
 -                                                                             -
 -                         MESSAGE PASSING PERFORMANCE                         -
 -                                                                             -
 -------------------------------------------------------------------------------

 ROUTINE             CALLS      AVE VOLUME [Bytes]
 MP_Group                6
 MP_Bcast           160395                   1660.
 MP_Allreduce        57323                     67.
 MP_Sync                 4
 MP_Alltoall           311                2815419.
 MP_SendRecv           518                 167762.
 MP_ISendRecv          483                 163328.
 MP_Wait            110711
 MP_comm_split           4
 MP_ISend           117644                   1769.
 MP_IRecv           187520                   1112.
 -------------------------------------------------------------------------------


 -------------------------------------------------------------------------------
 -                                                                             -
 -                           R E F E R E N C E S                               -
 -                                                                             -
 -------------------------------------------------------------------------------
 
 CP2K version 2025.1 (Development Version), the CP2K developers group (2025).
 CP2K is freely available from https://www.cp2k.org/ .
 
 T. D. Kuehne, M. Iannuzzi, M. Del Ben, V. V. Rybkin, P. Seewald, F. Stein, T. 
 Laino, R. Z. Khaliullin, O. Schuett, F. Schiffmann, D. Golze, J. Wilhelm, S. 
 Chulkov, M. H. Bani-Hashemian, V. Weber, U. Borstnik, M. Taillefumier, A. S. 
 Jakobovits, A. Lazzaro, H. Pabst, T. Mueller, R. Schade, M. Guidon, S. 
 Andermatt, N. Holmberg, G. K. Schenter, A. Hehn, A. Bussy, F. Belleflamme, G. 
 Tabacchi, A. Gloess, M. Lass, I. Bethune, C. J. Mundy, C. Plessl, M. Watkins, 
 J. VandeVondele, M. Krack, J. Hutter.
 J. Chem. Phys. 152, 194103 (2020).
 CP2K: An electronic structure and molecular dynamics software package - 
 Quickstep: Efficient and accurate electronic structure calculations.
 https://doi.org/10.1063/5.0007045

 O. Schuett, P. Messmer, J. Hutter, J. VandeVondele.
 Electronic Structure Calculations on Graphics Processing Units, 173-190 (2016).
 GPU-Accelerated Sparse Matrix-Matrix Multiplication for Linear Scaling Density 
 Functional Theory.
 https://doi.org/10.1002/9781118670712.ch8

 J. Hutter, M. Iannuzzi, F. Schiffmann, J. VandeVondele.
 WIREs Comput Mol Sci. 4, 15-25 (2014).
 CP2K: atomistic simulations of condensed matter systems.
 https://doi.org/10.1002/wcms.1159

 U. Borstnik, J. VandeVondele, V. Weber, J. Hutter.
 Parallel Comput. 40, 47-58 (2014).
 Sparse matrix multiplication: The distributed block-compressed sparse row 
 library.
 https://doi.org/10.1016/j.parco.2014.03.012

 J. VandeVondele, J. Hutter.
 J. Chem. Phys. 127, 114105 (2007).
 Gaussian basis sets for accurate calculations on molecular systems in gas and 
 condensed phases.
 https://doi.org/10.1063/1.2770708

 J. VandeVondele, M. Krack, F. Mohamed, M. Parrinello, T. Chassaing, J. Hutter.
 Comput. Phys. Commun. 167, 103-128 (2005).
 QUICKSTEP: Fast and accurate density functional calculations using a mixed 
 Gaussian and plane waves approach.
 https://doi.org/10.1016/j.cpc.2004.12.014

 M. Krack.
 Theor. Chem. Acc. 114, 145-152 (2005).
 Pseudopotentials for H to Kr optimized for gradient-corrected 
 exchange-correlation functionals.
 https://doi.org/10.1007/s00214-005-0655-y

 M. Frigo, S. G. Johnson.
 Proc. IEEE 93, 216-231 (2005).
 The design and implementation of FFTW3.
 https://doi.org/10.1109/JPROC.2004.840301

 C. Hartwigsen, S. Goedecker, J. Hutter.
 Phys. Rev. B 58, 3641-3662 (1998).
 Relativistic separable dual-space Gaussian pseudopotentials from H to Rn.
 https://doi.org/10.1103/PhysRevB.58.3641

 G. Lippert, J. Hutter, M. Parrinello.
 Mol. Phys. 92, 477-487 (1997).
 A hybrid Gaussian and plane wave density functional scheme.
 https://doi.org/10.1080/002689797170220

 S. Goedecker, M. Teter, J. Hutter.
 Phys. Rev. B 54, 1703-1710 (1996).
 Separable dual-space Gaussian pseudopotentials.
 https://doi.org/10.1103/PhysRevB.54.1703

 J. P. Perdew, K. Burke, M. Ernzerhof.
 Phys. Rev. Lett. 77, 3865-3868 (1996).
 Generalized gradient approximation made simple.
 https://doi.org/10.1103/PhysRevLett.77.3865


 -------------------------------------------------------------------------------
 -                                                                             -
 -                                T I M I N G                                  -
 -                                                                             -
 -------------------------------------------------------------------------------
 SUBROUTINE                       CALLS  ASD         SELF TIME        TOTAL TIME
                                MAXIMUM       AVERAGE  MAXIMUM  AVERAGE  MAXIMUM
 CP2K                                 1  1.0    0.013    0.018   76.322   76.323
 qs_energies                          1  2.0    0.012    0.063   76.101   76.130
 scf_env_do_scf                       1  3.0    0.000    0.000   73.036   73.037
 scf_env_do_scf_inner_loop           17  4.0    0.018    0.019   73.036   73.036
 do_general_diag_kp                  18  5.8    0.109    0.113   69.548   69.801
 qs_scf_new_mos_kp                   17  5.0    0.000    0.000   67.644   67.890
 rskp_transform                    9000  6.9   20.325   32.756   20.325   32.756
 mp_alltoall_i22                  64914  8.7   20.102   26.694   20.102   26.694
 dbcsr_desymmetrize_deep          37105  7.4    0.620    0.633   17.190   21.929
 kpoint_density_transform            17  7.0    0.048    0.049   19.300   19.396
 dbcsr_complete_redistribute      27809  8.2    1.015    1.029   14.098   16.147
 transform_dmat                    4352  8.0    9.433   15.199    9.433   15.199
 copy_fm_to_dbcsr                  8704  8.0    0.054    0.056    8.328   10.313
 copy_dbcsr_to_fm                 19105  6.8    0.207    0.221    9.394    9.512
 qs_ks_update_qs_env                 17  5.0    0.000    0.000    2.395    3.141
 cp_fm_start_copy_general         26704  7.3    0.516    0.692    3.031    3.107
 cp_cfm_geeig_canon                 581  6.8    0.005    0.006    2.761    2.787
 rebuild_ks_matrix                   17  6.0    0.000    0.000    1.835    2.581
 qs_ks_build_kohn_sham_matrix        17  7.0    0.033    0.034    1.835    2.581
 cp_cfm_heevd                      1162  7.8    0.002    0.002    2.490    2.512
 cp_cfm_heevd_base                 1162  8.8    2.489    2.510    2.489    2.510
 dbcsr_finalize                   82802  8.2    0.330    0.346    2.380    2.478
 sum_up_and_integrate                17  8.0    0.000    0.000    1.350    2.091
 integrate_v_rspace                  17  9.0    0.034    0.055    1.349    2.090
 mp_alltoall_d11v                194742  9.3    1.931    2.016    1.931    2.016
 grid_integrate_task_list            17 10.0    1.182    1.908    1.182    1.908
 mp_allgather_i                   53408  8.3    1.534    1.607    1.534    1.607
 qs_rho_update_rho_low               18  5.0    0.000    0.000    1.525    1.542
 calculate_rho_elec                  18  6.0    0.013    0.018    1.524    1.542
 mp_cart_sub                      38212  8.8    1.521    1.526    1.521    1.526
 dbcsr_merge_all                  27809 10.2    0.766    0.840    1.346    1.419
 grid_collocate_task_list            18  7.0    0.863    1.352    0.863    1.352
 hybrid_alltoall_any              37105  8.4    0.157    0.163    1.194    1.233
 mp_alltoall_i11v                120532  9.0    1.169    1.202    1.169    1.202
 transfer_rs2pw                      74  8.0    0.001    0.001    0.743    0.974
 transfer_rs2pw_500                  20  8.8    0.033    0.034    0.721    0.950
 mp_sendrecv_dv                     518 10.0    0.703    0.934    0.703    0.934
 mp_cart_create                   19112  8.8    0.893    0.911    0.893    0.911
 write_kpoints_restart               17  5.0    0.004    0.007    0.898    0.899
 density_rs2pw                       18  7.0    0.001    0.001    0.647    0.826
 mp_bcast_iv                     106839  8.3    0.636    0.722    0.636    0.722
 dbcsr_work_create                64914  8.7    0.385    0.396    0.662    0.676
 dbcsr_create_new                138151  7.9    0.533    0.554    0.646    0.670
 qs_energies_init_hamiltonians        1  3.0    0.000    0.000    0.661    0.661
 cp_dbcsr_alloc_block_from_nbl     7839  5.0    0.356    0.555    0.409    0.626
 dbcsr_dot                        37571  8.0    0.196    0.225    0.593    0.615
 kpoint_set_mo_occupation            17  7.0    0.538    0.541    0.587    0.607
 evaluate_core_matrix_traces         17  6.0    0.000    0.000    0.560    0.560
 calculate_ptrace_kp                 34  7.0    0.028    0.029    0.560    0.560
 dbcsr_copy                       47379  6.9    0.259    0.270    0.499    0.551
 build_core_hamiltonian_matrix        1  4.0    0.004    0.004    0.372    0.525
 dbcsr_iterator_start            234718  8.8    0.436    0.444    0.516    0.524
 dbcsr_work_destroy_all           64914  9.7    0.307    0.312    0.478    0.485
 dbcsr_data_new                  704268  9.6    0.456    0.464    0.456    0.464
 tree_to_linear_d                 27809 11.2    0.453    0.463    0.453    0.463
 copy_dbcsr_to_fm_bc              19105  7.8    0.191    0.199    0.423    0.432
 copy_fm_to_dbcsr_bc               8704  9.0    0.122    0.127    0.415    0.431
 kpoint_density_matrices             17  7.0    0.011    0.011    0.348    0.400
 dbcsr_data_release             1013196 10.0    0.386    0.394    0.386    0.394
 mp_sum_d                         38129  8.9    0.336    0.385    0.336    0.385
 parallel_gemm_fm                  2176  8.0    0.002    0.002    0.331    0.382
 parallel_gemm_fm_gemm             2176  9.0    0.002    0.002    0.329    0.380
 cp_fm_gemm                        2176 10.0    0.327    0.378    0.327    0.378
 cp_fm_write_unformatted           1105  6.0    0.228    0.352    0.233    0.374
 fft_wrap_pw1pw2                    311 10.0    0.002    0.003    0.341    0.361
 self_consistency_check              17  5.0    0.027    0.027    0.331    0.339
 dbcsr_iterator_stop             234718  8.8    0.278    0.283    0.329    0.334
 fft_wrap_pw1pw2_500                206 11.3    0.023    0.024    0.313    0.332
 cp_fm_finish_copy_general        11028  7.7    0.295    0.303    0.316    0.324
 dbcsr_destroy                   100581  7.8    0.169    0.173    0.306    0.316
 fft3d_ps                           311 12.0    0.106    0.108    0.279    0.298
 qs_env_update_s_mstruct              1  4.0    0.000    0.000    0.244    0.298
 cp_sm_mix                        18785  6.0    0.075    0.091    0.271    0.281
 cp_cfm_gemm                       1743  7.8    0.249    0.253    0.249    0.253
 qs_vxc_create                       17  8.0    0.000    0.000    0.234    0.234
 xc_vxc_pw_create                    17  9.0    0.009    0.009    0.234    0.234
 calculate_rho_core                   1  5.0    0.001    0.002    0.165    0.232
 mp_bcast_im                      53408  8.3    0.196    0.221    0.196    0.221
 dbcsr_copy_into_existing          9809  9.5    0.118    0.160    0.175    0.217
 quick_finalize                   37105  9.4    0.118    0.122    0.204    0.209
 mp_waitall_1                    110711  8.3    0.109    0.195    0.109    0.195
 mixing_allocate                      1  3.0    0.006    0.006    0.132    0.194
 init_scf_run                         1  3.0    0.000    0.000    0.170    0.191
 scf_env_initial_rho_setup            1  4.0    0.000    0.000    0.170    0.191
 mp_alltoall_z22v                   311 14.0    0.148    0.171    0.148    0.171
 mp_max_d                         18787  7.0    0.153    0.170    0.153    0.170
 dbcsr_set                        90078  7.5    0.084    0.085    0.142    0.161
 gspace_mixing                       16  5.0    0.007    0.007    0.159    0.159
 potential_pw2rs                     17 10.0    0.001    0.001    0.133    0.152
 xc_pw_derive                       102 11.0    0.000    0.000    0.150    0.152
 mp_comm_free                     57358  8.8    0.140    0.146    0.140    0.146
 broyden_mixing                      16  6.0    0.124    0.127    0.128    0.128
 xc_rho_set_and_dset_create          17 10.0    0.005    0.005    0.121    0.123
 dbcsr_reserve_blocks             16543  8.6    0.088    0.106    0.103    0.121
 build_core_ppnl                      1  5.0    0.092    0.119    0.092    0.119
 build_overlap_matrix_low             1  5.0    0.014    0.016    0.075    0.108
 build_kinetic_matrix_low             1  5.0    0.013    0.016    0.074    0.107
 xc_pw_divergence                    17 10.0    0.000    0.000    0.102    0.103
 yz_to_x                            141 12.8    0.008    0.009    0.080    0.101
 qs_env_rebuild_rho                   1  5.0    0.000    0.000    0.067    0.097
 qs_rho_rebuild                       1  6.0    0.003    0.003    0.067    0.097
 x_to_yz                            170 13.2    0.014    0.014    0.090    0.093
 mp_sum_dv                          312  3.2    0.046    0.090    0.046    0.090
 calculate_first_density_matrix       1  5.0    0.001    0.001    0.068    0.089
 transfer_pw2rs                      69 10.9    0.000    0.000    0.088    0.088
 calculate_atomic_block_dm            1  6.0    0.001    0.001    0.065    0.087
 parser_read_line                  4668  4.1    0.002    0.002    0.082    0.085
 dbcsr_iterator_seek             234718  9.8    0.080    0.084    0.080    0.084
 parser_read_line_low                22  6.3    0.008    0.031    0.081    0.083
 mp_isend_dv                      27296  8.2    0.079    0.083    0.079    0.083
 dbcsr_sort_indices               81457 10.5    0.079    0.082    0.079    0.082
 broadcast_input_information         22  7.3    0.026    0.029    0.073    0.079
 dbcsr_zero                       90078  8.5    0.058    0.077    0.058    0.077
 dbcsr_make_index_exist          138151  8.9    0.072    0.075    0.072    0.075
 dbcsr_reserve_all_blocks          8704 10.0    0.015    0.015    0.068    0.074
 mp_sum_dm3                          17  8.0    0.049    0.069    0.049    0.069
 build_core_ppl                       1  5.0    0.042    0.067    0.042    0.067
 transfer_pw2rs_500                  18 11.8    0.033    0.036    0.065    0.066
 topology_control                     1  2.0    0.000    0.000    0.063    0.064
 merge_index                      27809 11.2    0.056    0.060    0.056    0.060
 restraint_control                    1  2.0    0.000    0.000    0.029    0.058
 mp_sum_i                             4  2.8    0.029    0.058    0.029    0.058
 mp_irecv_iv                     106816  8.3    0.007    0.052    0.007    0.052
 calculate_ecore_overlap              1  4.0    0.000    0.000    0.037    0.052
 create_qs_kind_set                   1  2.0    0.000    0.000    0.050    0.050
 read_qs_kind                         1  3.0    0.024    0.027    0.050    0.050
 read_cell_cif                        2  4.5    0.002    0.004    0.043    0.045
 dbcsr_switch_data_area           37105 10.4    0.033    0.034    0.043    0.044
 cp_fm_cleanup_copy_general       19088  7.0    0.027    0.028    0.041    0.043
 mp_sum_iv                           24  5.3    0.031    0.042    0.031    0.042
 qs_scf_ensure_work_matrices          1  3.0    0.000    0.000    0.031    0.042
 xc_functional_eval                  17 11.0    0.000    0.000    0.039    0.041
 pbe_lda_eval                        17 12.0    0.039    0.041    0.039    0.041
 coordinate_control                   1  3.0    0.001    0.002    0.037    0.037
 coordinate_control_READ_COORDI       1  4.0    0.000    0.000    0.036    0.037
 read_coordinate_cif                  1  5.0    0.002    0.002    0.036    0.037
 scf_post_calculation_gpw             1  3.0    0.000    0.000    0.036    0.036
 mp_isend_iv                      60232  8.3    0.010    0.036    0.010    0.036
 write_available_results              1  4.0    0.000    0.000    0.036    0.036
 write_mo_free_results                1  5.0    0.001    0.001    0.035    0.036
 dbcsr_data_copy_aa2              27809 11.2    0.029    0.035    0.029    0.035
 mp_bcast_i_src                      88  8.3    0.029    0.035    0.029    0.035
 qs_init_subsys                       1  2.0    0.001    0.002    0.032    0.033
 qs_env_setup                         1  3.0    0.000    0.000    0.029    0.030
 qs_env_rebuild_pw_env                2  3.5    0.000    0.000    0.029    0.029
 pw_env_rebuild                       1  5.0    0.000    0.001    0.029    0.029
 dbcsr_distribution_new           27811  8.5    0.024    0.026    0.024    0.026
 mp_irecv_im2                     53408  8.3    0.003    0.026    0.003    0.026
 dbcsr_get_data_size_used         64914  9.7    0.022    0.025    0.022    0.025
 cp_cfm_scale_and_add_fm           2324  6.8    0.024    0.024    0.024    0.024
 pw_grid_setup                        4  6.0    0.000    0.000    0.022    0.023
 pw_grid_setup_internal               4  7.0    0.001    0.001    0.022    0.023
 dbcsr_make_dbcsr_index           81457 10.5    0.022    0.022    0.022    0.022
 mp_recv_dv                        3315  7.0    0.003    0.022    0.003    0.022
 pw_scatter_p                       170 12.2    0.020    0.021    0.020    0.021
 pw_poisson_solve                    17  8.0    0.000    0.000    0.020    0.020
 mp_bcast_am_src                     22  8.3    0.013    0.014    0.018    0.020
 qs_create_task_list                  1  5.0    0.000    0.000    0.012    0.020
 generate_qs_task_list                1  6.0    0.009    0.014    0.012    0.020
 mp_isendrecv_dv                    483 12.9    0.008    0.019    0.008    0.019
 transfer_rs2pw_170                  18  9.0    0.005    0.005    0.016    0.018
 fft_wrap_pw1pw2_170                 35 10.5    0.001    0.001    0.016    0.017
 mp_isend_im2                     30116  8.3    0.004    0.017    0.004    0.017
 transfer_pw2rs_170                  17 12.0    0.006    0.006    0.015    0.017
 mp_irecv_dv                      27296  8.2    0.016    0.016    0.016    0.016
 hirshfeld_integration                1  6.0    0.006    0.012    0.015    0.015
 mp_sum_l                           429  2.1    0.011    0.015    0.011    0.015
 mixing_init                          1  5.0    0.012    0.013    0.013    0.013
 pw_grid_sort                         4  8.0    0.008    0.008    0.012    0.012
 pw_integral_ab_c1d_c1d_gs           17  9.0    0.012    0.012    0.012    0.012
 calculate_hirshfeld_normalizat       1  6.0    0.004    0.009    0.012    0.012
 pw_gather_p                        141 11.8    0.011    0.011    0.011    0.011
 cp_fm_create                       440  3.9    0.010    0.010    0.010    0.010
 grid_free_task_list                  1  2.0    0.007    0.010    0.007    0.010
 cp_cfm_to_fm                       581  6.8    0.010    0.010    0.010    0.010
 mp_comm_size                     38337  9.0    0.010    0.010    0.010    0.010
 kpoint_init_cell_index               2  3.5    0.008    0.009    0.009    0.010
 mp_comm_rank                     38337  9.0    0.009    0.009    0.009    0.009
 cp_cfm_column_scale                581  7.8    0.009    0.009    0.009    0.009
 pw_copy                            255 10.5    0.008    0.009    0.008    0.009
 cp_cfm_zscale                      581  7.8    0.008    0.008    0.008    0.008
 mp_send_dv                        1105  7.0    0.002    0.008    0.002    0.008
 -------------------------------------------------------------------------------

 The number of warnings for this run is : 1
 
 -------------------------------------------------------------------------------
  **** **** ******  **  PROGRAM ENDED AT                 2025-08-05 04:17:56.457
 ***** ** ***  *** **   PROGRAM RAN ON                              i04r07c05s06
 **    ****   ******    PROGRAM RAN BY                                   di38fab
 ***** **    ** ** **   PROGRAM PROCESS ID                                427801
  **** **  *******  **  PROGRAM STOPPED IN /hppfs/scratch/04/di38fab/09_GTH/Delt
                                           a_Set/Al/aug-DZVP-MOLOPT-GTH-tier-1/8
                                           x8x8
