 DBCSR| CPU Multiplication driver                                           BLAS (U)
 DBCSR| Multrec recursion limit                                              512 (U)
 DBCSR| Multiplication stack size                                           1000 (D)
 DBCSR| Maximum elements for images                                    UNLIMITED (U)
 DBCSR| Multiplicative factor virtual images                                   1 (U)
 DBCSR| Use multiplication densification                                       T (D)
 DBCSR| Multiplication size stacks                                             3 (U)
 DBCSR| Use memory pool for CPU allocation                                     F (U)
 DBCSR| Number of 3D layers                                               SINGLE (U)
 DBCSR| Use MPI memory allocation                                              F (U)
 DBCSR| Use RMA algorithm                                                      F (U)
 DBCSR| Use Communication thread                                               T (U)
 DBCSR| Communication thread load                                             45 (D)
 DBCSR| MPI: My process id                                                     0
 DBCSR| MPI: Number of processes                                               8
 DBCSR| OMP: Current number of threads                                        12
 DBCSR| OMP: Max number of threads                                            12
 DBCSR| Split modifier for TAS multiplication algorithm                  1.0E+00 (U)


  **** **** ******  **  PROGRAM STARTED AT               2025-08-03 20:29:58.353
 ***** ** ***  *** **   PROGRAM STARTED ON                          i04r11c01s10
 **    ****   ******    PROGRAM STARTED BY                               di38fab
 ***** **    ** ** **   PROGRAM PROCESS ID                                259413
  **** **  *******  **  PROGRAM STARTED IN /hppfs/scratch/04/di38fab/09_GTH/Delt
                                           a_Set/Be/TZVP-MOLOPT-PBE-GTH/8x8x8

 CP2K| version string:                 CP2K version 2025.1 (Development Version)
 CP2K| source code revision number:                                  git:3130539
 CP2K| cp2kflags: omp libint fftw3 libxc parallel scalapack max_contr=4         
 CP2K| is freely available from                            https://www.cp2k.org/
 CP2K| Program compiled at                         Tue Jun  3 16:14:32 CEST 2025
 CP2K| Program compiled on                                               login01
 CP2K| Program compiled for                                        Supermuc-foss
 CP2K| Data directory path                  /hppfs/work/pn36zo/di38fab/cp2k/data
 CP2K| Input file name                                                    GW.inp

 GLOBAL| Force Environment number                                              1
 GLOBAL| Basis set file name            /hppfs/scratch/04/di38fab/09_GTH/BASIS_A
 GLOBAL| Potential file name            /hppfs/work/pn36zo/di38fab/cp2k/data/GTH
 GLOBAL| MM Potential file name                                     MM_POTENTIAL
 GLOBAL| Coordinate file name                                             Be.cif
 GLOBAL| Method name                                                        CP2K
 GLOBAL| Project name                                                       WSe2
 GLOBAL| Run type                                                         ENERGY
 GLOBAL| FFT library                                                       FFTW3
 GLOBAL| Diagonalization library                                       ScaLAPACK
 GLOBAL| Cholesky decomposition library                                ScaLAPACK
 GLOBAL| DGEMM library                                                      BLAS
 GLOBAL| Orthonormality check for eigenvectors                          DISABLED
 GLOBAL| Matrix multiplication library                                 ScaLAPACK
 GLOBAL| All-to-all communication in single precision                          F
 GLOBAL| FFTs using library dependent lengths                                  F
 GLOBAL| Grid backend                                                       AUTO
 GLOBAL| Global print level                                               MEDIUM
 GLOBAL| MPI I/O enabled                                                       T
 GLOBAL| Total number of message passing processes                             8
 GLOBAL| Number of threads for this process                                   12
 GLOBAL| This output is from process                                           0
 GLOBAL| OpenMP stack size per thread (OMP_STACKSIZE)                    default
 GLOBAL| CPU model name             Intel(R) Xeon(R) Platinum 8174 CPU @ 3.10GHz

 MEMORY| system memory details [Kb]
 MEMORY|                        rank 0           min           max       average
 MEMORY| MemTotal             98436660      98436660      98436664      98436662
 MEMORY| MemFree              85511620      84533968      85511620      85022794
 MEMORY| Buffers                     0             0             0             0
 MEMORY| Cached                2371084       2371084       2380404       2375744
 MEMORY| Slab                  1137848       1137848       1288076       1212962
 MEMORY| SReclaimable           250816        250816        287992        269404
 MEMORY| MemLikelyFree        88133520      87202364      88133520      87667942


 *** Fundamental physical constants (SI units) ***

 *** Literature: B. J. Mohr and B. N. Taylor,
 ***             CODATA recommended values of the fundamental physical
 ***             constants: 2006, Web Version 5.1
 ***             http://physics.nist.gov/constants

 Speed of light in vacuum [m/s]                             2.99792458000000E+08
 Magnetic constant or permeability of vacuum [N/A**2]       1.25663706143592E-06
 Electric constant or permittivity of vacuum [F/m]          8.85418781762039E-12
 Planck constant (h) [J*s]                                  6.62606896000000E-34
 Planck constant (h-bar) [J*s]                              1.05457162825177E-34
 Elementary charge [C]                                      1.60217648700000E-19
 Electron mass [kg]                                         9.10938215000000E-31
 Electron g factor [ ]                                     -2.00231930436220E+00
 Proton mass [kg]                                           1.67262163700000E-27
 Fine-structure constant                                    7.29735253760000E-03
 Rydberg constant [1/m]                                     1.09737315685270E+07
 Avogadro constant [1/mol]                                  6.02214179000000E+23
 Boltzmann constant [J/K]                                   1.38065040000000E-23
 Atomic mass unit [kg]                                      1.66053878200000E-27
 Bohr radius [m]                                            5.29177208590000E-11

 *** Conversion factors ***

 [u] -> [a.u.]                                              1.82288848426455E+03
 [Angstrom] -> [Bohr] = [a.u.]                              1.88972613288564E+00
 [a.u.] = [Bohr] -> [Angstrom]                              5.29177208590000E-01
 [a.u.] -> [s]                                              2.41888432650478E-17
 [a.u.] -> [fs]                                             2.41888432650478E-02
 [a.u.] -> [J]                                              4.35974393937059E-18
 [a.u.] -> [N]                                              8.23872205491840E-08
 [a.u.] -> [K]                                              3.15774647902944E+05
 [a.u.] -> [kJ/mol]                                         2.62549961709828E+03
 [a.u.] -> [kcal/mol]                                       6.27509468713739E+02
 [a.u.] -> [Pa]                                             2.94210107994716E+13
 [a.u.] -> [bar]                                            2.94210107994716E+08
 [a.u.] -> [atm]                                            2.90362800883016E+08
 [a.u.] -> [eV]                                             2.72113838565563E+01
 [a.u.] -> [Hz]                                             6.57968392072181E+15
 [a.u.] -> [1/cm] (wave numbers)                            2.19474631370540E+05
 [a.u./Bohr**2] -> [1/cm]                                   5.14048714338585E+03
 

 CELL_TOP| Volume [angstrom^3]:                                        15.843827
 CELL_TOP| Vector a [angstrom     2.263     0.000     0.000   |a| =     2.262760
 CELL_TOP| Vector b [angstrom     1.131     1.960     0.000   |b| =     2.262760
 CELL_TOP| Vector c [angstrom     0.000     0.000     3.573   |c| =     3.573160
 CELL_TOP| Angle (b,c), alpha [degree]:                                90.000000
 CELL_TOP| Angle (a,c), beta  [degree]:                                90.000000
 CELL_TOP| Angle (a,b), gamma [degree]:                                60.000000
 CELL_TOP| Numerically orthorhombic:                                          NO
 CELL_TOP| Periodicity                                                       XYZ

 CELL_CIF| Volume [angstrom^3]:                                        15.843827
 CELL_CIF| Vector a [angstrom     2.263     0.000     0.000   |a| =     2.262760
 CELL_CIF| Vector b [angstrom     1.131     1.960     0.000   |b| =     2.262760
 CELL_CIF| Vector c [angstrom     0.000     0.000     3.573   |c| =     3.573160
 CELL_CIF| Angle (b,c), alpha [degree]:                                90.000000
 CELL_CIF| Angle (a,c), beta  [degree]:                                90.000000
 CELL_CIF| Angle (a,b), gamma [degree]:                                60.000000
 CELL_CIF| Numerically orthorhombic:                                          NO
 CELL_CIF| Periodicity                                                       XYZ

 GENERATE|  Preliminary Number of Bonds generated:                             0
 GENERATE|  Achieved consistency in connectivity generation.

 CELL| Volume [angstrom^3]:                                            15.843827
 CELL| Vector a [angstrom]:       2.263     0.000     0.000   |a| =     2.262760
 CELL| Vector b [angstrom]:       1.131     1.960     0.000   |b| =     2.262760
 CELL| Vector c [angstrom]:       0.000     0.000     3.573   |c| =     3.573160
 CELL| Angle (b,c), alpha [degree]:                                    90.000000
 CELL| Angle (a,c), beta  [degree]:                                    90.000000
 CELL| Angle (a,b), gamma [degree]:                                    60.000000
 CELL| Numerically orthorhombic:                                              NO
 CELL| Periodicity                                                           XYZ

 CELL_REF| Volume [angstrom^3]:                                        15.843827
 CELL_REF| Vector a [angstrom     2.263     0.000     0.000   |a| =     2.262760
 CELL_REF| Vector b [angstrom     1.131     1.960     0.000   |b| =     2.262760
 CELL_REF| Vector c [angstrom     0.000     0.000     3.573   |c| =     3.573160
 CELL_REF| Angle (b,c), alpha [degree]:                                90.000000
 CELL_REF| Angle (a,c), beta  [degree]:                                90.000000
 CELL_REF| Angle (a,b), gamma [degree]:                                60.000000
 CELL_REF| Numerically orthorhombic:                                          NO
 CELL_REF| Periodicity                                                       XYZ

 *** WARNING in cryssym.F:180 :: Symmetry library SPGLIB not available ***


 *******************************************************************************
                                    Kpoints
 *******************************************************************************
 BRILLOUIN| K-point scheme                                        Monkhorst-Pack
 BRILLOUIN| K-Point grid                                             8    8    8
 BRILLOUIN| Accuracy in Symmetry determination                      0.100000E-05
 BRILLOUIN| K-Point point group symmetrization                               OFF
 BRILLOUIN| Wavefunction type                                            COMPLEX
 BRILLOUIN| List of Kpoints [2 Pi/Bohr]                                      256
 BRILLOUIN| Number           Weight            X              Y              Z
 BRILLOUIN|     1           0.00391       -0.43750       -0.43750       -0.43750
 BRILLOUIN|     2           0.00391       -0.43750       -0.43750       -0.31250
 BRILLOUIN|     3           0.00391       -0.43750       -0.43750       -0.18750
 BRILLOUIN|     4           0.00391       -0.43750       -0.43750       -0.06250
 BRILLOUIN|     5           0.00391       -0.43750       -0.43750        0.06250
 BRILLOUIN|     6           0.00391       -0.43750       -0.43750        0.18750
 BRILLOUIN|     7           0.00391       -0.43750       -0.43750        0.31250
 BRILLOUIN|     8           0.00391       -0.43750       -0.43750        0.43750
 BRILLOUIN|     9           0.00391       -0.43750       -0.31250       -0.43750
 BRILLOUIN|    10           0.00391       -0.43750       -0.31250       -0.31250
 BRILLOUIN|    11           0.00391       -0.43750       -0.31250       -0.18750
 BRILLOUIN|    12           0.00391       -0.43750       -0.31250       -0.06250
 BRILLOUIN|    13           0.00391       -0.43750       -0.31250        0.06250
 BRILLOUIN|    14           0.00391       -0.43750       -0.31250        0.18750
 BRILLOUIN|    15           0.00391       -0.43750       -0.31250        0.31250
 BRILLOUIN|    16           0.00391       -0.43750       -0.31250        0.43750
 BRILLOUIN|    17           0.00391       -0.43750       -0.18750       -0.43750
 BRILLOUIN|    18           0.00391       -0.43750       -0.18750       -0.31250
 BRILLOUIN|    19           0.00391       -0.43750       -0.18750       -0.18750
 BRILLOUIN|    20           0.00391       -0.43750       -0.18750       -0.06250
 BRILLOUIN|    21           0.00391       -0.43750       -0.18750        0.06250
 BRILLOUIN|    22           0.00391       -0.43750       -0.18750        0.18750
 BRILLOUIN|    23           0.00391       -0.43750       -0.18750        0.31250
 BRILLOUIN|    24           0.00391       -0.43750       -0.18750        0.43750
 BRILLOUIN|    25           0.00391       -0.43750       -0.06250       -0.43750
 BRILLOUIN|    26           0.00391       -0.43750       -0.06250       -0.31250
 BRILLOUIN|    27           0.00391       -0.43750       -0.06250       -0.18750
 BRILLOUIN|    28           0.00391       -0.43750       -0.06250       -0.06250
 BRILLOUIN|    29           0.00391       -0.43750       -0.06250        0.06250
 BRILLOUIN|    30           0.00391       -0.43750       -0.06250        0.18750
 BRILLOUIN|    31           0.00391       -0.43750       -0.06250        0.31250
 BRILLOUIN|    32           0.00391       -0.43750       -0.06250        0.43750
 BRILLOUIN|    33           0.00391       -0.43750        0.06250       -0.43750
 BRILLOUIN|    34           0.00391       -0.43750        0.06250       -0.31250
 BRILLOUIN|    35           0.00391       -0.43750        0.06250       -0.18750
 BRILLOUIN|    36           0.00391       -0.43750        0.06250       -0.06250
 BRILLOUIN|    37           0.00391       -0.43750        0.06250        0.06250
 BRILLOUIN|    38           0.00391       -0.43750        0.06250        0.18750
 BRILLOUIN|    39           0.00391       -0.43750        0.06250        0.31250
 BRILLOUIN|    40           0.00391       -0.43750        0.06250        0.43750
 BRILLOUIN|    41           0.00391       -0.43750        0.18750       -0.43750
 BRILLOUIN|    42           0.00391       -0.43750        0.18750       -0.31250
 BRILLOUIN|    43           0.00391       -0.43750        0.18750       -0.18750
 BRILLOUIN|    44           0.00391       -0.43750        0.18750       -0.06250
 BRILLOUIN|    45           0.00391       -0.43750        0.18750        0.06250
 BRILLOUIN|    46           0.00391       -0.43750        0.18750        0.18750
 BRILLOUIN|    47           0.00391       -0.43750        0.18750        0.31250
 BRILLOUIN|    48           0.00391       -0.43750        0.18750        0.43750
 BRILLOUIN|    49           0.00391       -0.43750        0.31250       -0.43750
 BRILLOUIN|    50           0.00391       -0.43750        0.31250       -0.31250
 BRILLOUIN|    51           0.00391       -0.43750        0.31250       -0.18750
 BRILLOUIN|    52           0.00391       -0.43750        0.31250       -0.06250
 BRILLOUIN|    53           0.00391       -0.43750        0.31250        0.06250
 BRILLOUIN|    54           0.00391       -0.43750        0.31250        0.18750
 BRILLOUIN|    55           0.00391       -0.43750        0.31250        0.31250
 BRILLOUIN|    56           0.00391       -0.43750        0.31250        0.43750
 BRILLOUIN|    57           0.00391       -0.43750        0.43750       -0.43750
 BRILLOUIN|    58           0.00391       -0.43750        0.43750       -0.31250
 BRILLOUIN|    59           0.00391       -0.43750        0.43750       -0.18750
 BRILLOUIN|    60           0.00391       -0.43750        0.43750       -0.06250
 BRILLOUIN|    61           0.00391       -0.43750        0.43750        0.06250
 BRILLOUIN|    62           0.00391       -0.43750        0.43750        0.18750
 BRILLOUIN|    63           0.00391       -0.43750        0.43750        0.31250
 BRILLOUIN|    64           0.00391       -0.43750        0.43750        0.43750
 BRILLOUIN|    65           0.00391       -0.31250       -0.43750       -0.43750
 BRILLOUIN|    66           0.00391       -0.31250       -0.43750       -0.31250
 BRILLOUIN|    67           0.00391       -0.31250       -0.43750       -0.18750
 BRILLOUIN|    68           0.00391       -0.31250       -0.43750       -0.06250
 BRILLOUIN|    69           0.00391       -0.31250       -0.43750        0.06250
 BRILLOUIN|    70           0.00391       -0.31250       -0.43750        0.18750
 BRILLOUIN|    71           0.00391       -0.31250       -0.43750        0.31250
 BRILLOUIN|    72           0.00391       -0.31250       -0.43750        0.43750
 BRILLOUIN|    73           0.00391       -0.31250       -0.31250       -0.43750
 BRILLOUIN|    74           0.00391       -0.31250       -0.31250       -0.31250
 BRILLOUIN|    75           0.00391       -0.31250       -0.31250       -0.18750
 BRILLOUIN|    76           0.00391       -0.31250       -0.31250       -0.06250
 BRILLOUIN|    77           0.00391       -0.31250       -0.31250        0.06250
 BRILLOUIN|    78           0.00391       -0.31250       -0.31250        0.18750
 BRILLOUIN|    79           0.00391       -0.31250       -0.31250        0.31250
 BRILLOUIN|    80           0.00391       -0.31250       -0.31250        0.43750
 BRILLOUIN|    81           0.00391       -0.31250       -0.18750       -0.43750
 BRILLOUIN|    82           0.00391       -0.31250       -0.18750       -0.31250
 BRILLOUIN|    83           0.00391       -0.31250       -0.18750       -0.18750
 BRILLOUIN|    84           0.00391       -0.31250       -0.18750       -0.06250
 BRILLOUIN|    85           0.00391       -0.31250       -0.18750        0.06250
 BRILLOUIN|    86           0.00391       -0.31250       -0.18750        0.18750
 BRILLOUIN|    87           0.00391       -0.31250       -0.18750        0.31250
 BRILLOUIN|    88           0.00391       -0.31250       -0.18750        0.43750
 BRILLOUIN|    89           0.00391       -0.31250       -0.06250       -0.43750
 BRILLOUIN|    90           0.00391       -0.31250       -0.06250       -0.31250
 BRILLOUIN|    91           0.00391       -0.31250       -0.06250       -0.18750
 BRILLOUIN|    92           0.00391       -0.31250       -0.06250       -0.06250
 BRILLOUIN|    93           0.00391       -0.31250       -0.06250        0.06250
 BRILLOUIN|    94           0.00391       -0.31250       -0.06250        0.18750
 BRILLOUIN|    95           0.00391       -0.31250       -0.06250        0.31250
 BRILLOUIN|    96           0.00391       -0.31250       -0.06250        0.43750
 BRILLOUIN|    97           0.00391       -0.31250        0.06250       -0.43750
 BRILLOUIN|    98           0.00391       -0.31250        0.06250       -0.31250
 BRILLOUIN|    99           0.00391       -0.31250        0.06250       -0.18750
 BRILLOUIN|   100           0.00391       -0.31250        0.06250       -0.06250
 BRILLOUIN|   101           0.00391       -0.31250        0.06250        0.06250
 BRILLOUIN|   102           0.00391       -0.31250        0.06250        0.18750
 BRILLOUIN|   103           0.00391       -0.31250        0.06250        0.31250
 BRILLOUIN|   104           0.00391       -0.31250        0.06250        0.43750
 BRILLOUIN|   105           0.00391       -0.31250        0.18750       -0.43750
 BRILLOUIN|   106           0.00391       -0.31250        0.18750       -0.31250
 BRILLOUIN|   107           0.00391       -0.31250        0.18750       -0.18750
 BRILLOUIN|   108           0.00391       -0.31250        0.18750       -0.06250
 BRILLOUIN|   109           0.00391       -0.31250        0.18750        0.06250
 BRILLOUIN|   110           0.00391       -0.31250        0.18750        0.18750
 BRILLOUIN|   111           0.00391       -0.31250        0.18750        0.31250
 BRILLOUIN|   112           0.00391       -0.31250        0.18750        0.43750
 BRILLOUIN|   113           0.00391       -0.31250        0.31250       -0.43750
 BRILLOUIN|   114           0.00391       -0.31250        0.31250       -0.31250
 BRILLOUIN|   115           0.00391       -0.31250        0.31250       -0.18750
 BRILLOUIN|   116           0.00391       -0.31250        0.31250       -0.06250
 BRILLOUIN|   117           0.00391       -0.31250        0.31250        0.06250
 BRILLOUIN|   118           0.00391       -0.31250        0.31250        0.18750
 BRILLOUIN|   119           0.00391       -0.31250        0.31250        0.31250
 BRILLOUIN|   120           0.00391       -0.31250        0.31250        0.43750
 BRILLOUIN|   121           0.00391       -0.31250        0.43750       -0.43750
 BRILLOUIN|   122           0.00391       -0.31250        0.43750       -0.31250
 BRILLOUIN|   123           0.00391       -0.31250        0.43750       -0.18750
 BRILLOUIN|   124           0.00391       -0.31250        0.43750       -0.06250
 BRILLOUIN|   125           0.00391       -0.31250        0.43750        0.06250
 BRILLOUIN|   126           0.00391       -0.31250        0.43750        0.18750
 BRILLOUIN|   127           0.00391       -0.31250        0.43750        0.31250
 BRILLOUIN|   128           0.00391       -0.31250        0.43750        0.43750
 BRILLOUIN|   129           0.00391       -0.18750       -0.43750       -0.43750
 BRILLOUIN|   130           0.00391       -0.18750       -0.43750       -0.31250
 BRILLOUIN|   131           0.00391       -0.18750       -0.43750       -0.18750
 BRILLOUIN|   132           0.00391       -0.18750       -0.43750       -0.06250
 BRILLOUIN|   133           0.00391       -0.18750       -0.43750        0.06250
 BRILLOUIN|   134           0.00391       -0.18750       -0.43750        0.18750
 BRILLOUIN|   135           0.00391       -0.18750       -0.43750        0.31250
 BRILLOUIN|   136           0.00391       -0.18750       -0.43750        0.43750
 BRILLOUIN|   137           0.00391       -0.18750       -0.31250       -0.43750
 BRILLOUIN|   138           0.00391       -0.18750       -0.31250       -0.31250
 BRILLOUIN|   139           0.00391       -0.18750       -0.31250       -0.18750
 BRILLOUIN|   140           0.00391       -0.18750       -0.31250       -0.06250
 BRILLOUIN|   141           0.00391       -0.18750       -0.31250        0.06250
 BRILLOUIN|   142           0.00391       -0.18750       -0.31250        0.18750
 BRILLOUIN|   143           0.00391       -0.18750       -0.31250        0.31250
 BRILLOUIN|   144           0.00391       -0.18750       -0.31250        0.43750
 BRILLOUIN|   145           0.00391       -0.18750       -0.18750       -0.43750
 BRILLOUIN|   146           0.00391       -0.18750       -0.18750       -0.31250
 BRILLOUIN|   147           0.00391       -0.18750       -0.18750       -0.18750
 BRILLOUIN|   148           0.00391       -0.18750       -0.18750       -0.06250
 BRILLOUIN|   149           0.00391       -0.18750       -0.18750        0.06250
 BRILLOUIN|   150           0.00391       -0.18750       -0.18750        0.18750
 BRILLOUIN|   151           0.00391       -0.18750       -0.18750        0.31250
 BRILLOUIN|   152           0.00391       -0.18750       -0.18750        0.43750
 BRILLOUIN|   153           0.00391       -0.18750       -0.06250       -0.43750
 BRILLOUIN|   154           0.00391       -0.18750       -0.06250       -0.31250
 BRILLOUIN|   155           0.00391       -0.18750       -0.06250       -0.18750
 BRILLOUIN|   156           0.00391       -0.18750       -0.06250       -0.06250
 BRILLOUIN|   157           0.00391       -0.18750       -0.06250        0.06250
 BRILLOUIN|   158           0.00391       -0.18750       -0.06250        0.18750
 BRILLOUIN|   159           0.00391       -0.18750       -0.06250        0.31250
 BRILLOUIN|   160           0.00391       -0.18750       -0.06250        0.43750
 BRILLOUIN|   161           0.00391       -0.18750        0.06250       -0.43750
 BRILLOUIN|   162           0.00391       -0.18750        0.06250       -0.31250
 BRILLOUIN|   163           0.00391       -0.18750        0.06250       -0.18750
 BRILLOUIN|   164           0.00391       -0.18750        0.06250       -0.06250
 BRILLOUIN|   165           0.00391       -0.18750        0.06250        0.06250
 BRILLOUIN|   166           0.00391       -0.18750        0.06250        0.18750
 BRILLOUIN|   167           0.00391       -0.18750        0.06250        0.31250
 BRILLOUIN|   168           0.00391       -0.18750        0.06250        0.43750
 BRILLOUIN|   169           0.00391       -0.18750        0.18750       -0.43750
 BRILLOUIN|   170           0.00391       -0.18750        0.18750       -0.31250
 BRILLOUIN|   171           0.00391       -0.18750        0.18750       -0.18750
 BRILLOUIN|   172           0.00391       -0.18750        0.18750       -0.06250
 BRILLOUIN|   173           0.00391       -0.18750        0.18750        0.06250
 BRILLOUIN|   174           0.00391       -0.18750        0.18750        0.18750
 BRILLOUIN|   175           0.00391       -0.18750        0.18750        0.31250
 BRILLOUIN|   176           0.00391       -0.18750        0.18750        0.43750
 BRILLOUIN|   177           0.00391       -0.18750        0.31250       -0.43750
 BRILLOUIN|   178           0.00391       -0.18750        0.31250       -0.31250
 BRILLOUIN|   179           0.00391       -0.18750        0.31250       -0.18750
 BRILLOUIN|   180           0.00391       -0.18750        0.31250       -0.06250
 BRILLOUIN|   181           0.00391       -0.18750        0.31250        0.06250
 BRILLOUIN|   182           0.00391       -0.18750        0.31250        0.18750
 BRILLOUIN|   183           0.00391       -0.18750        0.31250        0.31250
 BRILLOUIN|   184           0.00391       -0.18750        0.31250        0.43750
 BRILLOUIN|   185           0.00391       -0.18750        0.43750       -0.43750
 BRILLOUIN|   186           0.00391       -0.18750        0.43750       -0.31250
 BRILLOUIN|   187           0.00391       -0.18750        0.43750       -0.18750
 BRILLOUIN|   188           0.00391       -0.18750        0.43750       -0.06250
 BRILLOUIN|   189           0.00391       -0.18750        0.43750        0.06250
 BRILLOUIN|   190           0.00391       -0.18750        0.43750        0.18750
 BRILLOUIN|   191           0.00391       -0.18750        0.43750        0.31250
 BRILLOUIN|   192           0.00391       -0.18750        0.43750        0.43750
 BRILLOUIN|   193           0.00391       -0.06250       -0.43750       -0.43750
 BRILLOUIN|   194           0.00391       -0.06250       -0.43750       -0.31250
 BRILLOUIN|   195           0.00391       -0.06250       -0.43750       -0.18750
 BRILLOUIN|   196           0.00391       -0.06250       -0.43750       -0.06250
 BRILLOUIN|   197           0.00391       -0.06250       -0.43750        0.06250
 BRILLOUIN|   198           0.00391       -0.06250       -0.43750        0.18750
 BRILLOUIN|   199           0.00391       -0.06250       -0.43750        0.31250
 BRILLOUIN|   200           0.00391       -0.06250       -0.43750        0.43750
 BRILLOUIN|   201           0.00391       -0.06250       -0.31250       -0.43750
 BRILLOUIN|   202           0.00391       -0.06250       -0.31250       -0.31250
 BRILLOUIN|   203           0.00391       -0.06250       -0.31250       -0.18750
 BRILLOUIN|   204           0.00391       -0.06250       -0.31250       -0.06250
 BRILLOUIN|   205           0.00391       -0.06250       -0.31250        0.06250
 BRILLOUIN|   206           0.00391       -0.06250       -0.31250        0.18750
 BRILLOUIN|   207           0.00391       -0.06250       -0.31250        0.31250
 BRILLOUIN|   208           0.00391       -0.06250       -0.31250        0.43750
 BRILLOUIN|   209           0.00391       -0.06250       -0.18750       -0.43750
 BRILLOUIN|   210           0.00391       -0.06250       -0.18750       -0.31250
 BRILLOUIN|   211           0.00391       -0.06250       -0.18750       -0.18750
 BRILLOUIN|   212           0.00391       -0.06250       -0.18750       -0.06250
 BRILLOUIN|   213           0.00391       -0.06250       -0.18750        0.06250
 BRILLOUIN|   214           0.00391       -0.06250       -0.18750        0.18750
 BRILLOUIN|   215           0.00391       -0.06250       -0.18750        0.31250
 BRILLOUIN|   216           0.00391       -0.06250       -0.18750        0.43750
 BRILLOUIN|   217           0.00391       -0.06250       -0.06250       -0.43750
 BRILLOUIN|   218           0.00391       -0.06250       -0.06250       -0.31250
 BRILLOUIN|   219           0.00391       -0.06250       -0.06250       -0.18750
 BRILLOUIN|   220           0.00391       -0.06250       -0.06250       -0.06250
 BRILLOUIN|   221           0.00391       -0.06250       -0.06250        0.06250
 BRILLOUIN|   222           0.00391       -0.06250       -0.06250        0.18750
 BRILLOUIN|   223           0.00391       -0.06250       -0.06250        0.31250
 BRILLOUIN|   224           0.00391       -0.06250       -0.06250        0.43750
 BRILLOUIN|   225           0.00391       -0.06250        0.06250       -0.43750
 BRILLOUIN|   226           0.00391       -0.06250        0.06250       -0.31250
 BRILLOUIN|   227           0.00391       -0.06250        0.06250       -0.18750
 BRILLOUIN|   228           0.00391       -0.06250        0.06250       -0.06250
 BRILLOUIN|   229           0.00391       -0.06250        0.06250        0.06250
 BRILLOUIN|   230           0.00391       -0.06250        0.06250        0.18750
 BRILLOUIN|   231           0.00391       -0.06250        0.06250        0.31250
 BRILLOUIN|   232           0.00391       -0.06250        0.06250        0.43750
 BRILLOUIN|   233           0.00391       -0.06250        0.18750       -0.43750
 BRILLOUIN|   234           0.00391       -0.06250        0.18750       -0.31250
 BRILLOUIN|   235           0.00391       -0.06250        0.18750       -0.18750
 BRILLOUIN|   236           0.00391       -0.06250        0.18750       -0.06250
 BRILLOUIN|   237           0.00391       -0.06250        0.18750        0.06250
 BRILLOUIN|   238           0.00391       -0.06250        0.18750        0.18750
 BRILLOUIN|   239           0.00391       -0.06250        0.18750        0.31250
 BRILLOUIN|   240           0.00391       -0.06250        0.18750        0.43750
 BRILLOUIN|   241           0.00391       -0.06250        0.31250       -0.43750
 BRILLOUIN|   242           0.00391       -0.06250        0.31250       -0.31250
 BRILLOUIN|   243           0.00391       -0.06250        0.31250       -0.18750
 BRILLOUIN|   244           0.00391       -0.06250        0.31250       -0.06250
 BRILLOUIN|   245           0.00391       -0.06250        0.31250        0.06250
 BRILLOUIN|   246           0.00391       -0.06250        0.31250        0.18750
 BRILLOUIN|   247           0.00391       -0.06250        0.31250        0.31250
 BRILLOUIN|   248           0.00391       -0.06250        0.31250        0.43750
 BRILLOUIN|   249           0.00391       -0.06250        0.43750       -0.43750
 BRILLOUIN|   250           0.00391       -0.06250        0.43750       -0.31250
 BRILLOUIN|   251           0.00391       -0.06250        0.43750       -0.18750
 BRILLOUIN|   252           0.00391       -0.06250        0.43750       -0.06250
 BRILLOUIN|   253           0.00391       -0.06250        0.43750        0.06250
 BRILLOUIN|   254           0.00391       -0.06250        0.43750        0.18750
 BRILLOUIN|   255           0.00391       -0.06250        0.43750        0.31250
 BRILLOUIN|   256           0.00391       -0.06250        0.43750        0.43750
 *******************************************************************************

 *******************************************************************************
 *******************************************************************************
 **                                                                           **
 **     #####                         ##              ##                      **
 **    ##   ##            ##          ##              ##                      **
 **   ##     ##                       ##            ######                    **
 **   ##     ##  ##   ##  ##   #####  ##  ##   ####   ##    #####    #####    **
 **   ##     ##  ##   ##  ##  ##      ## ##   ##      ##   ##   ##  ##   ##   **
 **   ##  ## ##  ##   ##  ##  ##      ####     ###    ##   ######   ######    **
 **    ##  ###   ##   ##  ##  ##      ## ##      ##   ##   ##       ##        **
 **     #######   #####   ##   #####  ##  ##  ####    ##    #####   ##        **
 **           ##                                                    ##        **
 **                                                                           **
 **                                                ... make the atoms dance   **
 **                                                                           **
 **            Copyright (C) by CP2K developers group (2000-2025)             **
 **                      J. Chem. Phys. 152, 194103 (2020)                    **
 **                                                                           **
 *******************************************************************************

 DFT| Spin restricted Kohn-Sham (RKS) calculation                            RKS
 DFT| Multiplicity                                                             1
 DFT| Number of spin states                                                    1
 DFT| Charge                                                                   0
 DFT| Self-interaction correction (SIC)                                       NO
 DFT| Cutoffs: density                                              1.000000E-10
 DFT|          gradient                                             1.000000E-10
 DFT|          tau                                                  1.000000E-10
 DFT|          cutoff_smoothing_range                               0.000000E+00
 DFT| XC density smoothing                                                  NONE
 DFT| XC derivatives                                                          PW

 FUNCTIONAL| PBE:
 FUNCTIONAL| J.P.Perdew, K.Burke, M.Ernzerhof, Phys. Rev. Letter, vol. 77, n 18,
 FUNCTIONAL|  pp. 3865-3868, (1996) {spin unpolarized}                          


 QS| Method:                                                                 GPW
 QS| Density plane wave grid type                        NON-SPHERICAL FULLSPACE
 QS| Number of grid levels:                                                    4
 QS| Density cutoff [a.u.]:                                                500.0
 QS| Multi grid cutoff [a.u.]: 1) grid level                               500.0
 QS|                           2) grid level                               166.7
 QS|                           3) grid level                                55.6
 QS|                           4) grid level                                18.5
 QS| Grid level progression factor:                                          3.0
 QS| Relative density cutoff [a.u.]:                                        50.0
 QS| Interaction thresholds: eps_pgf_orb:                                1.0E-16
 QS|                         eps_filter_matrix:                          0.0E+00
 QS|                         eps_core_charge:                            1.0E-18
 QS|                         eps_rho_gspace:                             1.0E-16
 QS|                         eps_rho_rspace:                             1.0E-16
 QS|                         eps_gvg_rspace:                             1.0E-08
 QS|                         eps_ppl:                                    1.0E-02
 QS|                         eps_ppnl:                                   1.0E-10


 ATOMIC KIND INFORMATION

  1. Atomic kind: Be                                    Number of atoms:       2

     Orbital Basis Set                                    TZVP-MOLOPT-GGA-GTH-q4

       Number of orbital shell sets:                                           1
       Number of orbital shells:                                               5
       Number of primitive Cartesian functions:                                6
       Number of Cartesian basis functions:                                    7
       Number of spherical basis functions:                                    7
       Norm type:                                                              2

       Normalised Cartesian orbitals:

                        Set   Shell   Orbital            Exponent    Coefficient

                          1       1    2s               15.020906      -0.768859
                                                         6.807405      -0.934865
                                                         2.108077      -0.487438
                                                         0.657533      -0.061945
                                                         0.214923      -0.039017
                                                         0.064375      -0.015005

                          1       2    3s               15.020906       0.338019
                                                         6.807405       0.445742
                                                         2.108077       0.393309
                                                         0.657533       0.061351
                                                         0.214923      -0.140821
                                                         0.064375      -0.046311

                          1       3    4s               15.020906      -0.483571
                                                         6.807405      -0.753408
                                                         2.108077       0.852162
                                                         0.657533      -0.742835
                                                         0.214923       0.062020
                                                         0.064375      -0.030099

                          1       4    5s               15.020906       0.489594
                                                         6.807405       0.658081
                                                         2.108077      -0.297613
                                                         0.657533       0.186431
                                                         0.214923       0.244157
                                                         0.064375      -0.120797

                          1       5    3px              15.020906       0.493134
                                                         6.807405      -0.293930
                                                         2.108077      -0.245399
                                                         0.657533      -0.232182
                                                         0.214923      -0.120962
                                                         0.064375      -0.012428
                          1       5    3py              15.020906       0.493134
                                                         6.807405      -0.293930
                                                         2.108077      -0.245399
                                                         0.657533      -0.232182
                                                         0.214923      -0.120962
                                                         0.064375      -0.012428
                          1       5    3pz              15.020906       0.493134
                                                         6.807405      -0.293930
                                                         2.108077      -0.245399
                                                         0.657533      -0.232182
                                                         0.214923      -0.120962
                                                         0.064375      -0.012428

       Atomic covalent radius [Angstrom]:                                  0.900

       Atomic van der Waals radius [Angstrom]:                             1.530

     GTH Potential information for                                    GTH-PBE-q4

       Description:                       Goedecker-Teter-Hutter pseudopotential
                                           Goedecker et al., PRB 54, 1703 (1996)
                                          Hartwigsen et al., PRB 58, 3641 (1998)
                                                      Krack, TCA 114, 145 (2005)

       Gaussian exponent of the core charge distribution:               4.733728
       Electronic configuration (s p d ...):                                   4

       Parameters of the local part of the GTH pseudopotential:

                          rloc        C1          C2          C3          C4
                        0.325000  -24.067467   17.279022   -3.339106    0.165549


 MOLECULE KIND INFORMATION


 All atoms are their own molecule, skipping detailed information


 TOTAL NUMBERS AND MAXIMUM NUMBERS

  Total number of            - Atomic kinds:                                   1
                             - Atoms:                                          2
                             - Shell sets:                                     2
                             - Shells:                                        10
                             - Primitive Cartesian functions:                 12
                             - Cartesian basis functions:                     14
                             - Spherical basis functions:                     14

  Maximum angular momentum of- Orbital basis functions:                        1
                             - Local part of the GTH pseudopotential:          6


 MODULE QUICKSTEP: ATOMIC COORDINATES IN ANGSTROM

   Atom Kind Element         X             Y             Z       Z(eff)     Mass
      1    1 Be    4      0.000000      0.000000      0.000000   4.0000   9.0122
      2    1 Be    4      1.131369      0.653196      1.786580   4.0000   9.0122



 SCF PARAMETERS         Density guess:                                    ATOMIC
                        --------------------------------------------------------
                        max_scf:                                             500
                        max_scf_history:                                       0
                        max_diis:                                              4
                        --------------------------------------------------------
                        eps_scf:                                        1.00E-09
                        eps_scf_history:                                0.00E+00
                        eps_diis:                                       1.00E-01
                        eps_eigval:                                     1.00E-05
                        --------------------------------------------------------
                        level_shift [a.u.]:                             0.000000
                        added MOs                                        10    0
                        --------------------------------------------------------
                        Mixing method:                            BROYDEN_MIXING
                                                charge density mixing in g-space
                        --------------------------------------------------------
                        Smear method:                                FERMI_DIRAC
                        Electronic temperature [K]:                        300.0
                        Electronic temperature [a.u.]:                  9.50E-04
                        Accuracy threshold:                             1.00E-10
                        --------------------------------------------------------
                        No outer SCF

 PW_GRID| Information for grid number                                          1
 PW_GRID| Grid distributed over                                     8 processors
 PW_GRID| Real space group dimensions                                     8    1
 PW_GRID| the grid is blocked:                                                NO
 PW_GRID| Cutoff [a.u.]                                                    500.0
 PW_GRID| spherical cutoff:                                                   NO
 PW_GRID|   Bounds   1            -22      22                Points:          45
 PW_GRID|   Bounds   2            -22      22                Points:          45
 PW_GRID|   Bounds   3            -36      35                Points:          72
 PW_GRID| Volume element (a.u.^3)  0.7333E-03     Volume (a.u.^3)       106.9194
 PW_GRID| Grid span                                                    FULLSPACE
 PW_GRID|   Distribution                         Average         Max         Min
 PW_GRID|   G-Vectors                            18225.0       18225       18225
 PW_GRID|   G-Rays                                 405.0         405         405
 PW_GRID|   Real Space Points                    18225.0       19440       16200

 PW_GRID| Information for grid number                                          2
 PW_GRID| Number of the reference grid                                         1
 PW_GRID| Grid distributed over                                     8 processors
 PW_GRID| Real space group dimensions                                     8    1
 PW_GRID| the grid is blocked:                                                NO
 PW_GRID| Cutoff [a.u.]                                                    166.7
 PW_GRID| spherical cutoff:                                                   NO
 PW_GRID|   Bounds   1            -12      12                Points:          25
 PW_GRID|   Bounds   2            -12      12                Points:          25
 PW_GRID|   Bounds   3            -20      19                Points:          40
 PW_GRID| Volume element (a.u.^3)  0.4277E-02     Volume (a.u.^3)       106.9194
 PW_GRID| Grid span                                                    FULLSPACE
 PW_GRID|   Distribution                         Average         Max         Min
 PW_GRID|   G-Vectors                             3125.0        3175        3050
 PW_GRID|   G-Rays                                 125.0         127         122
 PW_GRID|   Real Space Points                     3125.0        4000        3000

 PW_GRID| Information for grid number                                          3
 PW_GRID| Number of the reference grid                                         1
 PW_GRID| Grid distributed over                                     8 processors
 PW_GRID| Real space group dimensions                                     8    1
 PW_GRID| the grid is blocked:                                                NO
 PW_GRID| Cutoff [a.u.]                                                     55.6
 PW_GRID| spherical cutoff:                                                   NO
 PW_GRID|   Bounds   1             -7       7                Points:          15
 PW_GRID|   Bounds   2             -7       7                Points:          15
 PW_GRID|   Bounds   3            -12      11                Points:          24
 PW_GRID| Volume element (a.u.^3)  0.1980E-01     Volume (a.u.^3)       106.9194
 PW_GRID| Grid span                                                    FULLSPACE
 PW_GRID|   Distribution                         Average         Max         Min
 PW_GRID|   G-Vectors                              675.0         690         660
 PW_GRID|   G-Rays                                  45.0          46          44
 PW_GRID|   Real Space Points                      675.0         720         360

 PW_GRID| Information for grid number                                          4
 PW_GRID| Number of the reference grid                                         1
 PW_GRID| Grid distributed over                                     8 processors
 PW_GRID| Real space group dimensions                                     8    1
 PW_GRID| the grid is blocked:                                                NO
 PW_GRID| Cutoff [a.u.]                                                     18.5
 PW_GRID| spherical cutoff:                                                   NO
 PW_GRID|   Bounds   1             -4       4                Points:           9
 PW_GRID|   Bounds   2             -4       4                Points:           9
 PW_GRID|   Bounds   3             -7       7                Points:          15
 PW_GRID| Volume element (a.u.^3)  0.8800E-01     Volume (a.u.^3)       106.9194
 PW_GRID| Grid span                                                    FULLSPACE
 PW_GRID|   Distribution                         Average         Max         Min
 PW_GRID|   G-Vectors                              151.9         171         144
 PW_GRID|   G-Rays                                  16.9          19          16
 PW_GRID|   Real Space Points                      151.9         270         135

 POISSON| Solver                                                        PERIODIC
 POISSON| Periodicity                                                        XYZ

 RS_GRID| Information for grid number                                          1
 RS_GRID|   Bounds   1            -22      22                Points:          45
 RS_GRID|   Bounds   2            -22      22                Points:          45
 RS_GRID|   Bounds   3            -36      35                Points:          72
 RS_GRID| Real space fully replicated
 RS_GRID| Group size                                                           1

 RS_GRID| Information for grid number                                          2
 RS_GRID|   Bounds   1            -12      12                Points:          25
 RS_GRID|   Bounds   2            -12      12                Points:          25
 RS_GRID|   Bounds   3            -20      19                Points:          40
 RS_GRID| Real space fully replicated
 RS_GRID| Group size                                                           1

 RS_GRID| Information for grid number                                          3
 RS_GRID|   Bounds   1             -7       7                Points:          15
 RS_GRID|   Bounds   2             -7       7                Points:          15
 RS_GRID|   Bounds   3            -12      11                Points:          24
 RS_GRID| Real space fully replicated
 RS_GRID| Group size                                                           1

 RS_GRID| Information for grid number                                          4
 RS_GRID|   Bounds   1             -4       4                Points:           9
 RS_GRID|   Bounds   2             -4       4                Points:           9
 RS_GRID|   Bounds   3             -7       7                Points:          15
 RS_GRID| Real space fully replicated
 RS_GRID| Group size                                                           1

 Number of electrons:                                                          8
 Number of occupied orbitals:                                                  4
 Number of molecular orbitals:                                                14

 Number of orbital functions:                                                 14
 Number of independent orbital functions:                                     14

 Extrapolation method: initial_guess

 Atomic guess: The first density matrix is obtained in terms of atomic orbitals
               and electronic configurations assigned to each atomic kind

 Guess for atomic kind: Be

 Electronic structure
    Total number of core electrons                                          0.00
    Total number of valence electrons                                       4.00
    Total number of electrons                                               4.00
    Multiplicity                                                   not specified
    S      2.00  2.00


 *******************************************************************************
                  Iteration          Convergence                     Energy [au]
 *******************************************************************************
                          1        0.263126E-01                 -14.313372328985
                          2        0.256348E-02                 -14.313589331713
                          3        0.254334E-03                 -14.313592248892
                          4        0.922557E-06                 -14.313592287342

 Energy components [Hartree]           Total Energy ::          -14.313592287342
                                        Band Energy ::           -7.985458966903
                                     Kinetic Energy ::           12.877265174093
                                   Potential Energy ::          -27.190857461434
                                      Virial (-V/T) ::            2.111539763594
                                        Core Energy ::          -18.938435236308
                                          XC Energy ::           -2.486564315515
                                     Coulomb Energy ::            7.111407264482
                       Total Pseudopotential Energy ::          -31.863194058916
                       Local Pseudopotential Energy ::          -31.863194058916
                    Nonlocal Pseudopotential Energy ::            0.000000000000
                                        Confinement ::            0.474936485152

 Orbital energies  State     L     Occupation   Energy[a.u.]          Energy[eV]

                       1     0          2.000      -3.820876         -103.971311
                       2     0          2.000      -0.171854           -4.676384


 Total Electron Density at R=0:                                        13.783712
 Re-scaling the density matrix to get the right number of electrons
                  # Electrons              Trace(P)               Scaling factor
                            8                 8.000                        1.000


 SCF WAVEFUNCTION OPTIMIZATION

  Step     Update method      Time    Convergence         Total energy    Change
  ------------------------------------------------------------------------------
     1 NoMix/Diag. 0.10E+00    6.0     2.16280925       -30.0031830799 -3.00E+01
     2 Broy./Diag. 0.10E+00    6.4     0.00206826       -29.3314817271  6.72E-01
     3 Broy./Diag. 0.10E+00    6.4     0.01996415       -29.3105378428  2.09E-02
     4 Broy./Diag. 0.10E+00    6.4     0.00023058       -29.3078163639  2.72E-03
     5 Broy./Diag. 0.10E+00    6.4     0.00358477       -29.3209796567 -1.32E-02
     6 Broy./Diag. 0.10E+00    6.4     0.00002658       -29.3221702841 -1.19E-03
     7 Broy./Diag. 0.10E+00    6.4     0.00008849       -29.3227241980 -5.54E-04
     8 Broy./Diag. 0.10E+00    6.4     0.00000123       -29.3227218898  2.31E-06
     9 Broy./Diag. 0.10E+00    6.4     0.00001183       -29.3226492587  7.26E-05
    10 Broy./Diag. 0.10E+00    6.4     0.00000032       -29.3226445077  4.75E-06
    11 Broy./Diag. 0.10E+00    6.4     0.00000255       -29.3226369093  7.60E-06
    12 Broy./Diag. 0.10E+00    6.4     0.00000003       -29.3226363018  6.07E-07
    13 Broy./Diag. 0.10E+00    6.4     0.00000004       -29.3226359123  3.89E-07
    14 Broy./Diag. 0.10E+00    6.4     7.9524E-09       -29.3226358779  3.44E-08
    15 Broy./Diag. 0.10E+00    6.4     0.00000001       -29.3226358600  1.79E-08
    16 Broy./Diag. 0.10E+00    6.4     2.5817E-09       -29.3226358435  1.65E-08
    17 Broy./Diag. 0.10E+00    6.4     2.3815E-09       -29.3226358448 -1.29E-09
    18 Broy./Diag. 0.10E+00    6.4     3.4944E-09       -29.3226358594 -1.46E-08
    19 Broy./Diag. 0.10E+00    6.4     2.5947E-10       -29.3226358623 -2.88E-09

  *** SCF run converged in    19 steps ***


  Electronic density on regular grids:         -8.0000000000        0.0000000000
  Core density on regular grids:                8.0000000000        0.0000000000
  Total charge density on r-space grids:        0.0000000000
  Total charge density g-space grids:           0.0000000000

  Overlap energy of the core charge distribution:               0.00000000000000
  Self energy of the core charge distribution:                -27.77548719004339
  Core Hamiltonian energy:                                      0.99709660188326
  Hartree energy:                                               3.15916169523279
  Exchange-correlation energy:                                 -5.70338424397610
  Electronic entropic energy:                                  -0.00002272540012
  Fermi energy:                                                 0.27261854350367

  Total energy:                                               -29.32263586230353

 !-----------------------------------------------------------------------------!
                     Mulliken Population Analysis

 #  Atom  Element  Kind  Atomic population                           Net charge
       1     Be       1          4.000000                              0.000000
       2     Be       1          4.000000                              0.000000
 # Total charge                              8.000000                  0.000000

 !-----------------------------------------------------------------------------!

 !-----------------------------------------------------------------------------!
                           Hirshfeld Charges

  #Atom  Element  Kind  Ref Charge     Population                    Net charge
      1       Be     1       4.000          4.000                         0.000
      2       Be     1       4.000          4.000                         0.000

  Total Charge                                                            0.000
 !-----------------------------------------------------------------------------!

 KPOINTS| Band Structure Calculation
 KPOINTS| Number of k-point sets                                               1
 KPOINTS| Number of added MOs/bands                                           -1
 KPOINTS| Number of k-points in set    1                                     148
 KPOINTS| In units of b-vector [2pi/Bohr]
 KPOINTS| Special point     1 not specifi     0.000000     0.000000     0.000000
 KPOINTS| Special point     2 not specifi     0.500000     0.000000     0.000000
 KPOINTS| Special point     3 not specifi     0.333333     0.333333     0.000000
 KPOINTS| Special point     4 not specifi     0.000000     0.000000     0.000000
 KPOINTS| Time for k-point line                                            2.341

 ENERGY| Total FORCE_EVAL ( QS ) energy [hartree]            -29.322635862303532

 -------------------------------------------------------------------------------
 -                                                                             -
 -                                DBCSR STATISTICS                             -
 -                                                                             -
 -------------------------------------------------------------------------------
 COUNTER                                    TOTAL       BLAS       SMM       ACC
 flops inhomo. stacks                           0       0.0%      0.0%      0.0%
 flops total                         0.000000E+00       0.0%      0.0%      0.0%
 flops max/rank                      0.000000E+00       0.0%      0.0%      0.0%
 matmuls inhomo. stacks                         0       0.0%      0.0%      0.0%
 matmuls total                                  0       0.0%      0.0%      0.0%
 number of processed stacks                     0       0.0%      0.0%      0.0%
 average stack size                                     0.0       0.0       0.0
 marketing flops                     0.000000E+00
 -------------------------------------------------------------------------------
 -                                                                             -
 -                      DBCSR MESSAGE PASSING PERFORMANCE                      -
 -                                                                             -
 -------------------------------------------------------------------------------
 ROUTINE             CALLS      AVE VOLUME [Bytes]
 MP_Bcast                1                     12.
 MP_Allreduce           19                     21.
 MP_Alltoall        462096                    516.
 -------------------------------------------------------------------------------

 -------------------------------------------------------------------------------
 -                                                                             -
 -                                DBM STATISTICS                               -
 -                                                                             -
 -------------------------------------------------------------------------------
    M  x    N  x    K                                          COUNT     PERCENT
 -------------------------------------------------------------------------------

 -------------------------------------------------------------------------------
 -                                                                             -
 -                                GRID STATISTICS                              -
 -                                                                             -
 -------------------------------------------------------------------------------
 LP    KERNEL             BACKEND                              COUNT     PERCENT
 2     collocate general  CPU                                 625240      51.28%
 2     integrate general  CPU                                 593978      48.72%
 0     collocate general  CPU                                      4       0.00%
 0     integrate general  CPU                                      2       0.00%
 -------------------------------------------------------------------------------

 MEMORY| Estimated peak process memory [MiB]                                 307

 -------------------------------------------------------------------------------
 ----                             MULTIGRID INFO                            ----
 -------------------------------------------------------------------------------
 count for grid        1:          27120          cutoff [a.u.]          500.00
 count for grid        2:          12936          cutoff [a.u.]          166.67
 count for grid        3:          15878          cutoff [a.u.]           55.56
 count for grid        4:          26896          cutoff [a.u.]           18.52
 total gridlevel count  :          82830

 -------------------------------------------------------------------------------
 -                                                                             -
 -                         MESSAGE PASSING PERFORMANCE                         -
 -                                                                             -
 -------------------------------------------------------------------------------

 ROUTINE             CALLS      AVE VOLUME [Bytes]
 MP_Group                6
 MP_Bcast           179746                  24101.
 MP_Allreduce       253614                     11.
 MP_Sync                 4
 MP_Alltoall           347                 827172.
 MP_SendRecv           574                  51461.
 MP_ISendRecv          539                  50245.
 MP_Wait            123439
 MP_comm_split           4
 MP_ISend           131084                     65.
 MP_IRecv           209024                     40.
 -------------------------------------------------------------------------------


 -------------------------------------------------------------------------------
 -                                                                             -
 -                           R E F E R E N C E S                               -
 -                                                                             -
 -------------------------------------------------------------------------------
 
 CP2K version 2025.1 (Development Version), the CP2K developers group (2025).
 CP2K is freely available from https://www.cp2k.org/ .
 
 T. D. Kuehne, M. Iannuzzi, M. Del Ben, V. V. Rybkin, P. Seewald, F. Stein, T. 
 Laino, R. Z. Khaliullin, O. Schuett, F. Schiffmann, D. Golze, J. Wilhelm, S. 
 Chulkov, M. H. Bani-Hashemian, V. Weber, U. Borstnik, M. Taillefumier, A. S. 
 Jakobovits, A. Lazzaro, H. Pabst, T. Mueller, R. Schade, M. Guidon, S. 
 Andermatt, N. Holmberg, G. K. Schenter, A. Hehn, A. Bussy, F. Belleflamme, G. 
 Tabacchi, A. Gloess, M. Lass, I. Bethune, C. J. Mundy, C. Plessl, M. Watkins, 
 J. VandeVondele, M. Krack, J. Hutter.
 J. Chem. Phys. 152, 194103 (2020).
 CP2K: An electronic structure and molecular dynamics software package - 
 Quickstep: Efficient and accurate electronic structure calculations.
 https://doi.org/10.1063/5.0007045

 O. Schuett, P. Messmer, J. Hutter, J. VandeVondele.
 Electronic Structure Calculations on Graphics Processing Units, 173-190 (2016).
 GPU-Accelerated Sparse Matrix-Matrix Multiplication for Linear Scaling Density 
 Functional Theory.
 https://doi.org/10.1002/9781118670712.ch8

 J. Hutter, M. Iannuzzi, F. Schiffmann, J. VandeVondele.
 WIREs Comput Mol Sci. 4, 15-25 (2014).
 CP2K: atomistic simulations of condensed matter systems.
 https://doi.org/10.1002/wcms.1159

 U. Borstnik, J. VandeVondele, V. Weber, J. Hutter.
 Parallel Comput. 40, 47-58 (2014).
 Sparse matrix multiplication: The distributed block-compressed sparse row 
 library.
 https://doi.org/10.1016/j.parco.2014.03.012

 J. VandeVondele, J. Hutter.
 J. Chem. Phys. 127, 114105 (2007).
 Gaussian basis sets for accurate calculations on molecular systems in gas and 
 condensed phases.
 https://doi.org/10.1063/1.2770708

 J. VandeVondele, M. Krack, F. Mohamed, M. Parrinello, T. Chassaing, J. Hutter.
 Comput. Phys. Commun. 167, 103-128 (2005).
 QUICKSTEP: Fast and accurate density functional calculations using a mixed 
 Gaussian and plane waves approach.
 https://doi.org/10.1016/j.cpc.2004.12.014

 M. Krack.
 Theor. Chem. Acc. 114, 145-152 (2005).
 Pseudopotentials for H to Kr optimized for gradient-corrected 
 exchange-correlation functionals.
 https://doi.org/10.1007/s00214-005-0655-y

 M. Frigo, S. G. Johnson.
 Proc. IEEE 93, 216-231 (2005).
 The design and implementation of FFTW3.
 https://doi.org/10.1109/JPROC.2004.840301

 C. Hartwigsen, S. Goedecker, J. Hutter.
 Phys. Rev. B 58, 3641-3662 (1998).
 Relativistic separable dual-space Gaussian pseudopotentials from H to Rn.
 https://doi.org/10.1103/PhysRevB.58.3641

 G. Lippert, J. Hutter, M. Parrinello.
 Mol. Phys. 92, 477-487 (1997).
 A hybrid Gaussian and plane wave density functional scheme.
 https://doi.org/10.1080/002689797170220

 S. Goedecker, M. Teter, J. Hutter.
 Phys. Rev. B 54, 1703-1710 (1996).
 Separable dual-space Gaussian pseudopotentials.
 https://doi.org/10.1103/PhysRevB.54.1703

 J. P. Perdew, K. Burke, M. Ernzerhof.
 Phys. Rev. Lett. 77, 3865-3868 (1996).
 Generalized gradient approximation made simple.
 https://doi.org/10.1103/PhysRevLett.77.3865


 -------------------------------------------------------------------------------
 -                                                                             -
 -                                T I M I N G                                  -
 -                                                                             -
 -------------------------------------------------------------------------------
 SUBROUTINE                       CALLS  ASD         SELF TIME        TOTAL TIME
                                MAXIMUM       AVERAGE  MAXIMUM  AVERAGE  MAXIMUM
 CP2K                                 1  1.0    0.030    0.032  139.967  139.967
 qs_energies                          1  2.0    0.015    0.025  138.784  138.792
 scf_env_do_scf                       1  3.0    0.000    0.000  124.243  124.243
 scf_env_do_scf_inner_loop           19  4.0    0.072    0.078  124.243  124.243
 do_general_diag_kp                  20  5.8    0.105    0.122  110.121  111.480
 qs_scf_new_mos_kp                   19  5.0    0.000    0.000  107.867  109.223
 mp_alltoall_i22                  78736  8.7   78.445   96.640   78.445   96.640
 dbcsr_desymmetrize_deep          44528  7.4    0.623    0.687   58.600   71.334
 rskp_transform                   10024  6.9   11.211   59.648   11.211   59.648
 dbcsr_complete_redistribute      34208  8.1    0.994    1.135   32.201   37.623
 kpoint_density_transform            19  7.0    0.087    0.097   31.594   31.686
 copy_fm_to_dbcsr                  9728  8.0    0.055    0.062   25.395   30.665
 transform_dmat                    4864  8.0    5.283   28.258    5.283   28.258
 transfer_rs2pw                      82  8.0    0.001    0.001   10.220   12.566
 transfer_rs2pw_500                  22  8.9    0.011    0.012   10.208   12.552
 mp_sendrecv_dv                     574 10.0   10.205   12.552   10.205   12.552
 copy_dbcsr_to_fm                 24480  6.7    0.232    0.261   10.901   11.070
 cp_dbcsr_alloc_block_from_nbl    31140  5.0    2.086   10.933    2.134   11.043
 qs_ks_update_qs_env                 19  5.0    0.000    0.000    4.613   10.594
 rebuild_ks_matrix                   19  6.0    0.000    0.000    2.406    8.388
 qs_ks_build_kohn_sham_matrix        19  7.0    0.136    0.139    2.406    8.387
 sum_up_and_integrate                19  8.0    0.000    0.000    1.483    7.417
 integrate_v_rspace                  19  9.0    0.029    0.153    1.483    7.416
 qs_rho_update_rho_low               20  5.0    0.000    0.000    7.371    7.414
 calculate_rho_elec                  20  6.0    0.005    0.011    7.371    7.414
 density_rs2pw                       20  7.0    0.001    0.001    6.002    7.392
 grid_collocate_task_list            20  7.0    1.363    7.244    1.363    7.244
 grid_integrate_task_list            19 10.0    1.349    7.210    1.349    7.210
 qs_energies_init_hamiltonians        1  3.0    0.000    0.000    7.111    7.111
 mp_sum_d                        168983  9.0    4.656    5.538    4.656    5.538
 build_core_hamiltonian_matrix        1  4.0    0.016    0.016    1.168    5.418
 qs_env_update_s_mstruct              1  4.0    0.000    0.000    4.596    5.257
 calculate_rho_core                   1  5.0    0.000    0.001    4.257    5.211
 dbcsr_dot                       168417  8.0    0.649    0.727    4.519    5.085
 init_scf_run                         1  3.0    0.000    0.000    2.839    3.403
 scf_env_initial_rho_setup            1  4.0    0.000    0.000    2.839    3.403
 mixing_allocate                      1  3.0    0.025    0.026    0.656    3.090
 calculate_first_density_matrix       1  5.0    0.003    0.003    2.445    3.010
 calculate_atomic_block_dm            1  6.0    0.001    0.001    2.437    3.002
 write_kpoints_restart               19  5.0    0.029    0.032    2.810    2.810
 dbcsr_finalize                  149880  7.4    0.392    0.415    2.634    2.799
 evaluate_core_matrix_traces         19  6.0    0.000    0.000    2.206    2.206
 calculate_ptrace_kp                 38  7.0    0.121    0.123    2.206    2.206
 cp_fm_start_copy_general         29776  7.3    0.309    0.509    2.128    2.164
 mp_alltoall_d11v                236208  9.3    2.050    2.148    2.050    2.148
 mp_cart_sub                      48962  8.7    1.923    1.934    1.923    1.934
 dbcsr_copy                      182576  6.6    1.022    1.096    1.472    1.672
 dbcsr_merge_all                  34208 10.1    0.937    1.132    1.477    1.642
 build_overlap_matrix_low             1  5.0    0.029    0.037    0.342    1.565
 build_kinetic_matrix_low             1  5.0    0.029    0.036    0.340    1.563
 calculate_ecore_overlap              1  4.0    0.000    0.000    1.267    1.560
 qs_env_rebuild_rho                   1  5.0    0.000    0.000    0.327    1.543
 qs_rho_rebuild                       1  6.0    0.012    0.013    0.327    1.543
 mp_sum_iv                           24  5.3    1.217    1.499    1.217    1.499
 qs_scf_ensure_work_matrices          1  3.0    0.000    0.000    1.217    1.499
 hybrid_alltoall_any              44528  8.4    0.168    0.185    1.375    1.448
 mp_alltoall_i11v                147152  8.9    1.356    1.372    1.356    1.372
 self_consistency_check              19  5.0    0.118    0.120    1.207    1.228
 mp_cart_create                   24487  8.7    1.076    1.106    1.076    1.106
 create_qs_kind_set                   1  2.0    0.000    0.000    1.024    1.024
 read_qs_kind                         1  3.0    0.613    0.620    1.024    1.024
 dbcsr_create_new                312521  7.5    0.799    0.823    0.984    1.022
 cp_sm_mix                        84208  6.0    0.202    0.261    0.981    1.006
 dbcsr_iterator_start            477059  8.6    0.758    0.788    0.870    0.894
 mp_allgather_i                   59552  8.3    0.792    0.872    0.792    0.872
 cp_fm_write_unformatted           4432  6.0    0.782    0.840    0.788    0.860
 mp_bcast_iv                     119258  8.3    0.710    0.807    0.710    0.807
 dbcsr_work_create                78736  8.7    0.472    0.506    0.671    0.717
 mp_max_d                         84210  7.0    0.580    0.618    0.580    0.618
 dbcsr_iterator_stop             477059  8.6    0.499    0.505    0.594    0.602
 dbcsr_work_destroy_all           78736  9.7    0.371    0.373    0.559    0.563
 copy_dbcsr_to_fm_bc              24480  7.7    0.225    0.234    0.512    0.528
 dbcsr_data_new                  887546  9.4    0.383    0.513    0.383    0.513
 parser_read_line                133893  4.0    0.045    0.047    0.470    0.474
 dbcsr_data_release             1453661  9.8    0.438    0.455    0.438    0.455
 tree_to_linear_d                 34208 11.1    0.404    0.450    0.404    0.450
 copy_fm_to_dbcsr_bc               9728  9.0    0.121    0.135    0.403    0.443
 parser_read_line_low               153  5.2    0.048    0.206    0.426    0.431
 broadcast_input_information        153  6.2    0.098    0.104    0.378    0.407
 dbcsr_destroy                   144105  7.0    0.220    0.234    0.371    0.398
 dbcsr_set                       249341  7.1    0.213    0.220    0.303    0.326
 dbcsr_copy_into_existing         14160  8.7    0.103    0.219    0.181    0.300
 fft_wrap_pw1pw2                    347 10.0    0.002    0.002    0.212    0.263
 fft_wrap_pw1pw2_500                230 11.3    0.008    0.008    0.193    0.244
 quick_finalize                   44528  9.4    0.111    0.147    0.181    0.244
 mp_bcast_im                      59552  8.3    0.214    0.243    0.214    0.243
 fft3d_ps                           347 12.0    0.047    0.049    0.186    0.237
 build_core_ppl                       1  5.0    0.042    0.226    0.042    0.226
 mp_bcast_i_src                     612  7.2    0.168    0.199    0.168    0.199
 mp_comm_free                     73485  8.7    0.163    0.186    0.163    0.186
 mp_waitall_1                    123439  8.3    0.081    0.181    0.081    0.181
 mp_alltoall_z22v                   347 14.0    0.122    0.176    0.122    0.176
 potential_pw2rs                     19 10.0    0.001    0.001    0.105    0.155
 kpoint_init_cell_index               2  3.5    0.111    0.141    0.148    0.152
 dbcsr_iterator_seek             477059  9.6    0.112    0.147    0.112    0.147
 cp_cfm_geeig_canon                 645  6.8    0.004    0.004    0.142    0.144
 yz_to_x                            157 12.8    0.005    0.005    0.088    0.141
 dbcsr_reserve_blocks             40868  7.2    0.057    0.108    0.071    0.138
 dbcsr_make_index_exist          312521  8.5    0.124    0.134    0.124    0.134
 cp_cfm_heevd                      1290  7.8    0.001    0.001    0.130    0.132
 cp_cfm_heevd_base                 1290  8.8    0.128    0.131    0.128    0.131
 mp_bcast_am_src                    153  7.2    0.100    0.105    0.110    0.124
 dbcsr_sort_indices              119604 10.4    0.066    0.115    0.066    0.115
 dbcsr_zero                      249341  8.1    0.090    0.106    0.090    0.106
 qs_vxc_create                       19  8.0    0.000    0.000    0.105    0.106
 xc_vxc_pw_create                    19  9.0    0.004    0.004    0.105    0.105
 kpoint_set_mo_occupation            19  7.0    0.092    0.094    0.096    0.099
 merge_index                      34208 11.1    0.067    0.075    0.067    0.075
 xc_pw_derive                       114 11.0    0.000    0.000    0.070    0.072
 topology_control                     1  2.0    0.000    0.000    0.064    0.065
 kpoint_density_matrices             19  7.0    0.004    0.004    0.062    0.063
 qs_create_task_list                  1  5.0    0.000    0.000    0.012    0.063
 generate_qs_task_list                1  6.0    0.008    0.043    0.012    0.063
 dbcsr_reserve_all_blocks          9728 10.0    0.014    0.018    0.049    0.063
 parallel_gemm_fm                  2432  8.0    0.002    0.002    0.057    0.058
 mp_irecv_iv                     119104  8.3    0.007    0.057    0.007    0.057
 cp_fm_finish_copy_general        12308  7.8    0.025    0.033    0.040    0.057
 gspace_mixing                       18  5.0    0.002    0.003    0.057    0.057
 parallel_gemm_fm_gemm             2432  9.0    0.002    0.002    0.055    0.056
 xc_rho_set_and_dset_create          19 10.0    0.004    0.004    0.053    0.055
 cp_fm_gemm                        2432 10.0    0.053    0.054    0.053    0.054
 dbcsr_switch_data_area           44528 10.4    0.040    0.042    0.051    0.053
 x_to_yz                            190 13.2    0.010    0.011    0.049    0.050
 xc_pw_divergence                    19 10.0    0.000    0.000    0.047    0.048
 mp_comm_size                    169223  9.0    0.041    0.046    0.041    0.046
 mp_max_iv                            2  4.5    0.036    0.045    0.036    0.045
 read_cell_cif                        2  4.5    0.002    0.004    0.044    0.045
 broyden_mixing                      18  6.0    0.040    0.041    0.042    0.043
 mp_isend_dv                      30368  8.2    0.036    0.040    0.036    0.040
 mp_isend_iv                      67144  8.3    0.010    0.040    0.010    0.040
 mp_comm_rank                    169223  9.0    0.038    0.039    0.038    0.039
 coordinate_control                   1  3.0    0.000    0.001    0.039    0.039
 coordinate_control_READ_COORDI       1  4.0    0.000    0.000    0.038    0.039
 read_coordinate_cif                  1  5.0    0.001    0.002    0.038    0.039
 cp_fm_cleanup_copy_general       21264  7.0    0.022    0.023    0.035    0.037
 scf_post_calculation_gpw             1  3.0    0.000    0.000    0.035    0.035
 write_available_results              1  4.0    0.000    0.000    0.035    0.035
 write_mo_free_results                1  5.0    0.001    0.001    0.035    0.035
 transfer_pw2rs                      77 10.9    0.000    0.000    0.034    0.034
 dbcsr_make_dbcsr_index          119604 10.5    0.024    0.030    0.024    0.030
 dbcsr_distribution_new           34210  8.4    0.024    0.029    0.024    0.029
 mp_irecv_im2                     59552  8.3    0.003    0.027    0.003    0.027
 dbcsr_get_data_size_used         78736  9.7    0.024    0.027    0.024    0.027
 transfer_pw2rs_500                  20 11.8    0.009    0.010    0.023    0.024
 scf_env_cleanup                      1  3.0    0.006    0.007    0.019    0.021
 mp_sum_dv                          314  3.2    0.013    0.020    0.013    0.020
 mp_recv_dv                       13296  7.0    0.002    0.020    0.002    0.020
 mulliken_population_analysis         1  6.0    0.007    0.009    0.019    0.019
 mp_isend_im2                     33572  8.3    0.005    0.018    0.005    0.018
 dbcsr_filter_anytype             93072  7.8    0.017    0.018    0.017    0.018
 mp_irecv_dv                      30368  8.2    0.016    0.017    0.016    0.017
 dbcsr_data_copy_aa2              34208 10.9    0.011    0.016    0.011    0.016
 qs_init_subsys                       1  2.0    0.002    0.002    0.015    0.016
 xc_functional_eval                  19 11.0    0.000    0.000    0.013    0.014
 -------------------------------------------------------------------------------

 The number of warnings for this run is : 1
 
 -------------------------------------------------------------------------------
  **** **** ******  **  PROGRAM ENDED AT                 2025-08-03 20:32:18.641
 ***** ** ***  *** **   PROGRAM RAN ON                              i04r11c01s10
 **    ****   ******    PROGRAM RAN BY                                   di38fab
 ***** **    ** ** **   PROGRAM PROCESS ID                                259413
  **** **  *******  **  PROGRAM STOPPED IN /hppfs/scratch/04/di38fab/09_GTH/Delt
                                           a_Set/Be/TZVP-MOLOPT-PBE-GTH/8x8x8
