 DBCSR| CPU Multiplication driver                                           BLAS (U)
 DBCSR| Multrec recursion limit                                              512 (U)
 DBCSR| Multiplication stack size                                           1000 (D)
 DBCSR| Maximum elements for images                                    UNLIMITED (U)
 DBCSR| Multiplicative factor virtual images                                   1 (U)
 DBCSR| Use multiplication densification                                       T (D)
 DBCSR| Multiplication size stacks                                             3 (U)
 DBCSR| Use memory pool for CPU allocation                                     F (U)
 DBCSR| Number of 3D layers                                               SINGLE (U)
 DBCSR| Use MPI memory allocation                                              F (U)
 DBCSR| Use RMA algorithm                                                      F (U)
 DBCSR| Use Communication thread                                               T (U)
 DBCSR| Communication thread load                                             45 (D)
 DBCSR| MPI: My process id                                                     0
 DBCSR| MPI: Number of processes                                              16
 DBCSR| OMP: Current number of threads                                        12
 DBCSR| OMP: Max number of threads                                            12
 DBCSR| Split modifier for TAS multiplication algorithm                  1.0E+00 (U)


  **** **** ******  **  PROGRAM STARTED AT               2025-08-05 23:16:35.356
 ***** ** ***  *** **   PROGRAM STARTED ON                          i04r08c03s06
 **    ****   ******    PROGRAM STARTED BY                               di38fab
 ***** **    ** ** **   PROGRAM PROCESS ID                               2177291
  **** **  *******  **  PROGRAM STARTED IN /hppfs/scratch/04/di38fab/09_GTH/Delt
                                           a_Set/Rb/aug-TZVP-MOLOPT-GTH-tier-2/8
                                           x8x8

 CP2K| version string:                 CP2K version 2025.1 (Development Version)
 CP2K| source code revision number:                                  git:3130539
 CP2K| cp2kflags: omp libint fftw3 libxc parallel scalapack max_contr=4         
 CP2K| is freely available from                            https://www.cp2k.org/
 CP2K| Program compiled at                         Tue Jun  3 16:14:32 CEST 2025
 CP2K| Program compiled on                                               login01
 CP2K| Program compiled for                                        Supermuc-foss
 CP2K| Data directory path                  /hppfs/work/pn36zo/di38fab/cp2k/data
 CP2K| Input file name                                                    GW.inp

 GLOBAL| Force Environment number                                              1
 GLOBAL| Basis set file name            /hppfs/scratch/04/di38fab/09_GTH/BASIS_A
 GLOBAL| Potential file name            /hppfs/work/pn36zo/di38fab/cp2k/data/GTH
 GLOBAL| MM Potential file name                                     MM_POTENTIAL
 GLOBAL| Coordinate file name                                             Rb.cif
 GLOBAL| Method name                                                        CP2K
 GLOBAL| Project name                                                       WSe2
 GLOBAL| Run type                                                         ENERGY
 GLOBAL| FFT library                                                       FFTW3
 GLOBAL| Diagonalization library                                       ScaLAPACK
 GLOBAL| Cholesky decomposition library                                ScaLAPACK
 GLOBAL| DGEMM library                                                      BLAS
 GLOBAL| Orthonormality check for eigenvectors                          DISABLED
 GLOBAL| Matrix multiplication library                                 ScaLAPACK
 GLOBAL| All-to-all communication in single precision                          F
 GLOBAL| FFTs using library dependent lengths                                  F
 GLOBAL| Grid backend                                                       AUTO
 GLOBAL| Global print level                                               MEDIUM
 GLOBAL| MPI I/O enabled                                                       T
 GLOBAL| Total number of message passing processes                            16
 GLOBAL| Number of threads for this process                                   12
 GLOBAL| This output is from process                                           0
 GLOBAL| OpenMP stack size per thread (OMP_STACKSIZE)                    default
 GLOBAL| CPU model name             Intel(R) Xeon(R) Platinum 8174 CPU @ 3.10GHz

 MEMORY| system memory details [Kb]
 MEMORY|                        rank 0           min           max       average
 MEMORY| MemTotal             98436664      98436664      98436712      98436676
 MEMORY| MemFree              84732820      84349332      84732820      84582365
 MEMORY| Buffers                     0             0             0             0
 MEMORY| Cached                2418348       2373828       2418348       2392848
 MEMORY| Slab                  1267068       1262504       1284076       1272994
 MEMORY| SReclaimable           277692        274288        286084        279053
 MEMORY| MemLikelyFree        87428860      87027984      87428860      87254266


 *** Fundamental physical constants (SI units) ***

 *** Literature: B. J. Mohr and B. N. Taylor,
 ***             CODATA recommended values of the fundamental physical
 ***             constants: 2006, Web Version 5.1
 ***             http://physics.nist.gov/constants

 Speed of light in vacuum [m/s]                             2.99792458000000E+08
 Magnetic constant or permeability of vacuum [N/A**2]       1.25663706143592E-06
 Electric constant or permittivity of vacuum [F/m]          8.85418781762039E-12
 Planck constant (h) [J*s]                                  6.62606896000000E-34
 Planck constant (h-bar) [J*s]                              1.05457162825177E-34
 Elementary charge [C]                                      1.60217648700000E-19
 Electron mass [kg]                                         9.10938215000000E-31
 Electron g factor [ ]                                     -2.00231930436220E+00
 Proton mass [kg]                                           1.67262163700000E-27
 Fine-structure constant                                    7.29735253760000E-03
 Rydberg constant [1/m]                                     1.09737315685270E+07
 Avogadro constant [1/mol]                                  6.02214179000000E+23
 Boltzmann constant [J/K]                                   1.38065040000000E-23
 Atomic mass unit [kg]                                      1.66053878200000E-27
 Bohr radius [m]                                            5.29177208590000E-11

 *** Conversion factors ***

 [u] -> [a.u.]                                              1.82288848426455E+03
 [Angstrom] -> [Bohr] = [a.u.]                              1.88972613288564E+00
 [a.u.] = [Bohr] -> [Angstrom]                              5.29177208590000E-01
 [a.u.] -> [s]                                              2.41888432650478E-17
 [a.u.] -> [fs]                                             2.41888432650478E-02
 [a.u.] -> [J]                                              4.35974393937059E-18
 [a.u.] -> [N]                                              8.23872205491840E-08
 [a.u.] -> [K]                                              3.15774647902944E+05
 [a.u.] -> [kJ/mol]                                         2.62549961709828E+03
 [a.u.] -> [kcal/mol]                                       6.27509468713739E+02
 [a.u.] -> [Pa]                                             2.94210107994716E+13
 [a.u.] -> [bar]                                            2.94210107994716E+08
 [a.u.] -> [atm]                                            2.90362800883016E+08
 [a.u.] -> [eV]                                             2.72113838565563E+01
 [a.u.] -> [Hz]                                             6.57968392072181E+15
 [a.u.] -> [1/cm] (wave numbers)                            2.19474631370540E+05
 [a.u./Bohr**2] -> [1/cm]                                   5.14048714338585E+03
 

 CELL_TOP| Volume [angstrom^3]:                                       182.474329
 CELL_TOP| Vector a [angstrom     5.672     0.000     0.000   |a| =     5.671970
 CELL_TOP| Vector b [angstrom     0.000     5.672     0.000   |b| =     5.671970
 CELL_TOP| Vector c [angstrom     0.000     0.000     5.672   |c| =     5.671970
 CELL_TOP| Angle (b,c), alpha [degree]:                                90.000000
 CELL_TOP| Angle (a,c), beta  [degree]:                                90.000000
 CELL_TOP| Angle (a,b), gamma [degree]:                                90.000000
 CELL_TOP| Numerically orthorhombic:                                         YES
 CELL_TOP| Periodicity                                                       XYZ

 CELL_CIF| Volume [angstrom^3]:                                       182.474329
 CELL_CIF| Vector a [angstrom     5.672     0.000     0.000   |a| =     5.671970
 CELL_CIF| Vector b [angstrom     0.000     5.672     0.000   |b| =     5.671970
 CELL_CIF| Vector c [angstrom     0.000     0.000     5.672   |c| =     5.671970
 CELL_CIF| Angle (b,c), alpha [degree]:                                90.000000
 CELL_CIF| Angle (a,c), beta  [degree]:                                90.000000
 CELL_CIF| Angle (a,b), gamma [degree]:                                90.000000
 CELL_CIF| Numerically orthorhombic:                                         YES
 CELL_CIF| Periodicity                                                       XYZ

 GENERATE|  Preliminary Number of Bonds generated:                             0
 GENERATE|  Achieved consistency in connectivity generation.

 CELL| Volume [angstrom^3]:                                           182.474329
 CELL| Vector a [angstrom]:       5.672     0.000     0.000   |a| =     5.671970
 CELL| Vector b [angstrom]:       0.000     5.672     0.000   |b| =     5.671970
 CELL| Vector c [angstrom]:       0.000     0.000     5.672   |c| =     5.671970
 CELL| Angle (b,c), alpha [degree]:                                    90.000000
 CELL| Angle (a,c), beta  [degree]:                                    90.000000
 CELL| Angle (a,b), gamma [degree]:                                    90.000000
 CELL| Numerically orthorhombic:                                             YES
 CELL| Periodicity                                                           XYZ

 CELL_REF| Volume [angstrom^3]:                                       182.474329
 CELL_REF| Vector a [angstrom     5.672     0.000     0.000   |a| =     5.671970
 CELL_REF| Vector b [angstrom     0.000     5.672     0.000   |b| =     5.671970
 CELL_REF| Vector c [angstrom     0.000     0.000     5.672   |c| =     5.671970
 CELL_REF| Angle (b,c), alpha [degree]:                                90.000000
 CELL_REF| Angle (a,c), beta  [degree]:                                90.000000
 CELL_REF| Angle (a,b), gamma [degree]:                                90.000000
 CELL_REF| Numerically orthorhombic:                                         YES
 CELL_REF| Periodicity                                                       XYZ

 *** WARNING in cryssym.F:180 :: Symmetry library SPGLIB not available ***


 *******************************************************************************
                                    Kpoints
 *******************************************************************************
 BRILLOUIN| K-point scheme                                        Monkhorst-Pack
 BRILLOUIN| K-Point grid                                             8    8    8
 BRILLOUIN| Accuracy in Symmetry determination                      0.100000E-05
 BRILLOUIN| K-Point point group symmetrization                               OFF
 BRILLOUIN| Wavefunction type                                            COMPLEX
 BRILLOUIN| List of Kpoints [2 Pi/Bohr]                                      256
 BRILLOUIN| Number           Weight            X              Y              Z
 BRILLOUIN|     1           0.00391       -0.43750       -0.43750       -0.43750
 BRILLOUIN|     2           0.00391       -0.43750       -0.43750       -0.31250
 BRILLOUIN|     3           0.00391       -0.43750       -0.43750       -0.18750
 BRILLOUIN|     4           0.00391       -0.43750       -0.43750       -0.06250
 BRILLOUIN|     5           0.00391       -0.43750       -0.43750        0.06250
 BRILLOUIN|     6           0.00391       -0.43750       -0.43750        0.18750
 BRILLOUIN|     7           0.00391       -0.43750       -0.43750        0.31250
 BRILLOUIN|     8           0.00391       -0.43750       -0.43750        0.43750
 BRILLOUIN|     9           0.00391       -0.43750       -0.31250       -0.43750
 BRILLOUIN|    10           0.00391       -0.43750       -0.31250       -0.31250
 BRILLOUIN|    11           0.00391       -0.43750       -0.31250       -0.18750
 BRILLOUIN|    12           0.00391       -0.43750       -0.31250       -0.06250
 BRILLOUIN|    13           0.00391       -0.43750       -0.31250        0.06250
 BRILLOUIN|    14           0.00391       -0.43750       -0.31250        0.18750
 BRILLOUIN|    15           0.00391       -0.43750       -0.31250        0.31250
 BRILLOUIN|    16           0.00391       -0.43750       -0.31250        0.43750
 BRILLOUIN|    17           0.00391       -0.43750       -0.18750       -0.43750
 BRILLOUIN|    18           0.00391       -0.43750       -0.18750       -0.31250
 BRILLOUIN|    19           0.00391       -0.43750       -0.18750       -0.18750
 BRILLOUIN|    20           0.00391       -0.43750       -0.18750       -0.06250
 BRILLOUIN|    21           0.00391       -0.43750       -0.18750        0.06250
 BRILLOUIN|    22           0.00391       -0.43750       -0.18750        0.18750
 BRILLOUIN|    23           0.00391       -0.43750       -0.18750        0.31250
 BRILLOUIN|    24           0.00391       -0.43750       -0.18750        0.43750
 BRILLOUIN|    25           0.00391       -0.43750       -0.06250       -0.43750
 BRILLOUIN|    26           0.00391       -0.43750       -0.06250       -0.31250
 BRILLOUIN|    27           0.00391       -0.43750       -0.06250       -0.18750
 BRILLOUIN|    28           0.00391       -0.43750       -0.06250       -0.06250
 BRILLOUIN|    29           0.00391       -0.43750       -0.06250        0.06250
 BRILLOUIN|    30           0.00391       -0.43750       -0.06250        0.18750
 BRILLOUIN|    31           0.00391       -0.43750       -0.06250        0.31250
 BRILLOUIN|    32           0.00391       -0.43750       -0.06250        0.43750
 BRILLOUIN|    33           0.00391       -0.43750        0.06250       -0.43750
 BRILLOUIN|    34           0.00391       -0.43750        0.06250       -0.31250
 BRILLOUIN|    35           0.00391       -0.43750        0.06250       -0.18750
 BRILLOUIN|    36           0.00391       -0.43750        0.06250       -0.06250
 BRILLOUIN|    37           0.00391       -0.43750        0.06250        0.06250
 BRILLOUIN|    38           0.00391       -0.43750        0.06250        0.18750
 BRILLOUIN|    39           0.00391       -0.43750        0.06250        0.31250
 BRILLOUIN|    40           0.00391       -0.43750        0.06250        0.43750
 BRILLOUIN|    41           0.00391       -0.43750        0.18750       -0.43750
 BRILLOUIN|    42           0.00391       -0.43750        0.18750       -0.31250
 BRILLOUIN|    43           0.00391       -0.43750        0.18750       -0.18750
 BRILLOUIN|    44           0.00391       -0.43750        0.18750       -0.06250
 BRILLOUIN|    45           0.00391       -0.43750        0.18750        0.06250
 BRILLOUIN|    46           0.00391       -0.43750        0.18750        0.18750
 BRILLOUIN|    47           0.00391       -0.43750        0.18750        0.31250
 BRILLOUIN|    48           0.00391       -0.43750        0.18750        0.43750
 BRILLOUIN|    49           0.00391       -0.43750        0.31250       -0.43750
 BRILLOUIN|    50           0.00391       -0.43750        0.31250       -0.31250
 BRILLOUIN|    51           0.00391       -0.43750        0.31250       -0.18750
 BRILLOUIN|    52           0.00391       -0.43750        0.31250       -0.06250
 BRILLOUIN|    53           0.00391       -0.43750        0.31250        0.06250
 BRILLOUIN|    54           0.00391       -0.43750        0.31250        0.18750
 BRILLOUIN|    55           0.00391       -0.43750        0.31250        0.31250
 BRILLOUIN|    56           0.00391       -0.43750        0.31250        0.43750
 BRILLOUIN|    57           0.00391       -0.43750        0.43750       -0.43750
 BRILLOUIN|    58           0.00391       -0.43750        0.43750       -0.31250
 BRILLOUIN|    59           0.00391       -0.43750        0.43750       -0.18750
 BRILLOUIN|    60           0.00391       -0.43750        0.43750       -0.06250
 BRILLOUIN|    61           0.00391       -0.43750        0.43750        0.06250
 BRILLOUIN|    62           0.00391       -0.43750        0.43750        0.18750
 BRILLOUIN|    63           0.00391       -0.43750        0.43750        0.31250
 BRILLOUIN|    64           0.00391       -0.43750        0.43750        0.43750
 BRILLOUIN|    65           0.00391       -0.31250       -0.43750       -0.43750
 BRILLOUIN|    66           0.00391       -0.31250       -0.43750       -0.31250
 BRILLOUIN|    67           0.00391       -0.31250       -0.43750       -0.18750
 BRILLOUIN|    68           0.00391       -0.31250       -0.43750       -0.06250
 BRILLOUIN|    69           0.00391       -0.31250       -0.43750        0.06250
 BRILLOUIN|    70           0.00391       -0.31250       -0.43750        0.18750
 BRILLOUIN|    71           0.00391       -0.31250       -0.43750        0.31250
 BRILLOUIN|    72           0.00391       -0.31250       -0.43750        0.43750
 BRILLOUIN|    73           0.00391       -0.31250       -0.31250       -0.43750
 BRILLOUIN|    74           0.00391       -0.31250       -0.31250       -0.31250
 BRILLOUIN|    75           0.00391       -0.31250       -0.31250       -0.18750
 BRILLOUIN|    76           0.00391       -0.31250       -0.31250       -0.06250
 BRILLOUIN|    77           0.00391       -0.31250       -0.31250        0.06250
 BRILLOUIN|    78           0.00391       -0.31250       -0.31250        0.18750
 BRILLOUIN|    79           0.00391       -0.31250       -0.31250        0.31250
 BRILLOUIN|    80           0.00391       -0.31250       -0.31250        0.43750
 BRILLOUIN|    81           0.00391       -0.31250       -0.18750       -0.43750
 BRILLOUIN|    82           0.00391       -0.31250       -0.18750       -0.31250
 BRILLOUIN|    83           0.00391       -0.31250       -0.18750       -0.18750
 BRILLOUIN|    84           0.00391       -0.31250       -0.18750       -0.06250
 BRILLOUIN|    85           0.00391       -0.31250       -0.18750        0.06250
 BRILLOUIN|    86           0.00391       -0.31250       -0.18750        0.18750
 BRILLOUIN|    87           0.00391       -0.31250       -0.18750        0.31250
 BRILLOUIN|    88           0.00391       -0.31250       -0.18750        0.43750
 BRILLOUIN|    89           0.00391       -0.31250       -0.06250       -0.43750
 BRILLOUIN|    90           0.00391       -0.31250       -0.06250       -0.31250
 BRILLOUIN|    91           0.00391       -0.31250       -0.06250       -0.18750
 BRILLOUIN|    92           0.00391       -0.31250       -0.06250       -0.06250
 BRILLOUIN|    93           0.00391       -0.31250       -0.06250        0.06250
 BRILLOUIN|    94           0.00391       -0.31250       -0.06250        0.18750
 BRILLOUIN|    95           0.00391       -0.31250       -0.06250        0.31250
 BRILLOUIN|    96           0.00391       -0.31250       -0.06250        0.43750
 BRILLOUIN|    97           0.00391       -0.31250        0.06250       -0.43750
 BRILLOUIN|    98           0.00391       -0.31250        0.06250       -0.31250
 BRILLOUIN|    99           0.00391       -0.31250        0.06250       -0.18750
 BRILLOUIN|   100           0.00391       -0.31250        0.06250       -0.06250
 BRILLOUIN|   101           0.00391       -0.31250        0.06250        0.06250
 BRILLOUIN|   102           0.00391       -0.31250        0.06250        0.18750
 BRILLOUIN|   103           0.00391       -0.31250        0.06250        0.31250
 BRILLOUIN|   104           0.00391       -0.31250        0.06250        0.43750
 BRILLOUIN|   105           0.00391       -0.31250        0.18750       -0.43750
 BRILLOUIN|   106           0.00391       -0.31250        0.18750       -0.31250
 BRILLOUIN|   107           0.00391       -0.31250        0.18750       -0.18750
 BRILLOUIN|   108           0.00391       -0.31250        0.18750       -0.06250
 BRILLOUIN|   109           0.00391       -0.31250        0.18750        0.06250
 BRILLOUIN|   110           0.00391       -0.31250        0.18750        0.18750
 BRILLOUIN|   111           0.00391       -0.31250        0.18750        0.31250
 BRILLOUIN|   112           0.00391       -0.31250        0.18750        0.43750
 BRILLOUIN|   113           0.00391       -0.31250        0.31250       -0.43750
 BRILLOUIN|   114           0.00391       -0.31250        0.31250       -0.31250
 BRILLOUIN|   115           0.00391       -0.31250        0.31250       -0.18750
 BRILLOUIN|   116           0.00391       -0.31250        0.31250       -0.06250
 BRILLOUIN|   117           0.00391       -0.31250        0.31250        0.06250
 BRILLOUIN|   118           0.00391       -0.31250        0.31250        0.18750
 BRILLOUIN|   119           0.00391       -0.31250        0.31250        0.31250
 BRILLOUIN|   120           0.00391       -0.31250        0.31250        0.43750
 BRILLOUIN|   121           0.00391       -0.31250        0.43750       -0.43750
 BRILLOUIN|   122           0.00391       -0.31250        0.43750       -0.31250
 BRILLOUIN|   123           0.00391       -0.31250        0.43750       -0.18750
 BRILLOUIN|   124           0.00391       -0.31250        0.43750       -0.06250
 BRILLOUIN|   125           0.00391       -0.31250        0.43750        0.06250
 BRILLOUIN|   126           0.00391       -0.31250        0.43750        0.18750
 BRILLOUIN|   127           0.00391       -0.31250        0.43750        0.31250
 BRILLOUIN|   128           0.00391       -0.31250        0.43750        0.43750
 BRILLOUIN|   129           0.00391       -0.18750       -0.43750       -0.43750
 BRILLOUIN|   130           0.00391       -0.18750       -0.43750       -0.31250
 BRILLOUIN|   131           0.00391       -0.18750       -0.43750       -0.18750
 BRILLOUIN|   132           0.00391       -0.18750       -0.43750       -0.06250
 BRILLOUIN|   133           0.00391       -0.18750       -0.43750        0.06250
 BRILLOUIN|   134           0.00391       -0.18750       -0.43750        0.18750
 BRILLOUIN|   135           0.00391       -0.18750       -0.43750        0.31250
 BRILLOUIN|   136           0.00391       -0.18750       -0.43750        0.43750
 BRILLOUIN|   137           0.00391       -0.18750       -0.31250       -0.43750
 BRILLOUIN|   138           0.00391       -0.18750       -0.31250       -0.31250
 BRILLOUIN|   139           0.00391       -0.18750       -0.31250       -0.18750
 BRILLOUIN|   140           0.00391       -0.18750       -0.31250       -0.06250
 BRILLOUIN|   141           0.00391       -0.18750       -0.31250        0.06250
 BRILLOUIN|   142           0.00391       -0.18750       -0.31250        0.18750
 BRILLOUIN|   143           0.00391       -0.18750       -0.31250        0.31250
 BRILLOUIN|   144           0.00391       -0.18750       -0.31250        0.43750
 BRILLOUIN|   145           0.00391       -0.18750       -0.18750       -0.43750
 BRILLOUIN|   146           0.00391       -0.18750       -0.18750       -0.31250
 BRILLOUIN|   147           0.00391       -0.18750       -0.18750       -0.18750
 BRILLOUIN|   148           0.00391       -0.18750       -0.18750       -0.06250
 BRILLOUIN|   149           0.00391       -0.18750       -0.18750        0.06250
 BRILLOUIN|   150           0.00391       -0.18750       -0.18750        0.18750
 BRILLOUIN|   151           0.00391       -0.18750       -0.18750        0.31250
 BRILLOUIN|   152           0.00391       -0.18750       -0.18750        0.43750
 BRILLOUIN|   153           0.00391       -0.18750       -0.06250       -0.43750
 BRILLOUIN|   154           0.00391       -0.18750       -0.06250       -0.31250
 BRILLOUIN|   155           0.00391       -0.18750       -0.06250       -0.18750
 BRILLOUIN|   156           0.00391       -0.18750       -0.06250       -0.06250
 BRILLOUIN|   157           0.00391       -0.18750       -0.06250        0.06250
 BRILLOUIN|   158           0.00391       -0.18750       -0.06250        0.18750
 BRILLOUIN|   159           0.00391       -0.18750       -0.06250        0.31250
 BRILLOUIN|   160           0.00391       -0.18750       -0.06250        0.43750
 BRILLOUIN|   161           0.00391       -0.18750        0.06250       -0.43750
 BRILLOUIN|   162           0.00391       -0.18750        0.06250       -0.31250
 BRILLOUIN|   163           0.00391       -0.18750        0.06250       -0.18750
 BRILLOUIN|   164           0.00391       -0.18750        0.06250       -0.06250
 BRILLOUIN|   165           0.00391       -0.18750        0.06250        0.06250
 BRILLOUIN|   166           0.00391       -0.18750        0.06250        0.18750
 BRILLOUIN|   167           0.00391       -0.18750        0.06250        0.31250
 BRILLOUIN|   168           0.00391       -0.18750        0.06250        0.43750
 BRILLOUIN|   169           0.00391       -0.18750        0.18750       -0.43750
 BRILLOUIN|   170           0.00391       -0.18750        0.18750       -0.31250
 BRILLOUIN|   171           0.00391       -0.18750        0.18750       -0.18750
 BRILLOUIN|   172           0.00391       -0.18750        0.18750       -0.06250
 BRILLOUIN|   173           0.00391       -0.18750        0.18750        0.06250
 BRILLOUIN|   174           0.00391       -0.18750        0.18750        0.18750
 BRILLOUIN|   175           0.00391       -0.18750        0.18750        0.31250
 BRILLOUIN|   176           0.00391       -0.18750        0.18750        0.43750
 BRILLOUIN|   177           0.00391       -0.18750        0.31250       -0.43750
 BRILLOUIN|   178           0.00391       -0.18750        0.31250       -0.31250
 BRILLOUIN|   179           0.00391       -0.18750        0.31250       -0.18750
 BRILLOUIN|   180           0.00391       -0.18750        0.31250       -0.06250
 BRILLOUIN|   181           0.00391       -0.18750        0.31250        0.06250
 BRILLOUIN|   182           0.00391       -0.18750        0.31250        0.18750
 BRILLOUIN|   183           0.00391       -0.18750        0.31250        0.31250
 BRILLOUIN|   184           0.00391       -0.18750        0.31250        0.43750
 BRILLOUIN|   185           0.00391       -0.18750        0.43750       -0.43750
 BRILLOUIN|   186           0.00391       -0.18750        0.43750       -0.31250
 BRILLOUIN|   187           0.00391       -0.18750        0.43750       -0.18750
 BRILLOUIN|   188           0.00391       -0.18750        0.43750       -0.06250
 BRILLOUIN|   189           0.00391       -0.18750        0.43750        0.06250
 BRILLOUIN|   190           0.00391       -0.18750        0.43750        0.18750
 BRILLOUIN|   191           0.00391       -0.18750        0.43750        0.31250
 BRILLOUIN|   192           0.00391       -0.18750        0.43750        0.43750
 BRILLOUIN|   193           0.00391       -0.06250       -0.43750       -0.43750
 BRILLOUIN|   194           0.00391       -0.06250       -0.43750       -0.31250
 BRILLOUIN|   195           0.00391       -0.06250       -0.43750       -0.18750
 BRILLOUIN|   196           0.00391       -0.06250       -0.43750       -0.06250
 BRILLOUIN|   197           0.00391       -0.06250       -0.43750        0.06250
 BRILLOUIN|   198           0.00391       -0.06250       -0.43750        0.18750
 BRILLOUIN|   199           0.00391       -0.06250       -0.43750        0.31250
 BRILLOUIN|   200           0.00391       -0.06250       -0.43750        0.43750
 BRILLOUIN|   201           0.00391       -0.06250       -0.31250       -0.43750
 BRILLOUIN|   202           0.00391       -0.06250       -0.31250       -0.31250
 BRILLOUIN|   203           0.00391       -0.06250       -0.31250       -0.18750
 BRILLOUIN|   204           0.00391       -0.06250       -0.31250       -0.06250
 BRILLOUIN|   205           0.00391       -0.06250       -0.31250        0.06250
 BRILLOUIN|   206           0.00391       -0.06250       -0.31250        0.18750
 BRILLOUIN|   207           0.00391       -0.06250       -0.31250        0.31250
 BRILLOUIN|   208           0.00391       -0.06250       -0.31250        0.43750
 BRILLOUIN|   209           0.00391       -0.06250       -0.18750       -0.43750
 BRILLOUIN|   210           0.00391       -0.06250       -0.18750       -0.31250
 BRILLOUIN|   211           0.00391       -0.06250       -0.18750       -0.18750
 BRILLOUIN|   212           0.00391       -0.06250       -0.18750       -0.06250
 BRILLOUIN|   213           0.00391       -0.06250       -0.18750        0.06250
 BRILLOUIN|   214           0.00391       -0.06250       -0.18750        0.18750
 BRILLOUIN|   215           0.00391       -0.06250       -0.18750        0.31250
 BRILLOUIN|   216           0.00391       -0.06250       -0.18750        0.43750
 BRILLOUIN|   217           0.00391       -0.06250       -0.06250       -0.43750
 BRILLOUIN|   218           0.00391       -0.06250       -0.06250       -0.31250
 BRILLOUIN|   219           0.00391       -0.06250       -0.06250       -0.18750
 BRILLOUIN|   220           0.00391       -0.06250       -0.06250       -0.06250
 BRILLOUIN|   221           0.00391       -0.06250       -0.06250        0.06250
 BRILLOUIN|   222           0.00391       -0.06250       -0.06250        0.18750
 BRILLOUIN|   223           0.00391       -0.06250       -0.06250        0.31250
 BRILLOUIN|   224           0.00391       -0.06250       -0.06250        0.43750
 BRILLOUIN|   225           0.00391       -0.06250        0.06250       -0.43750
 BRILLOUIN|   226           0.00391       -0.06250        0.06250       -0.31250
 BRILLOUIN|   227           0.00391       -0.06250        0.06250       -0.18750
 BRILLOUIN|   228           0.00391       -0.06250        0.06250       -0.06250
 BRILLOUIN|   229           0.00391       -0.06250        0.06250        0.06250
 BRILLOUIN|   230           0.00391       -0.06250        0.06250        0.18750
 BRILLOUIN|   231           0.00391       -0.06250        0.06250        0.31250
 BRILLOUIN|   232           0.00391       -0.06250        0.06250        0.43750
 BRILLOUIN|   233           0.00391       -0.06250        0.18750       -0.43750
 BRILLOUIN|   234           0.00391       -0.06250        0.18750       -0.31250
 BRILLOUIN|   235           0.00391       -0.06250        0.18750       -0.18750
 BRILLOUIN|   236           0.00391       -0.06250        0.18750       -0.06250
 BRILLOUIN|   237           0.00391       -0.06250        0.18750        0.06250
 BRILLOUIN|   238           0.00391       -0.06250        0.18750        0.18750
 BRILLOUIN|   239           0.00391       -0.06250        0.18750        0.31250
 BRILLOUIN|   240           0.00391       -0.06250        0.18750        0.43750
 BRILLOUIN|   241           0.00391       -0.06250        0.31250       -0.43750
 BRILLOUIN|   242           0.00391       -0.06250        0.31250       -0.31250
 BRILLOUIN|   243           0.00391       -0.06250        0.31250       -0.18750
 BRILLOUIN|   244           0.00391       -0.06250        0.31250       -0.06250
 BRILLOUIN|   245           0.00391       -0.06250        0.31250        0.06250
 BRILLOUIN|   246           0.00391       -0.06250        0.31250        0.18750
 BRILLOUIN|   247           0.00391       -0.06250        0.31250        0.31250
 BRILLOUIN|   248           0.00391       -0.06250        0.31250        0.43750
 BRILLOUIN|   249           0.00391       -0.06250        0.43750       -0.43750
 BRILLOUIN|   250           0.00391       -0.06250        0.43750       -0.31250
 BRILLOUIN|   251           0.00391       -0.06250        0.43750       -0.18750
 BRILLOUIN|   252           0.00391       -0.06250        0.43750       -0.06250
 BRILLOUIN|   253           0.00391       -0.06250        0.43750        0.06250
 BRILLOUIN|   254           0.00391       -0.06250        0.43750        0.18750
 BRILLOUIN|   255           0.00391       -0.06250        0.43750        0.31250
 BRILLOUIN|   256           0.00391       -0.06250        0.43750        0.43750
 *******************************************************************************

 *******************************************************************************
 *******************************************************************************
 **                                                                           **
 **     #####                         ##              ##                      **
 **    ##   ##            ##          ##              ##                      **
 **   ##     ##                       ##            ######                    **
 **   ##     ##  ##   ##  ##   #####  ##  ##   ####   ##    #####    #####    **
 **   ##     ##  ##   ##  ##  ##      ## ##   ##      ##   ##   ##  ##   ##   **
 **   ##  ## ##  ##   ##  ##  ##      ####     ###    ##   ######   ######    **
 **    ##  ###   ##   ##  ##  ##      ## ##      ##   ##   ##       ##        **
 **     #######   #####   ##   #####  ##  ##  ####    ##    #####   ##        **
 **           ##                                                    ##        **
 **                                                                           **
 **                                                ... make the atoms dance   **
 **                                                                           **
 **            Copyright (C) by CP2K developers group (2000-2025)             **
 **                      J. Chem. Phys. 152, 194103 (2020)                    **
 **                                                                           **
 *******************************************************************************

 DFT| Spin restricted Kohn-Sham (RKS) calculation                            RKS
 DFT| Multiplicity                                                             1
 DFT| Number of spin states                                                    1
 DFT| Charge                                                                   0
 DFT| Self-interaction correction (SIC)                                       NO
 DFT| Cutoffs: density                                              1.000000E-10
 DFT|          gradient                                             1.000000E-10
 DFT|          tau                                                  1.000000E-10
 DFT|          cutoff_smoothing_range                               0.000000E+00
 DFT| XC density smoothing                                                  NONE
 DFT| XC derivatives                                                          PW

 FUNCTIONAL| PBE:
 FUNCTIONAL| J.P.Perdew, K.Burke, M.Ernzerhof, Phys. Rev. Letter, vol. 77, n 18,
 FUNCTIONAL|  pp. 3865-3868, (1996) {spin unpolarized}                          


 QS| Method:                                                                 GPW
 QS| Density plane wave grid type                        NON-SPHERICAL FULLSPACE
 QS| Number of grid levels:                                                    4
 QS| Density cutoff [a.u.]:                                                500.0
 QS| Multi grid cutoff [a.u.]: 1) grid level                               500.0
 QS|                           2) grid level                               166.7
 QS|                           3) grid level                                55.6
 QS|                           4) grid level                                18.5
 QS| Grid level progression factor:                                          3.0
 QS| Relative density cutoff [a.u.]:                                        50.0
 QS| Interaction thresholds: eps_pgf_orb:                                1.0E-16
 QS|                         eps_filter_matrix:                          0.0E+00
 QS|                         eps_core_charge:                            1.0E-18
 QS|                         eps_rho_gspace:                             1.0E-16
 QS|                         eps_rho_rspace:                             1.0E-16
 QS|                         eps_gvg_rspace:                             1.0E-08
 QS|                         eps_ppl:                                    1.0E-02
 QS|                         eps_ppnl:                                   1.0E-10


 ATOMIC KIND INFORMATION

  1. Atomic kind: Rb                                    Number of atoms:       2

     Orbital Basis Set                                aug-TZVP-MOLOPT-GTH-tier-2

       Number of orbital shell sets:                                           1
       Number of orbital shells:                                              13
       Number of primitive Cartesian functions:                                8
       Number of Cartesian basis functions:                                   45
       Number of spherical basis functions:                                   39
       Norm type:                                                              2

       Normalised Cartesian orbitals:

                        Set   Shell   Orbital            Exponent    Coefficient

                          1       1    2s                0.019000       0.000000
                                                         0.029824       0.025985
                                                         0.046961       0.015651
                                                         0.185743      -0.075093
                                                         0.487950      -0.396683
                                                         1.268799      -0.061533
                                                         2.423784       0.684020
                                                         6.901217      -0.193842

                          1       2    3s                0.019000       0.000000
                                                         0.029824       0.021630
                                                         0.046961       0.033252
                                                         0.185743       0.014449
                                                         0.487950       0.080072
                                                         1.268799       0.038968
                                                         2.423784      -0.280852
                                                         6.901217       0.087174

                          1       3    4s                0.019000       0.000000
                                                         0.029824       0.172018
                                                         0.046961      -0.254167
                                                         0.185743      -0.077566
                                                         0.487950       0.429921
                                                         1.268799       0.083557
                                                         2.423784      -0.251027
                                                         6.901217       0.025828

                          1       4    5s                0.019000       0.000000
                                                         0.029824       0.003471
                                                         0.046961       0.000288
                                                         0.185743       0.098641
                                                         0.487950       0.015018
                                                         1.268799       0.073113
                                                         2.423784       0.559351
                                                         6.901217       0.579309

                          1       5    6s                0.019000       0.080889
                                                         0.029824      -0.070658
                                                         0.046961      -0.104761
                                                         0.185743       0.111833
                                                         0.487950      -0.197279
                                                         1.268799       0.000000
                                                         2.423784       0.000000
                                                         6.901217       0.000000

                          1       6    3px               0.019000       0.000000
                                                         0.029824      -0.005127
                                                         0.046961      -0.007458
                                                         0.185743       0.054719
                                                         0.487950       0.392725
                                                         1.268799       0.446329
                                                         2.423784      -0.880716
                                                         6.901217       0.703764
                          1       6    3py               0.019000       0.000000
                                                         0.029824      -0.005127
                                                         0.046961      -0.007458
                                                         0.185743       0.054719
                                                         0.487950       0.392725
                                                         1.268799       0.446329
                                                         2.423784      -0.880716
                                                         6.901217       0.703764
                          1       6    3pz               0.019000       0.000000
                                                         0.029824      -0.005127
                                                         0.046961      -0.007458
                                                         0.185743       0.054719
                                                         0.487950       0.392725
                                                         1.268799       0.446329
                                                         2.423784      -0.880716
                                                         6.901217       0.703764

                          1       7    4px               0.019000       0.000000
                                                         0.029824       0.007050
                                                         0.046961       0.012821
                                                         0.185743       0.036112
                                                         0.487950       0.095610
                                                         1.268799       0.169936
                                                         2.423784      -0.346381
                                                         6.901217       0.277068
                          1       7    4py               0.019000       0.000000
                                                         0.029824       0.007050
                                                         0.046961       0.012821
                                                         0.185743       0.036112
                                                         0.487950       0.095610
                                                         1.268799       0.169936
                                                         2.423784      -0.346381
                                                         6.901217       0.277068
                          1       7    4pz               0.019000       0.000000
                                                         0.029824       0.007050
                                                         0.046961       0.012821
                                                         0.185743       0.036112
                                                         0.487950       0.095610
                                                         1.268799       0.169936
                                                         2.423784      -0.346381
                                                         6.901217       0.277068

                          1       8    5px               0.019000       0.000000
                                                         0.029824      -0.003937
                                                         0.046961      -0.002637
                                                         0.185743       0.086445
                                                         0.487950      -0.696719
                                                         1.268799       3.892599
                                                         2.423784      -2.000761
                                                         6.901217       0.656498
                          1       8    5py               0.019000       0.000000
                                                         0.029824      -0.003937
                                                         0.046961      -0.002637
                                                         0.185743       0.086445
                                                         0.487950      -0.696719
                                                         1.268799       3.892599
                                                         2.423784      -2.000761
                                                         6.901217       0.656498
                          1       8    5pz               0.019000       0.000000
                                                         0.029824      -0.003937
                                                         0.046961      -0.002637
                                                         0.185743       0.086445
                                                         0.487950      -0.696719
                                                         1.268799       3.892599
                                                         2.423784      -2.000761
                                                         6.901217       0.656498

                          1       9    6px               0.019000       0.009240
                                                         0.029824      -0.006331
                                                         0.046961       0.016228
                                                         0.185743      -0.002477
                                                         0.487950      -0.028643
                                                         1.268799       0.000000
                                                         2.423784       0.000000
                                                         6.901217       0.000000
                          1       9    6py               0.019000       0.009240
                                                         0.029824      -0.006331
                                                         0.046961       0.016228
                                                         0.185743      -0.002477
                                                         0.487950      -0.028643
                                                         1.268799       0.000000
                                                         2.423784       0.000000
                                                         6.901217       0.000000
                          1       9    6pz               0.019000       0.009240
                                                         0.029824      -0.006331
                                                         0.046961       0.016228
                                                         0.185743      -0.002477
                                                         0.487950      -0.028643
                                                         1.268799       0.000000
                                                         2.423784       0.000000
                                                         6.901217       0.000000

                          1      10    4dx2              0.019000       0.000000
                                                         0.029824       0.000039
                                                         0.046961       0.004122
                                                         0.185743       0.040021
                                                         0.487950       0.103778
                                                         1.268799       0.238891
                                                         2.423784      -0.361714
                                                         6.901217       0.953009
                          1      10    4dxy              0.019000       0.000000
                                                         0.029824       0.000068
                                                         0.046961       0.007139
                                                         0.185743       0.069318
                                                         0.487950       0.179748
                                                         1.268799       0.413772
                                                         2.423784      -0.626507
                                                         6.901217       1.650660
                          1      10    4dxz              0.019000       0.000000
                                                         0.029824       0.000068
                                                         0.046961       0.007139
                                                         0.185743       0.069318
                                                         0.487950       0.179748
                                                         1.268799       0.413772
                                                         2.423784      -0.626507
                                                         6.901217       1.650660
                          1      10    4dy2              0.019000       0.000000
                                                         0.029824       0.000039
                                                         0.046961       0.004122
                                                         0.185743       0.040021
                                                         0.487950       0.103778
                                                         1.268799       0.238891
                                                         2.423784      -0.361714
                                                         6.901217       0.953009
                          1      10    4dyz              0.019000       0.000000
                                                         0.029824       0.000068
                                                         0.046961       0.007139
                                                         0.185743       0.069318
                                                         0.487950       0.179748
                                                         1.268799       0.413772
                                                         2.423784      -0.626507
                                                         6.901217       1.650660
                          1      10    4dz2              0.019000       0.000000
                                                         0.029824       0.000039
                                                         0.046961       0.004122
                                                         0.185743       0.040021
                                                         0.487950       0.103778
                                                         1.268799       0.238891
                                                         2.423784      -0.361714
                                                         6.901217       0.953009

                          1      11    5dx2              0.019000       0.000000
                                                         0.029824       0.001550
                                                         0.046961       0.003316
                                                         0.185743      -0.022480
                                                         0.487950      -0.256092
                                                         1.268799       0.153280
                                                         2.423784      -0.756938
                                                         6.901217       2.536529
                          1      11    5dxy              0.019000       0.000000
                                                         0.029824       0.002685
                                                         0.046961       0.005743
                                                         0.185743      -0.038936
                                                         0.487950      -0.443564
                                                         1.268799       0.265489
                                                         2.423784      -1.311056
                                                         6.901217       4.393398
                          1      11    5dxz              0.019000       0.000000
                                                         0.029824       0.002685
                                                         0.046961       0.005743
                                                         0.185743      -0.038936
                                                         0.487950      -0.443564
                                                         1.268799       0.265489
                                                         2.423784      -1.311056
                                                         6.901217       4.393398
                          1      11    5dy2              0.019000       0.000000
                                                         0.029824       0.001550
                                                         0.046961       0.003316
                                                         0.185743      -0.022480
                                                         0.487950      -0.256092
                                                         1.268799       0.153280
                                                         2.423784      -0.756938
                                                         6.901217       2.536529
                          1      11    5dyz              0.019000       0.000000
                                                         0.029824       0.002685
                                                         0.046961       0.005743
                                                         0.185743      -0.038936
                                                         0.487950      -0.443564
                                                         1.268799       0.265489
                                                         2.423784      -1.311056
                                                         6.901217       4.393398
                          1      11    5dz2              0.019000       0.000000
                                                         0.029824       0.001550
                                                         0.046961       0.003316
                                                         0.185743      -0.022480
                                                         0.487950      -0.256092
                                                         1.268799       0.153280
                                                         2.423784      -0.756938
                                                         6.901217       2.536529

                          1      12    6dx2              0.019000       0.001643
                                                         0.029824      -0.000419
                                                         0.046961       0.000918
                                                         0.185743      -0.000657
                                                         0.487950      -0.008671
                                                         1.268799       0.000000
                                                         2.423784       0.000000
                                                         6.901217       0.000000
                          1      12    6dxy              0.019000       0.002846
                                                         0.029824      -0.000727
                                                         0.046961       0.001590
                                                         0.185743      -0.001138
                                                         0.487950      -0.015019
                                                         1.268799       0.000000
                                                         2.423784       0.000000
                                                         6.901217       0.000000
                          1      12    6dxz              0.019000       0.002846
                                                         0.029824      -0.000727
                                                         0.046961       0.001590
                                                         0.185743      -0.001138
                                                         0.487950      -0.015019
                                                         1.268799       0.000000
                                                         2.423784       0.000000
                                                         6.901217       0.000000
                          1      12    6dy2              0.019000       0.001643
                                                         0.029824      -0.000419
                                                         0.046961       0.000918
                                                         0.185743      -0.000657
                                                         0.487950      -0.008671
                                                         1.268799       0.000000
                                                         2.423784       0.000000
                                                         6.901217       0.000000
                          1      12    6dyz              0.019000       0.002846
                                                         0.029824      -0.000727
                                                         0.046961       0.001590
                                                         0.185743      -0.001138
                                                         0.487950      -0.015019
                                                         1.268799       0.000000
                                                         2.423784       0.000000
                                                         6.901217       0.000000
                          1      12    6dz2              0.019000       0.001643
                                                         0.029824      -0.000419
                                                         0.046961       0.000918
                                                         0.185743      -0.000657
                                                         0.487950      -0.008671
                                                         1.268799       0.000000
                                                         2.423784       0.000000
                                                         6.901217       0.000000

                          1      13    5fx3              0.019000      -0.000302
                                                         0.029824       0.000324
                                                         0.046961       0.000144
                                                         0.185743      -0.000907
                                                         0.487950       0.021734
                                                         1.268799       0.000000
                                                         2.423784       0.000000
                                                         6.901217       0.000000
                          1      13    5fx2y             0.019000      -0.000676
                                                         0.029824       0.000725
                                                         0.046961       0.000322
                                                         0.185743      -0.002027
                                                         0.487950       0.048599
                                                         1.268799       0.000000
                                                         2.423784       0.000000
                                                         6.901217       0.000000
                          1      13    5fx2z             0.019000      -0.000676
                                                         0.029824       0.000725
                                                         0.046961       0.000322
                                                         0.185743      -0.002027
                                                         0.487950       0.048599
                                                         1.268799       0.000000
                                                         2.423784       0.000000
                                                         6.901217       0.000000
                          1      13    5fxy2             0.019000      -0.000676
                                                         0.029824       0.000725
                                                         0.046961       0.000322
                                                         0.185743      -0.002027
                                                         0.487950       0.048599
                                                         1.268799       0.000000
                                                         2.423784       0.000000
                                                         6.901217       0.000000
                          1      13    5fxyz             0.019000      -0.001171
                                                         0.029824       0.001255
                                                         0.046961       0.000558
                                                         0.185743      -0.003511
                                                         0.487950       0.084176
                                                         1.268799       0.000000
                                                         2.423784       0.000000
                                                         6.901217       0.000000
                          1      13    5fxz2             0.019000      -0.000676
                                                         0.029824       0.000725
                                                         0.046961       0.000322
                                                         0.185743      -0.002027
                                                         0.487950       0.048599
                                                         1.268799       0.000000
                                                         2.423784       0.000000
                                                         6.901217       0.000000
                          1      13    5fy3              0.019000      -0.000302
                                                         0.029824       0.000324
                                                         0.046961       0.000144
                                                         0.185743      -0.000907
                                                         0.487950       0.021734
                                                         1.268799       0.000000
                                                         2.423784       0.000000
                                                         6.901217       0.000000
                          1      13    5fy2z             0.019000      -0.000676
                                                         0.029824       0.000725
                                                         0.046961       0.000322
                                                         0.185743      -0.002027
                                                         0.487950       0.048599
                                                         1.268799       0.000000
                                                         2.423784       0.000000
                                                         6.901217       0.000000
                          1      13    5fyz2             0.019000      -0.000676
                                                         0.029824       0.000725
                                                         0.046961       0.000322
                                                         0.185743      -0.002027
                                                         0.487950       0.048599
                                                         1.268799       0.000000
                                                         2.423784       0.000000
                                                         6.901217       0.000000
                          1      13    5fz3              0.019000      -0.000302
                                                         0.029824       0.000324
                                                         0.046961       0.000144
                                                         0.185743      -0.000907
                                                         0.487950       0.021734
                                                         1.268799       0.000000
                                                         2.423784       0.000000
                                                         6.901217       0.000000

       Atomic covalent radius [Angstrom]:                                  2.160

       Atomic van der Waals radius [Angstrom]:                             3.030

     GTH Potential information for                                       GTH-PBE

       Description:                       Goedecker-Teter-Hutter pseudopotential
                                           Goedecker et al., PRB 54, 1703 (1996)
                                          Hartwigsen et al., PRB 58, 3641 (1998)
                                                      Krack, TCA 114, 145 (2005)

       Gaussian exponent of the core charge distribution:               2.082466
       Electronic configuration (s p d ...):                               3   6

       Parameters of the local part of the GTH pseudopotential:

                          rloc        C1          C2          C3          C4
                        0.490000    5.669086   -0.811627

       Parameters of the non-local part of the GTH (SOC) pseudopotential:

                   l      r(l)      h(i,j,l)
                                    k(i,j,l)
                   0    0.281803   21.390732   -8.078667
                                   -8.078667   10.429514
                   1    0.285708   12.256349  -12.198541
                                  -12.198541   14.433508
                                    1.411802   -2.614532
                                   -2.614532    3.093556
                   2    0.541797    0.345666
                                    0.006960


 MOLECULE KIND INFORMATION


 All atoms are their own molecule, skipping detailed information


 TOTAL NUMBERS AND MAXIMUM NUMBERS

  Total number of            - Atomic kinds:                                   1
                             - Atoms:                                          2
                             - Shell sets:                                     2
                             - Shells:                                        26
                             - Primitive Cartesian functions:                 16
                             - Cartesian basis functions:                     90
                             - Spherical basis functions:                     78

  Maximum angular momentum of- Orbital basis functions:                        3
                             - Local part of the GTH pseudopotential:          2
                             - Non-local part of the GTH pseudopotential:      3


 MODULE QUICKSTEP: ATOMIC COORDINATES IN ANGSTROM

   Atom Kind Element         X             Y             Z       Z(eff)     Mass
      1    1 Rb   37      0.000000      0.000000      0.000000   9.0000  85.4678
      2    1 Rb   37      2.835985      2.835985      2.835985   9.0000  85.4678



 SCF PARAMETERS         Density guess:                                    ATOMIC
                        --------------------------------------------------------
                        max_scf:                                             500
                        max_scf_history:                                       0
                        max_diis:                                              4
                        --------------------------------------------------------
                        eps_scf:                                        1.00E-09
                        eps_scf_history:                                0.00E+00
                        eps_diis:                                       1.00E-01
                        eps_eigval:                                     1.00E-05
                        --------------------------------------------------------
                        level_shift [a.u.]:                             0.000000
                        added MOs                                        69    0
                        --------------------------------------------------------
                        Mixing method:                            BROYDEN_MIXING
                                                charge density mixing in g-space
                        --------------------------------------------------------
                        Smear method:                                FERMI_DIRAC
                        Electronic temperature [K]:                        300.0
                        Electronic temperature [a.u.]:                  9.50E-04
                        Accuracy threshold:                             1.00E-10
                        --------------------------------------------------------
                        No outer SCF

 PW_GRID| Information for grid number                                          1
 PW_GRID| Grid distributed over                                    16 processors
 PW_GRID| Real space group dimensions                                    16    1
 PW_GRID| the grid is blocked:                                                NO
 PW_GRID| Cutoff [a.u.]                                                    500.0
 PW_GRID| spherical cutoff:                                                   NO
 PW_GRID|   Bounds   1            -54      53                Points:         108
 PW_GRID|   Bounds   2            -54      53                Points:         108
 PW_GRID|   Bounds   3            -54      53                Points:         108
 PW_GRID| Volume element (a.u.^3)  0.9775E-03     Volume (a.u.^3)      1231.3978
 PW_GRID| Grid span                                                    FULLSPACE
 PW_GRID|   Distribution                         Average         Max         Min
 PW_GRID|   G-Vectors                            78732.0       78732       78732
 PW_GRID|   G-Rays                                 729.0         729         729
 PW_GRID|   Real Space Points                    78732.0       81648       69984

 PW_GRID| Information for grid number                                          2
 PW_GRID| Number of the reference grid                                         1
 PW_GRID| Grid distributed over                                    16 processors
 PW_GRID| Real space group dimensions                                    16    1
 PW_GRID| the grid is blocked:                                                NO
 PW_GRID| Cutoff [a.u.]                                                    166.7
 PW_GRID| spherical cutoff:                                                   NO
 PW_GRID|   Bounds   1            -32      31                Points:          64
 PW_GRID|   Bounds   2            -32      31                Points:          64
 PW_GRID|   Bounds   3            -32      31                Points:          64
 PW_GRID| Volume element (a.u.^3)  0.4697E-02     Volume (a.u.^3)      1231.3978
 PW_GRID| Grid span                                                    FULLSPACE
 PW_GRID|   Distribution                         Average         Max         Min
 PW_GRID|   G-Vectors                            16384.0       16448       16320
 PW_GRID|   G-Rays                                 256.0         257         255
 PW_GRID|   Real Space Points                    16384.0       16384       16384

 PW_GRID| Information for grid number                                          3
 PW_GRID| Number of the reference grid                                         1
 PW_GRID| Grid distributed over                                    16 processors
 PW_GRID| Real space group dimensions                                    16    1
 PW_GRID| the grid is blocked:                                                NO
 PW_GRID| Cutoff [a.u.]                                                     55.6
 PW_GRID| spherical cutoff:                                                   NO
 PW_GRID|   Bounds   1            -18      17                Points:          36
 PW_GRID|   Bounds   2            -18      17                Points:          36
 PW_GRID|   Bounds   3            -18      17                Points:          36
 PW_GRID| Volume element (a.u.^3)  0.2639E-01     Volume (a.u.^3)      1231.3978
 PW_GRID| Grid span                                                    FULLSPACE
 PW_GRID|   Distribution                         Average         Max         Min
 PW_GRID|   G-Vectors                             2916.0        2952        2880
 PW_GRID|   G-Rays                                  81.0          82          80
 PW_GRID|   Real Space Points                     2916.0        3888        2592

 PW_GRID| Information for grid number                                          4
 PW_GRID| Number of the reference grid                                         1
 PW_GRID| Grid distributed over                                    16 processors
 PW_GRID| Real space group dimensions                                    16    1
 PW_GRID| the grid is blocked:                                                NO
 PW_GRID| Cutoff [a.u.]                                                     18.5
 PW_GRID| spherical cutoff:                                                   NO
 PW_GRID|   Bounds   1            -12      11                Points:          24
 PW_GRID|   Bounds   2            -12      11                Points:          24
 PW_GRID|   Bounds   3            -12      11                Points:          24
 PW_GRID| Volume element (a.u.^3)  0.8908E-01     Volume (a.u.^3)      1231.3978
 PW_GRID| Grid span                                                    FULLSPACE
 PW_GRID|   Distribution                         Average         Max         Min
 PW_GRID|   G-Vectors                              864.0         912         840
 PW_GRID|   G-Rays                                  36.0          38          35
 PW_GRID|   Real Space Points                      864.0        1152         576

 POISSON| Solver                                                        PERIODIC
 POISSON| Periodicity                                                        XYZ

 RS_GRID| Information for grid number                                          1
 RS_GRID|   Bounds   1            -54      53                Points:         108
 RS_GRID|   Bounds   2            -54      53                Points:         108
 RS_GRID|   Bounds   3            -54      53                Points:         108
 RS_GRID| Real space fully replicated
 RS_GRID| Group size                                                           1

 RS_GRID| Information for grid number                                          2
 RS_GRID|   Bounds   1            -32      31                Points:          64
 RS_GRID|   Bounds   2            -32      31                Points:          64
 RS_GRID|   Bounds   3            -32      31                Points:          64
 RS_GRID| Real space fully replicated
 RS_GRID| Group size                                                           1

 RS_GRID| Information for grid number                                          3
 RS_GRID|   Bounds   1            -18      17                Points:          36
 RS_GRID|   Bounds   2            -18      17                Points:          36
 RS_GRID|   Bounds   3            -18      17                Points:          36
 RS_GRID| Real space fully replicated
 RS_GRID| Group size                                                           1

 RS_GRID| Information for grid number                                          4
 RS_GRID|   Bounds   1            -12      11                Points:          24
 RS_GRID|   Bounds   2            -12      11                Points:          24
 RS_GRID|   Bounds   3            -12      11                Points:          24
 RS_GRID| Real space fully replicated
 RS_GRID| Group size                                                           1

 Number of electrons:                                                         18
 Number of occupied orbitals:                                                  9
 Number of molecular orbitals:                                                78

 Number of orbital functions:                                                 78
 Number of independent orbital functions:                                     78

 Extrapolation method: initial_guess

 Atomic guess: The first density matrix is obtained in terms of atomic orbitals
               and electronic configurations assigned to each atomic kind

 Guess for atomic kind: Rb

 Electronic structure
    Total number of core electrons                                         28.00
    Total number of valence electrons                                       9.00
    Total number of electrons                                              37.00
    Multiplicity                                                   not specified
    S   [  2.00  2.00  2.00] 2.00  1.00
    P   [  6.00  6.00] 6.00
    D   [ 10.00]


 *******************************************************************************
                  Iteration          Convergence                     Energy [au]
[...]
 MP_Allreduce           19                     21.
 MP_Alltoall        796056                   6555.
 -------------------------------------------------------------------------------

 -------------------------------------------------------------------------------
 -                                                                             -
 -                                DBM STATISTICS                               -
 -                                                                             -
 -------------------------------------------------------------------------------
    M  x    N  x    K                                          COUNT     PERCENT
 -------------------------------------------------------------------------------

 -------------------------------------------------------------------------------
 -                                                                             -
 -                                GRID STATISTICS                              -
 -                                                                             -
 -------------------------------------------------------------------------------
 LP    KERNEL             BACKEND                              COUNT     PERCENT
 6     collocate ortho    CPU                                1820420      50.72%
 6     integrate ortho    CPU                                1768408      49.28%
 0     collocate general  CPU                                      4       0.00%
 0     integrate general  CPU                                      2       0.00%
 -------------------------------------------------------------------------------

 MEMORY| Estimated peak process memory [MiB]                                 772

 -------------------------------------------------------------------------------
 ----                             MULTIGRID INFO                            ----
 -------------------------------------------------------------------------------
 count for grid        1:         200076          cutoff [a.u.]          500.00
 count for grid        2:         239518          cutoff [a.u.]          166.67
 count for grid        3:         116288          cutoff [a.u.]           55.56
 count for grid        4:         216210          cutoff [a.u.]           18.52
 total gridlevel count  :         772092

 -------------------------------------------------------------------------------
 -                                                                             -
 -                         MESSAGE PASSING PERFORMANCE                         -
 -                                                                             -
 -------------------------------------------------------------------------------

 ROUTINE             CALLS      AVE VOLUME [Bytes]
 MP_Group                6
 MP_Bcast           317105                   1582.
 MP_Allreduce       308277                     27.
 MP_Sync                 4
 MP_Alltoall           617                3554854.
 MP_SendRecv          2130                 212440.
 MP_ISendRecv         2055                 209407.
 MP_Wait            216731
 MP_comm_split           4
 MP_ISend           221500                    770.
 MP_IRecv           369712                    456.
 -------------------------------------------------------------------------------


 -------------------------------------------------------------------------------
 -                                                                             -
 -                           R E F E R E N C E S                               -
 -                                                                             -
 -------------------------------------------------------------------------------
 
 CP2K version 2025.1 (Development Version), the CP2K developers group (2025).
 CP2K is freely available from https://www.cp2k.org/ .
 
 T. D. Kuehne, M. Iannuzzi, M. Del Ben, V. V. Rybkin, P. Seewald, F. Stein, T. 
 Laino, R. Z. Khaliullin, O. Schuett, F. Schiffmann, D. Golze, J. Wilhelm, S. 
 Chulkov, M. H. Bani-Hashemian, V. Weber, U. Borstnik, M. Taillefumier, A. S. 
 Jakobovits, A. Lazzaro, H. Pabst, T. Mueller, R. Schade, M. Guidon, S. 
 Andermatt, N. Holmberg, G. K. Schenter, A. Hehn, A. Bussy, F. Belleflamme, G. 
 Tabacchi, A. Gloess, M. Lass, I. Bethune, C. J. Mundy, C. Plessl, M. Watkins, 
 J. VandeVondele, M. Krack, J. Hutter.
 J. Chem. Phys. 152, 194103 (2020).
 CP2K: An electronic structure and molecular dynamics software package - 
 Quickstep: Efficient and accurate electronic structure calculations.
 https://doi.org/10.1063/5.0007045

 O. Schuett, P. Messmer, J. Hutter, J. VandeVondele.
 Electronic Structure Calculations on Graphics Processing Units, 173-190 (2016).
 GPU-Accelerated Sparse Matrix-Matrix Multiplication for Linear Scaling Density 
 Functional Theory.
 https://doi.org/10.1002/9781118670712.ch8

 J. Hutter, M. Iannuzzi, F. Schiffmann, J. VandeVondele.
 WIREs Comput Mol Sci. 4, 15-25 (2014).
 CP2K: atomistic simulations of condensed matter systems.
 https://doi.org/10.1002/wcms.1159

 U. Borstnik, J. VandeVondele, V. Weber, J. Hutter.
 Parallel Comput. 40, 47-58 (2014).
 Sparse matrix multiplication: The distributed block-compressed sparse row 
 library.
 https://doi.org/10.1016/j.parco.2014.03.012

 J. VandeVondele, J. Hutter.
 J. Chem. Phys. 127, 114105 (2007).
 Gaussian basis sets for accurate calculations on molecular systems in gas and 
 condensed phases.
 https://doi.org/10.1063/1.2770708

 J. VandeVondele, M. Krack, F. Mohamed, M. Parrinello, T. Chassaing, J. Hutter.
 Comput. Phys. Commun. 167, 103-128 (2005).
 QUICKSTEP: Fast and accurate density functional calculations using a mixed 
 Gaussian and plane waves approach.
 https://doi.org/10.1016/j.cpc.2004.12.014

 M. Krack.
 Theor. Chem. Acc. 114, 145-152 (2005).
 Pseudopotentials for H to Kr optimized for gradient-corrected 
 exchange-correlation functionals.
 https://doi.org/10.1007/s00214-005-0655-y

 M. Frigo, S. G. Johnson.
 Proc. IEEE 93, 216-231 (2005).
 The design and implementation of FFTW3.
 https://doi.org/10.1109/JPROC.2004.840301

 C. Hartwigsen, S. Goedecker, J. Hutter.
 Phys. Rev. B 58, 3641-3662 (1998).
 Relativistic separable dual-space Gaussian pseudopotentials from H to Rn.
 https://doi.org/10.1103/PhysRevB.58.3641

 G. Lippert, J. Hutter, M. Parrinello.
 Mol. Phys. 92, 477-487 (1997).
 A hybrid Gaussian and plane wave density functional scheme.
 https://doi.org/10.1080/002689797170220

 S. Goedecker, M. Teter, J. Hutter.
 Phys. Rev. B 54, 1703-1710 (1996).
 Separable dual-space Gaussian pseudopotentials.
 https://doi.org/10.1103/PhysRevB.54.1703

 J. P. Perdew, K. Burke, M. Ernzerhof.
 Phys. Rev. Lett. 77, 3865-3868 (1996).
 Generalized gradient approximation made simple.
 https://doi.org/10.1103/PhysRevLett.77.3865


 -------------------------------------------------------------------------------
 -                                                                             -
 -                                T I M I N G                                  -
 -                                                                             -
 -------------------------------------------------------------------------------
 SUBROUTINE                       CALLS  ASD         SELF TIME        TOTAL TIME
                                MAXIMUM       AVERAGE  MAXIMUM  AVERAGE  MAXIMUM
 CP2K                                 1  1.0    0.023    0.025  613.469  613.469
 qs_energies                          1  2.0    0.012    0.041  613.187  613.214
 scf_env_do_scf                       1  3.0    0.000    0.000  601.692  601.693
 scf_env_do_scf_inner_loop           34  4.0    0.088    0.094  601.692  601.692
 do_general_diag_kp                  35  5.9    0.193    0.261  523.678  539.296
 qs_scf_new_mos_kp                   34  5.0    0.000    0.000  518.144  533.744
 mp_alltoall_i22                 135676  8.7  410.248  503.419  410.248  503.419
 dbcsr_desymmetrize_deep          76838  7.4    1.143    1.483  309.098  377.606
 rskp_transform                   17704  6.9   52.511  281.088   52.511  281.088
 dbcsr_complete_redistribute      58838  8.2    2.000    2.457  127.314  151.741
 kpoint_density_transform            34  7.0    0.125    0.159  139.144  139.558
 copy_fm_to_dbcsr                 17408  8.0    0.101    0.122  111.803  135.886
 transform_dmat                    8704  8.0   24.156  129.962   24.156  129.962
 qs_ks_update_qs_env                 34  5.0    0.000    0.000   21.518   89.734
 rebuild_ks_matrix                   34  6.0    0.000    0.000   17.857   86.073
 qs_ks_build_kohn_sham_matrix        34  7.0    0.167    0.176   17.857   86.073
 sum_up_and_integrate                34  8.0    0.000    0.001   16.352   84.524
 integrate_v_rspace                  34  9.0    0.069    0.364   16.351   84.523
 grid_integrate_task_list            34 10.0   15.625   83.547   15.625   83.547
 transfer_rs2pw                     142  8.0    0.002    0.002   45.869   56.114
 transfer_rs2pw_500                  37  8.9    0.156    0.163   45.726   55.965
 mp_sendrecv_dv                    2130 10.0   45.665   55.906   45.665   55.906
 qs_rho_update_rho_low               35  5.0    0.000    0.000   54.464   54.518
 calculate_rho_elec                  35  6.0    0.033    0.089   54.464   54.518
 density_rs2pw                       35  7.0    0.001    0.002   44.273   54.151
 grid_collocate_task_list            35  7.0   10.154   53.281   10.154   53.281
 copy_dbcsr_to_fm                 41430  6.8    0.429    0.496   24.334   24.753
 cp_fm_start_copy_general         52816  7.3    0.740    1.138    6.613    6.700
 write_kpoints_restart               34  5.0    0.030    0.036    5.445    5.446
 dbcsr_finalize                  184264  8.0    0.672    0.720    4.593    5.083
 mp_cart_sub                      82862  8.8    4.904    4.936    4.904    4.936
 mp_alltoall_d11v                407028  9.3    4.653    4.901    4.653    4.901
 dbcsr_dot                       204749  8.0    0.896    1.483    4.248    4.403
 mp_allgather_i                  105632  8.3    3.598    3.737    3.598    3.737
 evaluate_core_matrix_traces         34  6.0    0.000    0.000    3.661    3.661
 calculate_ptrace_kp                 68  7.0    0.151    0.167    3.660    3.660
 mp_sum_d                        205439  9.0    3.129    3.534    3.129    3.534
 mp_alltoall_i11v                253352  8.9    3.025    3.172    3.025    3.172
 hybrid_alltoall_any              76838  8.4    0.307    0.343    2.955    3.143
 dbcsr_merge_all                  58838 10.2    1.440    1.821    2.557    2.930
 cp_dbcsr_alloc_block_from_nbl    21283  5.0    0.511    2.588    0.577    2.855
 qs_energies_init_hamiltonians        1  3.0    0.000    0.000    2.691    2.691
 mp_cart_create                   41437  8.8    2.563    2.658    2.563    2.658
 init_scf_run                         1  3.0    0.000    0.000    2.346    2.497
 scf_env_initial_rho_setup            1  4.0    0.000    0.000    2.346    2.497
 self_consistency_check              34  5.0    0.144    0.154    2.396    2.490
 cp_cfm_geeig_canon                 581  6.8    0.005    0.006    2.189    2.230
 cp_sm_mix                       102374  6.0    0.294    0.593    2.094    2.220
 build_core_hamiltonian_matrix        1  4.0    0.011    0.011    0.531    2.167
 cp_fm_write_unformatted           6022  6.0    1.544    1.999    1.557    2.103
 qs_env_update_s_mstruct              1  4.0    0.000    0.000    1.771    2.074
 dbcsr_copy                      225167  6.7    1.169    1.336    1.746    2.047
 calculate_rho_core                   1  5.0    0.001    0.002    1.658    2.043
 cp_cfm_heevd                      1162  7.8    0.002    0.002    1.986    2.024
 cp_cfm_heevd_base                 1162  8.8    1.985    2.022    1.985    2.022
 mp_max_d                        102376  7.0    1.552    1.752    1.552    1.752
 mp_bcast_iv                     211290  8.3    1.606    1.740    1.606    1.740
 dbcsr_create_new                420581  7.8    1.218    1.363    1.490    1.704
 dbcsr_work_create               135676  8.7    0.829    0.878    1.307    1.482
 dbcsr_iterator_start            681163  8.7    1.159    1.246    1.335    1.418
 dbcsr_data_new                 1487431  9.6    0.834    1.130    0.834    1.130
 dbcsr_work_destroy_all          135676  9.7    0.649    0.659    0.975    0.990
 kpoint_set_mo_occupation            34  7.0    0.904    0.933    0.946    0.986
 tree_to_linear_d                 58838 11.2    0.893    0.958    0.893    0.958
 mixing_allocate                      1  3.0    0.017    0.017    0.213    0.948
 dbcsr_iterator_stop             681163  8.7    0.749    0.783    0.894    0.939
 copy_dbcsr_to_fm_bc              41430  7.8    0.394    0.420    0.885    0.918
 copy_fm_to_dbcsr_bc              17408  9.0    0.224    0.266    0.756    0.905
 calculate_first_density_matrix       1  5.0    0.002    0.002    0.749    0.899
 calculate_atomic_block_dm            1  6.0    0.001    0.001    0.742    0.894
 dbcsr_data_release             2322270  9.9    0.772    0.868    0.772    0.868
 fft_wrap_pw1pw2                    617 10.0    0.005    0.006    0.790    0.844
 dbcsr_destroy                   215833  7.7    0.353    0.388    0.685    0.781
 fft_wrap_pw1pw2_500                410 11.3    0.054    0.055    0.719    0.772
 dbcsr_set                       317197  7.3    0.276    0.295    0.450    0.765
 potential_pw2rs                     34 10.0    0.002    0.002    0.656    0.708
 fft3d_ps                           617 12.0    0.258    0.272    0.642    0.698
 mp_waitall_1                    216731  8.4    0.298    0.536    0.298    0.536
 qs_vxc_create                       34  8.0    0.000    0.001    0.493    0.496
 xc_vxc_pw_create                    34  9.0    0.022    0.023    0.493    0.496
 build_overlap_matrix_low             1  5.0    0.031    0.086    0.122    0.482
 mp_bcast_im                     105632  8.3    0.469    0.481    0.469    0.481
 transfer_pw2rs                     137 11.0    0.001    0.001    0.480    0.480
 quick_finalize                   76838  9.4    0.200    0.260    0.340    0.479
 build_kinetic_matrix_low             1  5.0    0.030    0.084    0.121    0.479
 dbcsr_zero                      317197  8.3    0.174    0.470    0.174    0.470
 mp_comm_free                    124333  8.8    0.382    0.457    0.382    0.457
 gspace_mixing                       33  5.0    0.019    0.019    0.445    0.445
 calculate_ecore_overlap              1  4.0    0.000    0.000    0.357    0.439
 build_core_ppnl                      1  5.0    0.088    0.430    0.088    0.430
 qs_env_rebuild_rho                   1  5.0    0.000    0.000    0.102    0.414
 qs_rho_rebuild                       1  6.0    0.008    0.009    0.102    0.414
 mp_alltoall_z22v                   617 14.0    0.323    0.400    0.323    0.400
 dbcsr_reserve_blocks             38691  8.3    0.131    0.348    0.151    0.385
 mp_sum_iv                           24  5.3    0.310    0.381    0.310    0.381
 qs_scf_ensure_work_matrices          1  3.0    0.000    0.000    0.310    0.381
 broyden_mixing                      33  6.0    0.359    0.368    0.370    0.375
 dbcsr_copy_into_existing         20419  9.4    0.136    0.237    0.249    0.356
 transfer_pw2rs_500                  35 11.9    0.190    0.201    0.344    0.350
 cp_fm_finish_copy_general        19732  7.9    0.237    0.279    0.265    0.326
 xc_pw_derive                       204 11.0    0.001    0.001    0.305    0.322
 build_core_ppl                       1  5.0    0.057    0.309    0.057    0.309
 yz_to_x                            277 12.8    0.019    0.021    0.219    0.285
 xc_rho_set_and_dset_create          34 10.0    0.013    0.016    0.264    0.270
 dbcsr_iterator_seek             681163  9.7    0.175    0.242    0.175    0.242
 dbcsr_make_index_exist          420581  8.8    0.185    0.230    0.185    0.230
 scf_post_calculation_gpw             1  3.0    0.000    0.000    0.222    0.222
 write_available_results              1  4.0    0.000    0.000    0.222    0.222
 write_mo_free_results                1  5.0    0.001    0.001    0.222    0.222
 kpoint_density_matrices             34  7.0    0.010    0.010    0.192    0.218
 xc_pw_divergence                    34 10.0    0.000    0.000    0.202    0.216
 parallel_gemm_fm                  2176  8.0    0.002    0.002    0.178    0.203
 parallel_gemm_fm_gemm             2176  9.0    0.002    0.002    0.176    0.201
 cp_fm_gemm                        2176 10.0    0.174    0.199    0.174    0.199
 dbcsr_sort_indices              174367 10.8    0.095    0.188    0.095    0.188
 cp_cfm_gemm                       1743  7.8    0.183    0.187    0.183    0.187
 x_to_yz                            340 13.2    0.037    0.039    0.159    0.172
 dbcsr_reserve_all_blocks         17408 10.0    0.025    0.033    0.118    0.155
 merge_index                      58838 11.2    0.112    0.138    0.112    0.138
 calculate_hirshfeld_normalizat       1  6.0    0.005    0.038    0.107    0.128
 transfer_rs2pw_170                  35  9.0    0.038    0.040    0.109    0.121
 dbcsr_switch_data_area           76838 10.4    0.072    0.078    0.098    0.111
 transfer_pw2rs_170                  34 12.0    0.048    0.051    0.097    0.110
 mp_irecv_iv                     211264  8.3    0.007    0.109    0.007    0.109
 mp_isendrecv_dv                   2055 13.0    0.043    0.107    0.043    0.107
 mulliken_population_analysis         1  6.0    0.026    0.098    0.046    0.106
 mp_recv_dv                       18066  7.0    0.006    0.104    0.006    0.104
 mp_isend_dv                      54592  8.3    0.091    0.103    0.091    0.103
 mp_sum_dv                          329  3.4    0.081    0.103    0.081    0.103
 xc_functional_eval                  34 11.0    0.000    0.000    0.094    0.099
 pbe_lda_eval                        34 12.0    0.094    0.098    0.094    0.098
 parser_read_line                  6278  4.1    0.002    0.002    0.088    0.089
 parser_read_line_low                25  6.1    0.007    0.034    0.086    0.087
 broadcast_input_information         25  7.1    0.026    0.030    0.079    0.082
 cp_fm_cleanup_copy_general       36496  7.0    0.049    0.053    0.072    0.078
 mp_isend_iv                     112456  8.3    0.010    0.073    0.010    0.073
 hirshfeld_integration                1  6.0    0.007    0.058    0.067    0.067
 mp_comm_size                    205855  9.0    0.051    0.067    0.051    0.067
 qs_init_subsys                       1  2.0    0.002    0.002    0.066    0.066
 qs_env_setup                         1  3.0    0.000    0.000    0.063    0.064
 qs_env_rebuild_pw_env                2  3.5    0.000    0.000    0.062    0.063
 pw_env_rebuild                       1  5.0    0.000    0.001    0.062    0.063
 topology_control                     1  2.0    0.000    0.000    0.062    0.063
 create_qs_kind_set                   1  2.0    0.000    0.000    0.062    0.062
 mp_sum_dm3                          34  8.0    0.042    0.062    0.042    0.062
 read_qs_kind                         1  3.0    0.031    0.032    0.062    0.062
 -------------------------------------------------------------------------------

 The number of warnings for this run is : 1
 
 -------------------------------------------------------------------------------
  **** **** ******  **  PROGRAM ENDED AT                 2025-08-05 23:26:49.245
 ***** ** ***  *** **   PROGRAM RAN ON                              i04r08c03s06
 **    ****   ******    PROGRAM RAN BY                                   di38fab
 ***** **    ** ** **   PROGRAM PROCESS ID                               2177291
  **** **  *******  **  PROGRAM STOPPED IN /hppfs/scratch/04/di38fab/09_GTH/Delt
                                           a_Set/Rb/aug-TZVP-MOLOPT-GTH-tier-2/8
                                           x8x8
