Ag                                      
   1.00000000000000     
     4.164240    0.000000    0.000000
     0.000000    4.164240    0.000000
     0.000000    0.000000    4.164240
   Ag
     4
Direct
  0.000000  0.000000  0.000000
  0.000000  0.500000  0.500000
  0.500000  0.000000  0.500000
  0.500000  0.500000  0.000000
 
   36   36   36
  561.42      537.96      475.46      391.84      303.88      221.33      149.21      92.000      53.199      31.763    
  20.999      14.546      10.855      8.8432      7.6691      6.8742      6.3746      6.1707      6.1353      6.1707    
  6.3746      6.8742      7.6691      8.8432      10.855      14.546      20.999      31.763      53.199      92.000    
  149.21      221.33      303.88      391.84      475.46      537.96      537.96      515.86      456.81      377.33    
  293.07      213.45      143.73      88.576      51.412      30.998      20.636      14.378      10.797      8.8360    
  7.6840      6.9016      6.4092      6.2068      6.1707      6.2068      6.4092      6.9016      7.6840      8.8360    
  10.797      14.378      20.636      30.998      51.412      88.576      143.73      213.45      293.07      377.33    
  456.81      515.86      475.46      456.81      406.51      337.65      263.08      191.41      128.41      79.116    
  46.549      28.923      19.626      13.929      10.666      8.8612      7.7874      7.0566      6.5984      6.4092    
  6.3746      6.4092      6.5984      7.0566      7.7874      8.8612      10.666      13.929      19.626      28.923    
  46.549      79.116      128.41      191.41      263.08      337.65      406.51      456.81      391.84      377.33    
  337.65      281.98      220.01      159.44      106.38      65.818      39.910      26.066      18.180      13.330    
  10.552      8.9995      8.0685      7.4414      7.0566      6.9016      6.8742      6.9016      7.0566      7.4414    
  8.0685      8.9995      10.552      13.330      18.180      26.066      39.910      65.818      106.38      159.44    
  220.01      281.98      337.65      377.33      303.88      293.07      263.08      220.01      171.09      123.09    
  81.877      51.588      33.059      22.923      16.584      12.740      10.538      9.2956      8.5527      8.0685    
  7.7874      7.6840      7.6691      7.6840      7.7874      8.0685      8.5527      9.2956      10.538      12.740    
  16.584      22.923      33.059      51.588      81.877      123.09      171.09      220.01      263.08      293.07    
  221.33      213.45      191.41      159.44      123.09      88.083      59.196      39.081      27.132      19.837    
  15.119      12.307      10.703      9.8070      9.2956      8.9995      8.8612      8.8360      8.8432      8.8360    
  8.8612      8.9995      9.2956      9.8070      10.703      12.307      15.119      19.837      27.132      39.081    
  59.196      88.083      123.09      159.44      191.41      213.45      149.21      143.73      128.41      106.38    
  81.877      59.196      41.499      29.744      22.297      17.198      14.009      12.169      11.177      10.703    
  10.538      10.552      10.666      10.797      10.855      10.797      10.666      10.552      10.538      10.703    
  11.177      12.169      14.009      17.198      22.297      29.744      41.499      59.196      81.877      106.38    
  128.41      143.73      92.000      88.576      79.116      65.818      51.588      39.081      29.744      23.221    
  18.433      15.257      13.398      12.468      12.169      12.307      12.740      13.330      13.929      14.378    
  14.546      14.378      13.929      13.330      12.740      12.307      12.169      12.468      13.398      15.257    
  18.433      23.221      29.744      39.081      51.588      65.818      79.116      88.576      53.199      51.412    
  46.549      39.910      33.059      27.132      22.297      18.433      15.720      14.101      13.387      13.398    
  14.009      15.119      16.584      18.180      19.626      20.636      20.999      20.636      19.626      18.180    
  16.584      15.119      14.009      13.398      13.387      14.101      15.720      18.433      22.297      27.132    
  33.059      39.910      46.549      51.412      31.763      30.998      28.923      26.066      22.923      19.837    
  17.198      15.257      14.101      13.721      14.101      15.257      17.198      19.837      22.923      26.066    
  28.923      30.998      31.763      30.998      28.923      26.066      22.923      19.837      17.198      15.257    
  14.101      13.721      14.101      15.257      17.198      19.837      22.923      26.066      28.923      30.998    
  20.999      20.636      19.626      18.180      16.584      15.119      14.009      13.398      13.387      14.101    
  15.720      18.433      22.297      27.132      33.059      39.910      46.549      51.412      53.199      51.412    
  46.549      39.910      33.059      27.132      22.297      18.433      15.720      14.101      13.387      13.398    
  14.009      15.119      16.584      18.180      19.626      20.636      14.546      14.378      13.929      13.330    
  12.740      12.307      12.169      12.468      13.398      15.257      18.433      23.221      29.744      39.081    
  51.588      65.818      79.116      88.576      92.000      88.576      79.116      65.818      51.588      39.081    
  29.744      23.221      18.433      15.257      13.398      12.468      12.169      12.307      12.740      13.330    
  13.929      14.378      10.855      10.797      10.666      10.552      10.538      10.703      11.177      12.169    
  14.009      17.198      22.297      29.744      41.499      59.196      81.877      106.38      128.41      143.73    
  149.21      143.73      128.41      106.38      81.877      59.196      41.499      29.744      22.297      17.198    
  14.009      12.169      11.177      10.703      10.538      10.552      10.666      10.797      8.8432      8.8360    
  8.8612      8.9995      9.2956      9.8070      10.703      12.307      15.119      19.837      27.132      39.081    
  59.196      88.083      123.09      159.44      191.41      213.45      221.33      213.45      191.41      159.44    
  123.09      88.083      59.196      39.081      27.132      19.837      15.119      12.307      10.703      9.8070    
  9.2956      8.9995      8.8612      8.8360      7.6691      7.6840      7.7874      8.0685      8.5527      9.2956    
  10.538      12.740      16.584      22.923      33.059      51.588      81.877      123.09      171.09      220.01    
  263.08      293.07      303.88      293.07      263.08      220.01      171.09      123.09      81.877      51.588    
  33.059      22.923      16.584      12.740      10.538      9.2956      8.5527      8.0685      7.7874      7.6840    
  6.8742      6.9016      7.0566      7.4414      8.0685      8.9995      10.552      13.330      18.180      26.066    
  39.910      65.818      106.38      159.44      220.01      281.98      337.65      377.33      391.84      377.33    
  337.65      281.98      220.01      159.44      106.38      65.818      39.910      26.066      18.180      13.330    
  10.552      8.9995      8.0685      7.4414      7.0566      6.9016      6.3746      6.4092      6.5984      7.0566    
  7.7874      8.8612      10.666      13.929      19.626      28.923      46.549      79.116      128.41      191.41    
  263.08      337.65      406.51      456.81      475.46      456.81      406.51      337.65      263.08      191.41    
  128.41      79.116      46.549      28.923      19.626      13.929      10.666      8.8612      7.7874      7.0566    
  6.5984      6.4092      6.1707      6.2068      6.4092      6.9016      7.6840      8.8360      10.797      14.378    
  20.636      30.998      51.412      88.576      143.73      213.45      293.07      377.33      456.81      515.86    
  537.96      515.86      456.81      377.33      293.07      213.45      143.73      88.576      51.412      30.998    
  20.636      14.378      10.797      8.8360      7.6840      6.9016      6.4092      6.2068      6.1353      6.1707    
  6.3746      6.8742      7.6691      8.8432      10.855      14.546      20.999      31.763      53.199      92.000    
  149.21      221.33      303.88      391.84      475.46      537.96      561.42      537.96      475.46      391.84    
  303.88      221.33      149.21      92.000      53.199      31.763      20.999      14.546      10.855      8.8432    
  7.6691      6.8742      6.3746      6.1707      6.1707      6.2068      6.4092      6.9016      7.6840      8.8360    
  10.797      14.378      20.636      30.998      51.412      88.576      143.73      213.45      293.07      377.33    
  456.81      515.86      537.96      515.86      456.81      377.33      293.07      213.45      143.73      88.576    
  51.412      30.998      20.636      14.378      10.797      8.8360      7.6840      6.9016      6.4092      6.2068    
  6.3746      6.4092      6.5984      7.0566      7.7874      8.8612      10.666      13.929      19.626      28.923    
  46.549      79.116      128.41      191.41      263.08      337.65      406.51      456.81      475.46      456.81    
  406.51      337.65      263.08      191.41      128.41      79.116      46.549      28.923      19.626      13.929    
  10.666      8.8612      7.7874      7.0566      6.5984      6.4092      6.8742      6.9016      7.0566      7.4414    
  8.0685      8.9995      10.552      13.330      18.180      26.066      39.910      65.818      106.38      159.44    
  220.01      281.98      337.65      377.33      391.84      377.33      337.65      281.98      220.01      159.44    
  106.38      65.818      39.910      26.066      18.180      13.330      10.552      8.9995      8.0685      7.4414    
  7.0566      6.9016      7.6691      7.6840      7.7874      8.0685      8.5527      9.2956      10.538      12.740    
  16.584      22.923      33.059      51.588      81.877      123.09      171.09      220.01      263.08      293.07    
  303.88      293.07      263.08      220.01      171.09      123.09      81.877      51.588      33.059      22.923    
  16.584      12.740      10.538      9.2956      8.5527      8.0685      7.7874      7.6840      8.8432      8.8360    
  8.8612      8.9995      9.2956      9.8070      10.703      12.307      15.119      19.837      27.132      39.081    
  59.196      88.083      123.09      159.44      191.41      213.45      221.33      213.45      191.41      159.44    
  123.09      88.083      59.196      39.081      27.132      19.837      15.119      12.307      10.703      9.8070    
  9.2956      8.9995      8.8612      8.8360      10.855      10.797      10.666      10.552      10.538      10.703    
  11.177      12.169      14.009      17.198      22.297      29.744      41.499      59.196      81.877      106.38    
  128.41      143.73      149.21      143.73      128.41      106.38      81.877      59.196      41.499      29.744    
  22.297      17.198      14.009      12.169      11.177      10.703      10.538      10.552      10.666      10.797    
  14.546      14.378      13.929      13.330      12.740      12.307      12.169      12.468      13.398      15.257    
  18.433      23.221      29.744      39.081      51.588      65.818      79.116      88.576      92.000      88.576    
  79.116      65.818      51.588      39.081      29.744      23.221      18.433      15.257      13.398      12.468    
  12.169      12.307      12.740      13.330      13.929      14.378      20.999      20.636      19.626      18.180    
  16.584      15.119      14.009      13.398      13.387      14.101      15.720      18.433      22.297      27.132    
  33.059      39.910      46.549      51.412      53.199      51.412      46.549      39.910      33.059      27.132    
  22.297      18.433      15.720      14.101      13.387      13.398      14.009      15.119      16.584      18.180    
  19.626      20.636      31.763      30.998      28.923      26.066      22.923      19.837      17.198      15.257    
  14.101      13.721      14.101      15.257      17.198      19.837      22.923      26.066      28.923      30.998    
  31.763      30.998      28.923      26.066      22.923      19.837      17.198      15.257      14.101      13.721    
  14.101      15.257      17.198      19.837      22.923      26.066      28.923      30.998      53.199      51.412    
  46.549      39.910      33.059      27.132      22.297      18.433      15.720      14.101      13.387      13.398    
  14.009      15.119      16.584      18.180      19.626      20.636      20.999      20.636      19.626      18.180    
  16.584      15.119      14.009      13.398      13.387      14.101      15.720      18.433      22.297      27.132    
  33.059      39.910      46.549      51.412      92.000      88.576      79.116      65.818      51.588      39.081    
  29.744      23.221      18.433      15.257      13.398      12.468      12.169      12.307      12.740      13.330    
  13.929      14.378      14.546      14.378      13.929      13.330      12.740      12.307      12.169      12.468    
  13.398      15.257      18.433      23.221      29.744      39.081      51.588      65.818      79.116      88.576    
  149.21      143.73      128.41      106.38      81.877      59.196      41.499      29.744      22.297      17.198    
  14.009      12.169      11.177      10.703      10.538      10.552      10.666      10.797      10.855      10.797    
  10.666      10.552      10.538      10.703      11.177      12.169      14.009      17.198      22.297      29.744    
  41.499      59.196      81.877      106.38      128.41      143.73      221.33      213.45      191.41      159.44    
  123.09      88.083      59.196      39.081      27.132      19.837      15.119      12.307      10.703      9.8070    
  9.2956      8.9995      8.8612      8.8360      8.8432      8.8360      8.8612      8.9995      9.2956      9.8070    
  10.703      12.307      15.119      19.837      27.132      39.081      59.196      88.083      123.09      159.44    
  191.41      213.45      303.88      293.07      263.08      220.01      171.09      123.09      81.877      51.588    
  33.059      22.923      16.584      12.740      10.538      9.2956      8.5527      8.0685      7.7874      7.6840    
  7.6691      7.6840      7.7874      8.0685      8.5527      9.2956      10.538      12.740      16.584      22.923    
  33.059      51.588      81.877      123.09      171.09      220.01      263.08      293.07      391.84      377.33    
  337.65      281.98      220.01      159.44      106.38      65.818      39.910      26.066      18.180      13.330    
  10.552      8.9995      8.0685      7.4414      7.0566      6.9016      6.8742      6.9016      7.0566      7.4414    
  8.0685      8.9995      10.552      13.330      18.180      26.066      39.910      65.818      106.38      159.44    
  220.01      281.98      337.65      377.33      475.46      456.81      406.51      337.65      263.08      191.41    
  128.41      79.116      46.549      28.923      19.626      13.929      10.666      8.8612      7.7874      7.0566    
  6.5984      6.4092      6.3746      6.4092      6.5984      7.0566      7.7874      8.8612      10.666      13.929    
  19.626      28.923      46.549      79.116      128.41      191.41      263.08      337.65      406.51      456.81    
  537.96      515.86      456.81      377.33      293.07      213.45      143.73      88.576      51.412      30.998    
  20.636      14.378      10.797      8.8360      7.6840      6.9016      6.4092      6.2068      6.1707      6.2068    
  6.4092      6.9016      7.6840      8.8360      10.797      14.378      20.636      30.998      51.412      88.576    
  143.73      213.45      293.07      377.33      456.81      515.86      537.96      515.86      456.81      377.33    
  293.07      213.45      143.73      88.576      51.412      30.998      20.636      14.378      10.797      8.8360    
  7.6840      6.9016      6.4092      6.2068      6.1707      6.2068      6.4092      6.9016      7.6840      8.8360    
  10.797      14.378      20.636      30.998      51.412      88.576      143.73      213.45      293.07      377.33    
  456.81      515.86      515.86      495.01      439.12      363.47      282.67      205.83      138.43      85.287    
  49.708      30.269      20.283      14.215      10.741      8.8291      7.6989      6.9290      6.4441      6.2433    
  6.2068      6.2433      6.4441      6.9290      7.6989      8.8291      10.741      14.215      20.283      30.269    
  49.708      85.287      138.43      205.83      282.67      363.47      439.12      495.01      456.81      439.12    
  391.31      325.51      253.78      184.54      123.66      76.211      45.074      28.287      19.301      13.779    
  10.613      8.8532      7.8002      7.0820      6.6314      6.4441      6.4092      6.4441      6.6314      7.0820    
  7.8002      8.8532      10.613      13.779      19.301      28.287      45.074      76.211      123.66      184.54    
  253.78      325.51      391.31      439.12      377.33      363.47      325.51      272.01      212.21      153.64    
  102.43      63.475      38.754      25.543      17.896      13.197      10.501      8.9870      8.0747      7.4594    
  7.0820      6.9290      6.9016      6.9290      7.0820      7.4594      8.0747      8.9870      10.501      13.197    
  17.896      25.543      38.754      63.475      102.43      153.64      212.21      272.01      325.51      363.47    
  293.07      282.67      253.78      212.21      164.91      118.55      78.872      49.882      32.234      22.495    
  16.347      12.623      10.486      9.2754      8.5483      8.0747      7.8002      7.6989      7.6840      7.6989    
  7.8002      8.0747      8.5483      9.2754      10.486      12.623      16.347      22.495      32.234      49.882    
  78.872      118.55      164.91      212.21      253.78      282.67      213.45      205.83      184.54      153.64    
  118.55      84.836      57.149      37.970      26.569      19.499      14.929      12.204      10.648      9.7746    
  9.2754      8.9870      8.8532      8.8291      8.8360      8.8291      8.8532      8.9870      9.2754      9.7746    
  10.648      12.204      14.929      19.499      26.569      37.970      57.149      84.836      118.55      153.64    
  184.54      205.83      143.73      138.43      123.66      102.43      78.872      57.149      40.272      29.075    
  21.884      16.942      13.855      12.072      11.110      10.648      10.486      10.501      10.613      10.741    
  10.797      10.741      10.613      10.501      10.486      10.648      11.110      12.072      13.855      16.942    
  21.884      29.075      40.272      57.149      78.872      102.43      123.66      138.43      88.576      85.287    
  76.211      63.475      49.882      37.970      29.075      22.780      18.139      15.066      13.266      12.364    
  12.072      12.204      12.623      13.197      13.779      14.215      14.378      14.215      13.779      13.197    
  12.623      12.204      12.072      12.364      13.266      15.066      18.139      22.780      29.075      37.970    
  49.882      63.475      76.211      85.287      51.412      49.708      45.074      38.754      32.234      26.569    
  21.884      18.139      15.515      13.950      13.259      13.266      13.855      14.929      16.347      17.896    
  19.301      20.283      20.636      20.283      19.301      17.896      16.347      14.929      13.855      13.266    
  13.259      13.950      15.515      18.139      21.884      26.569      32.234      38.754      45.074      49.708    
  30.998      30.269      28.287      25.543      22.495      19.499      16.942      15.066      13.950      13.583    
  13.950      15.066      16.942      19.499      22.495      25.543      28.287      30.269      30.998      30.269    
  28.287      25.543      22.495      19.499      16.942      15.066      13.950      13.583      13.950      15.066    
  16.942      19.499      22.495      25.543      28.287      30.269      20.636      20.283      19.301      17.896    
  16.347      14.929      13.855      13.266      13.259      13.950      15.515      18.139      21.884      26.569    
  32.234      38.754      45.074      49.708      51.412      49.708      45.074      38.754      32.234      26.569    
  21.884      18.139      15.515      13.950      13.259      13.266      13.855      14.929      16.347      17.896    
  19.301      20.283      14.378      14.215      13.779      13.197      12.623      12.204      12.072      12.364    
  13.266      15.066      18.139      22.780      29.075      37.970      49.882      63.475      76.211      85.287    
  88.576      85.287      76.211      63.475      49.882      37.970      29.075      22.780      18.139      15.066    
  13.266      12.364      12.072      12.204      12.623      13.197      13.779      14.215      10.797      10.741    
  10.613      10.501      10.486      10.648      11.110      12.072      13.855      16.942      21.884      29.075    
  40.272      57.149      78.872      102.43      123.66      138.43      143.73      138.43      123.66      102.43    
  78.872      57.149      40.272      29.075      21.884      16.942      13.855      12.072      11.110      10.648    
  10.486      10.501      10.613      10.741      8.8360      8.8291      8.8532      8.9870      9.2754      9.7746    
  10.648      12.204      14.929      19.499      26.569      37.970      57.149      84.836      118.55      153.64    
  184.54      205.83      213.45      205.83      184.54      153.64      118.55      84.836      57.149      37.970    
  26.569      19.499      14.929      12.204      10.648      9.7746      9.2754      8.9870      8.8532      8.8291    
  7.6840      7.6989      7.8002      8.0747      8.5483      9.2754      10.486      12.623      16.347      22.495    
  32.234      49.882      78.872      118.55      164.91      212.21      253.78      282.67      293.07      282.67    
  253.78      212.21      164.91      118.55      78.872      49.882      32.234      22.495      16.347      12.623    
  10.486      9.2754      8.5483      8.0747      7.8002      7.6989      6.9016      6.9290      7.0820      7.4594    
  8.0747      8.9870      10.501      13.197      17.896      25.543      38.754      63.475      102.43      153.64    
  212.21      272.01      325.51      363.47      377.33      363.47      325.51      272.01      212.21      153.64    
  102.43      63.475      38.754      25.543      17.896      13.197      10.501      8.9870      8.0747      7.4594    
  7.0820      6.9290      6.4092      6.4441      6.6314      7.0820      7.8002      8.8532      10.613      13.779    
  19.301      28.287      45.074      76.211      123.66      184.54      253.78      325.51      391.31      439.12    
  456.81      439.12      391.31      325.51      253.78      184.54      123.66      76.211      45.074      28.287    
  19.301      13.779      10.613      8.8532      7.8002      7.0820      6.6314      6.4441      6.2068      6.2433    
  6.4441      6.9290      7.6989      8.8291      10.741      14.215      20.283      30.269      49.708      85.287    
  138.43      205.83      282.67      363.47      439.12      495.01      515.86      495.01      439.12      363.47    
  282.67      205.83      138.43      85.287      49.708      30.269      20.283      14.215      10.741      8.8291    
  7.6989      6.9290      6.4441      6.2433      6.1707      6.2068      6.4092      6.9016      7.6840      8.8360    
  10.797      14.378      20.636      30.998      51.412      88.576      143.73      213.45      293.07      377.33    
  456.81      515.86      537.96      515.86      456.81      377.33      293.07      213.45      143.73      88.576    
  51.412      30.998      20.636      14.378      10.797      8.8360      7.6840      6.9016      6.4092      6.2068    
  6.2068      6.2433      6.4441      6.9290      7.6989      8.8291      10.741      14.215      20.283      30.269    
  49.708      85.287      138.43      205.83      282.67      363.47      439.12      495.01      515.86      495.01    
  439.12      363.47      282.67      205.83      138.43      85.287      49.708      30.269      20.283      14.215    
  10.741      8.8291      7.6989      6.9290      6.4441      6.2433      6.4092      6.4441      6.6314      7.0820    
  7.8002      8.8532      10.613      13.779      19.301      28.287      45.074      76.211      123.66      184.54    
  253.78      325.51      391.31      439.12      456.81      439.12      391.31      325.51      253.78      184.54    
  123.66      76.211      45.074      28.287      19.301      13.779      10.613      8.8532      7.8002      7.0820    
  6.6314      6.4441      6.9016      6.9290      7.0820      7.4594      8.0747      8.9870      10.501      13.197    
  17.896      25.543      38.754      63.475      102.43      153.64      212.21      272.01      325.51      363.47    
  377.33      363.47      325.51      272.01      212.21      153.64      102.43      63.475      38.754      25.543    
  17.896      13.197      10.501      8.9870      8.0747      7.4594      7.0820      6.9290      7.6840      7.6989    
  7.8002      8.0747      8.5483      9.2754      10.486      12.623      16.347      22.495      32.234      49.882    
  78.872      118.55      164.91      212.21      253.78      282.67      293.07      282.67      253.78      212.21    
  164.91      118.55      78.872      49.882      32.234      22.495      16.347      12.623      10.486      9.2754    
  8.5483      8.0747      7.8002      7.6989      8.8360      8.8291      8.8532      8.9870      9.2754      9.7746    
  10.648      12.204      14.929      19.499      26.569      37.970      57.149      84.836      118.55      153.64    
  184.54      205.83      213.45      205.83      184.54      153.64      118.55      84.836      57.149      37.970    
  26.569      19.499      14.929      12.204      10.648      9.7746      9.2754      8.9870      8.8532      8.8291    
  10.797      10.741      10.613      10.501      10.486      10.648      11.110      12.072      13.855      16.942    
  21.884      29.075      40.272      57.149      78.872      102.43      123.66      138.43      143.73      138.43    
  123.66      102.43      78.872      57.149      40.272      29.075      21.884      16.942      13.855      12.072    
  11.110      10.648      10.486      10.501      10.613      10.741      14.378      14.215      13.779      13.197    
  12.623      12.204      12.072      12.364      13.266      15.066      18.139      22.780      29.075      37.970    
  49.882      63.475      76.211      85.287      88.576      85.287      76.211      63.475      49.882      37.970    
  29.075      22.780      18.139      15.066      13.266      12.364      12.072      12.204      12.623      13.197    
  13.779      14.215      20.636      20.283      19.301      17.896      16.347      14.929      13.855      13.266    
  13.259      13.950      15.515      18.139      21.884      26.569      32.234      38.754      45.074      49.708    
  51.412      49.708      45.074      38.754      32.234      26.569      21.884      18.139      15.515      13.950    
  13.259      13.266      13.855      14.929      16.347      17.896      19.301      20.283      30.998      30.269    
  28.287      25.543      22.495      19.499      16.942      15.066      13.950      13.583      13.950      15.066    
  16.942      19.499      22.495      25.543      28.287      30.269      30.998      30.269      28.287      25.543    
  22.495      19.499      16.942      15.066      13.950      13.583      13.950      15.066      16.942      19.499    
  22.495      25.543      28.287      30.269      51.412      49.708      45.074      38.754      32.234      26.569    
  21.884      18.139      15.515      13.950      13.259      13.266      13.855      14.929      16.347      17.896    
  19.301      20.283      20.636      20.283      19.301      17.896      16.347      14.929      13.855      13.266    
  13.259      13.950      15.515      18.139      21.884      26.569      32.234      38.754      45.074      49.708    
  88.576      85.287      76.211      63.475      49.882      37.970      29.075      22.780      18.139      15.066    
  13.266      12.364      12.072      12.204      12.623      13.197      13.779      14.215      14.378      14.215    
  13.779      13.197      12.623      12.204      12.072      12.364      13.266      15.066      18.139      22.780    
  29.075      37.970      49.882      63.475      76.211      85.287      143.73      138.43      123.66      102.43    
  78.872      57.149      40.272      29.075      21.884      16.942      13.855      12.072      11.110      10.648    
  10.486      10.501      10.613      10.741      10.797      10.741      10.613      10.501      10.486      10.648    
  11.110      12.072      13.855      16.942      21.884      29.075      40.272      57.149      78.872      102.43    
  123.66      138.43      213.45      205.83      184.54      153.64      118.55      84.836      57.149      37.970    
  26.569      19.499      14.929      12.204      10.648      9.7746      9.2754      8.9870      8.8532      8.8291    
  8.8360      8.8291      8.8532      8.9870      9.2754      9.7746      10.648      12.204      14.929      19.499    
  26.569      37.970      57.149      84.836      118.55      153.64      184.54      205.83      293.07      282.67    