Ag                                      
   1.00000000000000     
     4.164240    0.000000    0.000000
     0.000000    4.164240    0.000000
     0.000000    0.000000    4.164240
   Ag
     4
Direct
  0.000000  0.000000  0.000000
  0.000000  0.500000  0.500000
  0.500000  0.000000  0.500000
  0.500000  0.500000  0.000000
 
   36   36   36
 0.56141771857E+03 0.53795897326E+03 0.47546246080E+03 0.39184292449E+03 0.30388445623E+03
 0.22132712009E+03 0.14920995671E+03 0.91999974116E+02 0.53198686089E+02 0.31762776500E+02
 0.20999481155E+02 0.14545687850E+02 0.10854986792E+02 0.88432041186E+01 0.76691116585E+01
 0.68742264068E+01 0.63746011693E+01 0.61707432382E+01 0.61352859605E+01 0.61707432382E+01
 0.63746011693E+01 0.68742264068E+01 0.76691116585E+01 0.88432041186E+01 0.10854986792E+02
 0.14545687850E+02 0.20999481155E+02 0.31762776500E+02 0.53198686089E+02 0.91999974116E+02
 0.14920995671E+03 0.22132712009E+03 0.30388445623E+03 0.39184292449E+03 0.47546246080E+03
 0.53795897326E+03 0.53795897326E+03 0.51585842056E+03 0.45680543302E+03 0.37732701765E+03
 0.29306995712E+03 0.21344686336E+03 0.14372566695E+03 0.88575564791E+02 0.51411641513E+02
 0.30998059579E+02 0.20636474358E+02 0.14378235484E+02 0.10797180616E+02 0.88360440466E+01
 0.76839764001E+01 0.69015581923E+01 0.64091662805E+01 0.62067788125E+01 0.61707432382E+01
 0.62067788125E+01 0.64091662805E+01 0.69015581923E+01 0.76839764001E+01 0.88360440466E+01
 0.10797180616E+02 0.14378235484E+02 0.20636474358E+02 0.30998059579E+02 0.51411641513E+02
 0.88575564791E+02 0.14372566695E+03 0.21344686336E+03 0.29306995712E+03 0.37732701765E+03
 0.45680543302E+03 0.51585842056E+03 0.47546246080E+03 0.45680543302E+03 0.40650862711E+03
 0.33765116998E+03 0.26307986623E+03 0.19140928092E+03 0.12841452781E+03 0.79115869993E+02
 0.46549200049E+02 0.28923468298E+02 0.19625957747E+02 0.13928982476E+02 0.10666335637E+02
 0.88612199521E+01 0.77874133903E+01 0.70565821070E+01 0.65983983878E+01 0.64091662805E+01
 0.63746011693E+01 0.64091662805E+01 0.65983983878E+01 0.70565821070E+01 0.77874133903E+01
 0.88612199521E+01 0.10666335637E+02 0.13928982476E+02 0.19625957747E+02 0.28923468298E+02
 0.46549200049E+02 0.79115869993E+02 0.12841452781E+03 0.19140928092E+03 0.26307986623E+03
 0.33765116998E+03 0.40650862711E+03 0.45680543302E+03 0.39184292449E+03 0.37732701765E+03
 0.33765116998E+03 0.28197607402E+03 0.22000800113E+03 0.15943698720E+03 0.10638275377E+03
 0.65818350514E+02 0.39910089558E+02 0.26065504770E+02 0.18180070953E+02 0.13330188343E+02
 0.10552331769E+02 0.89995041062E+01 0.80684590893E+01 0.74413537057E+01 0.70565821070E+01
 0.69015581923E+01 0.68742264068E+01 0.69015581923E+01 0.70565821070E+01 0.74413537057E+01
 0.80684590893E+01 0.89995041062E+01 0.10552331769E+02 0.13330188343E+02 0.18180070953E+02
 0.26065504770E+02 0.39910089558E+02 0.65818350514E+02 0.10638275377E+03 0.15943698720E+03
 0.22000800113E+03 0.28197607402E+03 0.33765116998E+03 0.37732701765E+03 0.30388445623E+03
 0.29306995712E+03 0.26307986623E+03 0.22000800113E+03 0.17108826408E+03 0.12309396314E+03
 0.81877102327E+02 0.51587568057E+02 0.33058901404E+02 0.22923399677E+02 0.16583633172E+02
 0.12739811794E+02 0.10537551718E+02 0.92956415538E+01 0.85526572177E+01 0.80684590893E+01
 0.77874133903E+01 0.76839764001E+01 0.76691116585E+01 0.76839764001E+01 0.77874133903E+01
 0.80684590893E+01 0.85526572177E+01 0.92956415538E+01 0.10537551718E+02 0.12739811794E+02
 0.16583633172E+02 0.22923399677E+02 0.33058901404E+02 0.51587568057E+02 0.81877102327E+02
 0.12309396314E+03 0.17108826408E+03 0.22000800113E+03 0.26307986623E+03 0.29306995712E+03
 0.22132712009E+03 0.21344686336E+03 0.19140928092E+03 0.15943698720E+03 0.12309396314E+03
 0.88082814022E+02 0.59195924259E+02 0.39080849605E+02 0.27132493479E+02 0.19837218600E+02
 0.15119365567E+02 0.12307018982E+02 0.10703345425E+02 0.98069945839E+01 0.92956415538E+01
 0.89995041062E+01 0.88612199521E+01 0.88360440466E+01 0.88432041186E+01 0.88360440466E+01
 0.88612199521E+01 0.89995041062E+01 0.92956415538E+01 0.98069945839E+01 0.10703345425E+02
 0.12307018982E+02 0.15119365567E+02 0.19837218600E+02 0.27132493479E+02 0.39080849605E+02
 0.59195924259E+02 0.88082814022E+02 0.12309396314E+03 0.15943698720E+03 0.19140928092E+03
 0.21344686336E+03 0.14920995671E+03 0.14372566695E+03 0.12841452781E+03 0.10638275377E+03
 0.81877102327E+02 0.59195924259E+02 0.41498511651E+02 0.29744253707E+02 0.22297049586E+02
 0.17198016058E+02 0.14009213239E+02 0.12168613342E+02 0.11177304792E+02 0.10703345425E+02
 0.10537551718E+02 0.10552331769E+02 0.10666335637E+02 0.10797180616E+02 0.10854986792E+02
 0.10797180616E+02 0.10666335637E+02 0.10552331769E+02 0.10537551718E+02 0.10703345425E+02
 0.11177304792E+02 0.12168613342E+02 0.14009213239E+02 0.17198016058E+02 0.22297049586E+02
 0.29744253707E+02 0.41498511651E+02 0.59195924259E+02 0.81877102327E+02 0.10638275377E+03
 0.12841452781E+03 0.14372566695E+03 0.91999974116E+02 0.88575564791E+02 0.79115869993E+02
 0.65818350514E+02 0.51587568057E+02 0.39080849605E+02 0.29744253707E+02 0.23220640134E+02
 0.18432641715E+02 0.15257426091E+02 0.13397842340E+02 0.12467698455E+02 0.12168613342E+02
 0.12307018982E+02 0.12739811794E+02 0.13330188343E+02 0.13928982476E+02 0.14378235484E+02
 0.14545687850E+02 0.14378235484E+02 0.13928982476E+02 0.13330188343E+02 0.12739811794E+02
 0.12307018982E+02 0.12168613342E+02 0.12467698455E+02 0.13397842340E+02 0.15257426091E+02
 0.18432641715E+02 0.23220640134E+02 0.29744253707E+02 0.39080849605E+02 0.51587568057E+02
 0.65818350514E+02 0.79115869993E+02 0.88575564791E+02 0.53198686089E+02 0.51411641513E+02
 0.46549200049E+02 0.39910089558E+02 0.33058901404E+02 0.27132493479E+02 0.22297049586E+02
 0.18432641715E+02 0.15720234523E+02 0.14101414705E+02 0.13387475639E+02 0.13397842340E+02
 0.14009213239E+02 0.15119365567E+02 0.16583633172E+02 0.18180070953E+02 0.19625957747E+02
 0.20636474358E+02 0.20999481155E+02 0.20636474358E+02 0.19625957747E+02 0.18180070953E+02
 0.16583633172E+02 0.15119365567E+02 0.14009213239E+02 0.13397842340E+02 0.13387475639E+02
 0.14101414705E+02 0.15720234523E+02 0.18432641715E+02 0.22297049586E+02 0.27132493479E+02
 0.33058901404E+02 0.39910089558E+02 0.46549200049E+02 0.51411641513E+02 0.31762776500E+02
 0.30998059579E+02 0.28923468298E+02 0.26065504770E+02 0.22923399677E+02 0.19837218600E+02
 0.17198016058E+02 0.15257426091E+02 0.14101414705E+02 0.13721306918E+02 0.14101414705E+02
 0.15257426091E+02 0.17198016058E+02 0.19837218600E+02 0.22923399677E+02 0.26065504770E+02
 0.28923468298E+02 0.30998059579E+02 0.31762776500E+02 0.30998059579E+02 0.28923468298E+02
 0.26065504770E+02 0.22923399677E+02 0.19837218600E+02 0.17198016058E+02 0.15257426091E+02
 0.14101414705E+02 0.13721306918E+02 0.14101414705E+02 0.15257426091E+02 0.17198016058E+02
 0.19837218600E+02 0.22923399677E+02 0.26065504770E+02 0.28923468298E+02 0.30998059579E+02
 0.20999481155E+02 0.20636474358E+02 0.19625957747E+02 0.18180070953E+02 0.16583633172E+02
 0.15119365567E+02 0.14009213239E+02 0.13397842340E+02 0.13387475639E+02 0.14101414705E+02
 0.15720234523E+02 0.18432641715E+02 0.22297049586E+02 0.27132493479E+02 0.33058901404E+02
 0.39910089558E+02 0.46549200049E+02 0.51411641513E+02 0.53198686089E+02 0.51411641513E+02
 0.46549200049E+02 0.39910089558E+02 0.33058901404E+02 0.27132493479E+02 0.22297049586E+02
 0.18432641715E+02 0.15720234523E+02 0.14101414705E+02 0.13387475639E+02 0.13397842340E+02
 0.14009213239E+02 0.15119365567E+02 0.16583633172E+02 0.18180070953E+02 0.19625957747E+02
 0.20636474358E+02 0.14545687850E+02 0.14378235484E+02 0.13928982476E+02 0.13330188343E+02
 0.12739811794E+02 0.12307018982E+02 0.12168613342E+02 0.12467698455E+02 0.13397842340E+02
 0.15257426091E+02 0.18432641715E+02 0.23220640134E+02 0.29744253707E+02 0.39080849605E+02
 0.51587568057E+02 0.65818350514E+02 0.79115869993E+02 0.88575564791E+02 0.91999974116E+02
 0.88575564791E+02 0.79115869993E+02 0.65818350514E+02 0.51587568057E+02 0.39080849605E+02
 0.29744253707E+02 0.23220640134E+02 0.18432641715E+02 0.15257426091E+02 0.13397842340E+02
 0.12467698455E+02 0.12168613342E+02 0.12307018982E+02 0.12739811794E+02 0.13330188343E+02
 0.13928982476E+02 0.14378235484E+02 0.10854986792E+02 0.10797180616E+02 0.10666335637E+02
 0.10552331769E+02 0.10537551718E+02 0.10703345425E+02 0.11177304792E+02 0.12168613342E+02
 0.14009213239E+02 0.17198016058E+02 0.22297049586E+02 0.29744253707E+02 0.41498511651E+02
 0.59195924259E+02 0.81877102327E+02 0.10638275377E+03 0.12841452781E+03 0.14372566695E+03
 0.14920995671E+03 0.14372566695E+03 0.12841452781E+03 0.10638275377E+03 0.81877102327E+02
 0.59195924259E+02 0.41498511651E+02 0.29744253707E+02 0.22297049586E+02 0.17198016058E+02
 0.14009213239E+02 0.12168613342E+02 0.11177304792E+02 0.10703345425E+02 0.10537551718E+02
 0.10552331769E+02 0.10666335637E+02 0.10797180616E+02 0.88432041186E+01 0.88360440466E+01
 0.88612199521E+01 0.89995041062E+01 0.92956415538E+01 0.98069945839E+01 0.10703345425E+02
 0.12307018982E+02 0.15119365567E+02 0.19837218600E+02 0.27132493479E+02 0.39080849605E+02
 0.59195924259E+02 0.88082814022E+02 0.12309396314E+03 0.15943698720E+03 0.19140928092E+03
 0.21344686336E+03 0.22132712009E+03 0.21344686336E+03 0.19140928092E+03 0.15943698720E+03
 0.12309396314E+03 0.88082814022E+02 0.59195924259E+02 0.39080849605E+02 0.27132493479E+02
 0.19837218600E+02 0.15119365567E+02 0.12307018982E+02 0.10703345425E+02 0.98069945839E+01
 0.92956415538E+01 0.89995041062E+01 0.88612199521E+01 0.88360440466E+01 0.76691116585E+01
 0.76839764001E+01 0.77874133903E+01 0.80684590893E+01 0.85526572177E+01 0.92956415538E+01
 0.10537551718E+02 0.12739811794E+02 0.16583633172E+02 0.22923399677E+02 0.33058901404E+02
 0.51587568057E+02 0.81877102327E+02 0.12309396314E+03 0.17108826408E+03 0.22000800113E+03
 0.26307986623E+03 0.29306995712E+03 0.30388445623E+03 0.29306995712E+03 0.26307986623E+03
 0.22000800113E+03 0.17108826408E+03 0.12309396314E+03 0.81877102327E+02 0.51587568057E+02
 0.33058901404E+02 0.22923399677E+02 0.16583633172E+02 0.12739811794E+02 0.10537551718E+02
 0.92956415538E+01 0.85526572177E+01 0.80684590893E+01 0.77874133903E+01 0.76839764001E+01
 0.68742264068E+01 0.69015581923E+01 0.70565821070E+01 0.74413537057E+01 0.80684590893E+01
 0.89995041062E+01 0.10552331769E+02 0.13330188343E+02 0.18180070953E+02 0.26065504770E+02
 0.39910089558E+02 0.65818350514E+02 0.10638275377E+03 0.15943698720E+03 0.22000800113E+03
 0.28197607402E+03 0.33765116998E+03 0.37732701765E+03 0.39184292449E+03 0.37732701765E+03
 0.33765116998E+03 0.28197607402E+03 0.22000800113E+03 0.15943698720E+03 0.10638275377E+03
 0.65818350514E+02 0.39910089558E+02 0.26065504770E+02 0.18180070953E+02 0.13330188343E+02
 0.10552331769E+02 0.89995041062E+01 0.80684590893E+01 0.74413537057E+01 0.70565821070E+01
 0.69015581923E+01 0.63746011693E+01 0.64091662805E+01 0.65983983878E+01 0.70565821070E+01
 0.77874133903E+01 0.88612199521E+01 0.10666335637E+02 0.13928982476E+02 0.19625957747E+02
 0.28923468298E+02 0.46549200049E+02 0.79115869993E+02 0.12841452781E+03 0.19140928092E+03
 0.26307986623E+03 0.33765116998E+03 0.40650862711E+03 0.45680543302E+03 0.47546246080E+03
 0.45680543302E+03 0.40650862711E+03 0.33765116998E+03 0.26307986623E+03 0.19140928092E+03
 0.12841452781E+03 0.79115869993E+02 0.46549200049E+02 0.28923468298E+02 0.19625957747E+02
 0.13928982476E+02 0.10666335637E+02 0.88612199521E+01 0.77874133903E+01 0.70565821070E+01
 0.65983983878E+01 0.64091662805E+01 0.61707432382E+01 0.62067788125E+01 0.64091662805E+01
 0.69015581923E+01 0.76839764001E+01 0.88360440466E+01 0.10797180616E+02 0.14378235484E+02
 0.20636474358E+02 0.30998059579E+02 0.51411641513E+02 0.88575564791E+02 0.14372566695E+03
 0.21344686336E+03 0.29306995712E+03 0.37732701765E+03 0.45680543302E+03 0.51585842056E+03
 0.53795897326E+03 0.51585842056E+03 0.45680543302E+03 0.37732701765E+03 0.29306995712E+03
 0.21344686336E+03 0.14372566695E+03 0.88575564791E+02 0.51411641513E+02 0.30998059579E+02
 0.20636474358E+02 0.14378235484E+02 0.10797180616E+02 0.88360440466E+01 0.76839764001E+01
 0.69015581923E+01 0.64091662805E+01 0.62067788125E+01 0.61352859605E+01 0.61707432382E+01
 0.63746011693E+01 0.68742264068E+01 0.76691116585E+01 0.88432041186E+01 0.10854986792E+02
 0.14545687850E+02 0.20999481155E+02 0.31762776500E+02 0.53198686089E+02 0.91999974116E+02
 0.14920995671E+03 0.22132712009E+03 0.30388445623E+03 0.39184292449E+03 0.47546246080E+03
 0.53795897326E+03 0.56141771857E+03 0.53795897326E+03 0.47546246080E+03 0.39184292449E+03
 0.30388445623E+03 0.22132712009E+03 0.14920995671E+03 0.91999974116E+02 0.53198686089E+02
 0.31762776500E+02 0.20999481155E+02 0.14545687850E+02 0.10854986792E+02 0.88432041186E+01
 0.76691116585E+01 0.68742264068E+01 0.63746011693E+01 0.61707432382E+01 0.61707432382E+01
 0.62067788125E+01 0.64091662805E+01 0.69015581923E+01 0.76839764001E+01 0.88360440466E+01
 0.10797180616E+02 0.14378235484E+02 0.20636474358E+02 0.30998059579E+02 0.51411641513E+02
 0.88575564791E+02 0.14372566695E+03 0.21344686336E+03 0.29306995712E+03 0.37732701765E+03
 0.45680543302E+03 0.51585842056E+03 0.53795897326E+03 0.51585842056E+03 0.45680543302E+03
 0.37732701765E+03 0.29306995712E+03 0.21344686336E+03 0.14372566695E+03 0.88575564791E+02
 0.51411641513E+02 0.30998059579E+02 0.20636474358E+02 0.14378235484E+02 0.10797180616E+02
 0.88360440466E+01 0.76839764001E+01 0.69015581923E+01 0.64091662805E+01 0.62067788125E+01
 0.63746011693E+01 0.64091662805E+01 0.65983983878E+01 0.70565821070E+01 0.77874133903E+01
 0.88612199521E+01 0.10666335637E+02 0.13928982476E+02 0.19625957747E+02 0.28923468298E+02
 0.46549200049E+02 0.79115869993E+02 0.12841452781E+03 0.19140928092E+03 0.26307986623E+03
 0.33765116998E+03 0.40650862711E+03 0.45680543302E+03 0.47546246080E+03 0.45680543302E+03
 0.40650862711E+03 0.33765116998E+03 0.26307986623E+03 0.19140928092E+03 0.12841452781E+03
 0.79115869993E+02 0.46549200049E+02 0.28923468298E+02 0.19625957747E+02 0.13928982476E+02
 0.10666335637E+02 0.88612199521E+01 0.77874133903E+01 0.70565821070E+01 0.65983983878E+01
 0.64091662805E+01 0.68742264068E+01 0.69015581923E+01 0.70565821070E+01 0.74413537057E+01
 0.80684590893E+01 0.89995041062E+01 0.10552331769E+02 0.13330188343E+02 0.18180070953E+02
 0.26065504770E+02 0.39910089558E+02 0.65818350514E+02 0.10638275377E+03 0.15943698720E+03
 0.22000800113E+03 0.28197607402E+03 0.33765116998E+03 0.37732701765E+03 0.39184292449E+03
 0.37732701765E+03 0.33765116998E+03 0.28197607402E+03 0.22000800113E+03 0.15943698720E+03
 0.10638275377E+03 0.65818350514E+02 0.39910089558E+02 0.26065504770E+02 0.18180070953E+02
 0.13330188343E+02 0.10552331769E+02 0.89995041062E+01 0.80684590893E+01 0.74413537057E+01
 0.70565821070E+01 0.69015581923E+01 0.76691116585E+01 0.76839764001E+01 0.77874133903E+01
 0.80684590893E+01 0.85526572177E+01 0.92956415538E+01 0.10537551718E+02 0.12739811794E+02
 0.16583633172E+02 0.22923399677E+02 0.33058901404E+02 0.51587568057E+02 0.81877102327E+02
 0.12309396314E+03 0.17108826408E+03 0.22000800113E+03 0.26307986623E+03 0.29306995712E+03
 0.30388445623E+03 0.29306995712E+03 0.26307986623E+03 0.22000800113E+03 0.17108826408E+03
 0.12309396314E+03 0.81877102327E+02 0.51587568057E+02 0.33058901404E+02 0.22923399677E+02
 0.16583633172E+02 0.12739811794E+02 0.10537551718E+02 0.92956415538E+01 0.85526572177E+01
 0.80684590893E+01 0.77874133903E+01 0.76839764001E+01 0.88432041186E+01 0.88360440466E+01
 0.88612199521E+01 0.89995041062E+01 0.92956415538E+01 0.98069945839E+01 0.10703345425E+02
 0.12307018982E+02 0.15119365567E+02 0.19837218600E+02 0.27132493479E+02 0.39080849605E+02
 0.59195924259E+02 0.88082814022E+02 0.12309396314E+03 0.15943698720E+03 0.19140928092E+03
 0.21344686336E+03 0.22132712009E+03 0.21344686336E+03 0.19140928092E+03 0.15943698720E+03
 0.12309396314E+03 0.88082814022E+02 0.59195924259E+02 0.39080849605E+02 0.27132493479E+02
 0.19837218600E+02 0.15119365567E+02 0.12307018982E+02 0.10703345425E+02 0.98069945839E+01
 0.92956415538E+01 0.89995041062E+01 0.88612199521E+01 0.88360440466E+01 0.10854986792E+02
 0.10797180616E+02 0.10666335637E+02 0.10552331769E+02 0.10537551718E+02 0.10703345425E+02
 0.11177304792E+02 0.12168613342E+02 0.14009213239E+02 0.17198016058E+02 0.22297049586E+02
 0.29744253707E+02 0.41498511651E+02 0.59195924259E+02 0.81877102327E+02 0.10638275377E+03
 0.12841452781E+03 0.14372566695E+03 0.14920995671E+03 0.14372566695E+03 0.12841452781E+03
 0.10638275377E+03 0.81877102327E+02 0.59195924259E+02 0.41498511651E+02 0.29744253707E+02
 0.22297049586E+02 0.17198016058E+02 0.14009213239E+02 0.12168613342E+02 0.11177304792E+02
 0.10703345425E+02 0.10537551718E+02 0.10552331769E+02 0.10666335637E+02 0.10797180616E+02
 0.14545687850E+02 0.14378235484E+02 0.13928982476E+02 0.13330188343E+02 0.12739811794E+02
 0.12307018982E+02 0.12168613342E+02 0.12467698455E+02 0.13397842340E+02 0.15257426091E+02
 0.18432641715E+02 0.23220640134E+02 0.29744253707E+02 0.39080849605E+02 0.51587568057E+02
 0.65818350514E+02 0.79115869993E+02 0.88575564791E+02 0.91999974116E+02 0.88575564791E+02
 0.79115869993E+02 0.65818350514E+02 0.51587568057E+02 0.39080849605E+02 0.29744253707E+02
 0.23220640134E+02 0.18432641715E+02 0.15257426091E+02 0.13397842340E+02 0.12467698455E+02
 0.12168613342E+02 0.12307018982E+02 0.12739811794E+02 0.13330188343E+02 0.13928982476E+02
 0.14378235484E+02 0.20999481155E+02 0.20636474358E+02 0.19625957747E+02 0.18180070953E+02
 0.16583633172E+02 0.15119365567E+02 0.14009213239E+02 0.13397842340E+02 0.13387475639E+02
 0.14101414705E+02 0.15720234523E+02 0.18432641715E+02 0.22297049586E+02 0.27132493479E+02
 0.33058901404E+02 0.39910089558E+02 0.46549200049E+02 0.51411641513E+02 0.53198686089E+02
 0.51411641513E+02 0.46549200049E+02 0.39910089558E+02 0.33058901404E+02 0.27132493479E+02
 0.22297049586E+02 0.18432641715E+02 0.15720234523E+02 0.14101414705E+02 0.13387475639E+02
 0.13397842340E+02 0.14009213239E+02 0.15119365567E+02 0.16583633172E+02 0.18180070953E+02
 0.19625957747E+02 0.20636474358E+02 0.31762776500E+02 0.30998059579E+02 0.28923468298E+02
 0.26065504770E+02 0.22923399677E+02 0.19837218600E+02 0.17198016058E+02 0.15257426091E+02
 0.14101414705E+02 0.13721306918E+02 0.14101414705E+02 0.15257426091E+02 0.17198016058E+02
 0.19837218600E+02 0.22923399677E+02 0.26065504770E+02 0.28923468298E+02 0.30998059579E+02
 0.31762776500E+02 0.30998059579E+02 0.28923468298E+02 0.26065504770E+02 0.22923399677E+02
 0.19837218600E+02 0.17198016058E+02 0.15257426091E+02 0.14101414705E+02 0.13721306918E+02
 0.14101414705E+02 0.15257426091E+02 0.17198016058E+02 0.19837218600E+02 0.22923399677E+02
 0.26065504770E+02 0.28923468298E+02 0.30998059579E+02 0.53198686089E+02 0.51411641513E+02
 0.46549200049E+02 0.39910089558E+02 0.33058901404E+02 0.27132493479E+02 0.22297049586E+02
 0.18432641715E+02 0.15720234523E+02 0.14101414705E+02 0.13387475639E+02 0.13397842340E+02
 0.14009213239E+02 0.15119365567E+02 0.16583633172E+02 0.18180070953E+02 0.19625957747E+02
 0.20636474358E+02 0.20999481155E+02 0.20636474358E+02 0.19625957747E+02 0.18180070953E+02
 0.16583633172E+02 0.15119365567E+02 0.14009213239E+02 0.13397842340E+02 0.13387475639E+02
 0.14101414705E+02 0.15720234523E+02 0.18432641715E+02 0.22297049586E+02 0.27132493479E+02
 0.33058901404E+02 0.39910089558E+02 0.46549200049E+02 0.51411641513E+02 0.91999974116E+02
 0.88575564791E+02 0.79115869993E+02 0.65818350514E+02 0.51587568057E+02 0.39080849605E+02
 0.29744253707E+02 0.23220640134E+02 0.18432641715E+02 0.15257426091E+02 0.13397842340E+02
 0.12467698455E+02 0.12168613342E+02 0.12307018982E+02 0.12739811794E+02 0.13330188343E+02
 0.13928982476E+02 0.14378235484E+02 0.14545687850E+02 0.14378235484E+02 0.13928982476E+02
 0.13330188343E+02 0.12739811794E+02 0.12307018982E+02 0.12168613342E+02 0.12467698455E+02
 0.13397842340E+02 0.15257426091E+02 0.18432641715E+02 0.23220640134E+02 0.29744253707E+02
 0.39080849605E+02 0.51587568057E+02 0.65818350514E+02 0.79115869993E+02 0.88575564791E+02
 0.14920995671E+03 0.14372566695E+03 0.12841452781E+03 0.10638275377E+03 0.81877102327E+02
 0.59195924259E+02 0.41498511651E+02 0.29744253707E+02 0.22297049586E+02 0.17198016058E+02
 0.14009213239E+02 0.12168613342E+02 0.11177304792E+02 0.10703345425E+02 0.10537551718E+02
 0.10552331769E+02 0.10666335637E+02 0.10797180616E+02 0.10854986792E+02 0.10797180616E+02
 0.10666335637E+02 0.10552331769E+02 0.10537551718E+02 0.10703345425E+02 0.11177304792E+02
 0.12168613342E+02 0.14009213239E+02 0.17198016058E+02 0.22297049586E+02 0.29744253707E+02
 0.41498511651E+02 0.59195924259E+02 0.81877102327E+02 0.10638275377E+03 0.12841452781E+03
 0.14372566695E+03 0.22132712009E+03 0.21344686336E+03 0.19140928092E+03 0.15943698720E+03
 0.12309396314E+03 0.88082814022E+02 0.59195924259E+02 0.39080849605E+02 0.27132493479E+02
 0.19837218600E+02 0.15119365567E+02 0.12307018982E+02 0.10703345425E+02 0.98069945839E+01
 0.92956415538E+01 0.89995041062E+01 0.88612199521E+01 0.88360440466E+01 0.88432041186E+01
 0.88360440466E+01 0.88612199521E+01 0.89995041062E+01 0.92956415538E+01 0.98069945839E+01
 0.10703345425E+02 0.12307018982E+02 0.15119365567E+02 0.19837218600E+02 0.27132493479E+02
 0.39080849605E+02 0.59195924259E+02 0.88082814022E+02 0.12309396314E+03 0.15943698720E+03
 0.19140928092E+03 0.21344686336E+03 0.30388445623E+03 0.29306995712E+03 0.26307986623E+03
 0.22000800113E+03 0.17108826408E+03 0.12309396314E+03 0.81877102327E+02 0.51587568057E+02
 0.33058901404E+02 0.22923399677E+02 0.16583633172E+02 0.12739811794E+02 0.10537551718E+02
 0.92956415538E+01 0.85526572177E+01 0.80684590893E+01 0.77874133903E+01 0.76839764001E+01
 0.76691116585E+01 0.76839764001E+01 0.77874133903E+01 0.80684590893E+01 0.85526572177E+01
 0.92956415538E+01 0.10537551718E+02 0.12739811794E+02 0.16583633172E+02 0.22923399677E+02
 0.33058901404E+02 0.51587568057E+02 0.81877102327E+02 0.12309396314E+03 0.17108826408E+03
 0.22000800113E+03 0.26307986623E+03 0.29306995712E+03 0.39184292449E+03 0.37732701765E+03
 0.33765116998E+03 0.28197607402E+03 0.22000800113E+03 0.15943698720E+03 0.10638275377E+03
 0.65818350514E+02 0.39910089558E+02 0.26065504770E+02 0.18180070953E+02 0.13330188343E+02
 0.10552331769E+02 0.89995041062E+01 0.80684590893E+01 0.74413537057E+01 0.70565821070E+01
 0.69015581923E+01 0.68742264068E+01 0.69015581923E+01 0.70565821070E+01 0.74413537057E+01
 0.80684590893E+01 0.89995041062E+01 0.10552331769E+02 0.13330188343E+02 0.18180070953E+02
 0.26065504770E+02 0.39910089558E+02 0.65818350514E+02 0.10638275377E+03 0.15943698720E+03
 0.22000800113E+03 0.28197607402E+03 0.33765116998E+03 0.37732701765E+03 0.47546246080E+03
 0.45680543302E+03 0.40650862711E+03 0.33765116998E+03 0.26307986623E+03 0.19140928092E+03
 0.12841452781E+03 0.79115869993E+02 0.46549200049E+02 0.28923468298E+02 0.19625957747E+02
 0.13928982476E+02 0.10666335637E+02 0.88612199521E+01 0.77874133903E+01 0.70565821070E+01
 0.65983983878E+01 0.64091662805E+01 0.63746011693E+01 0.64091662805E+01 0.65983983878E+01
 0.70565821070E+01 0.77874133903E+01 0.88612199521E+01 0.10666335637E+02 0.13928982476E+02
 0.19625957747E+02 0.28923468298E+02 0.46549200049E+02 0.79115869993E+02 0.12841452781E+03
 0.19140928092E+03 0.26307986623E+03 0.33765116998E+03 0.40650862711E+03 0.45680543302E+03
 0.53795897326E+03 0.51585842056E+03 0.45680543302E+03 0.37732701765E+03 0.29306995712E+03
 0.21344686336E+03 0.14372566695E+03 0.88575564791E+02 0.51411641513E+02 0.30998059579E+02
 0.20636474358E+02 0.14378235484E+02 0.10797180616E+02 0.88360440466E+01 0.76839764001E+01
 0.69015581923E+01 0.64091662805E+01 0.62067788125E+01 0.61707432382E+01 0.62067788125E+01
 0.64091662805E+01 0.69015581923E+01 0.76839764001E+01 0.88360440466E+01 0.10797180616E+02
 0.14378235484E+02 0.20636474358E+02 0.30998059579E+02 0.51411641513E+02 0.88575564791E+02
 0.14372566695E+03 0.21344686336E+03 0.29306995712E+03 0.37732701765E+03 0.45680543302E+03
 0.51585842056E+03 0.53795897326E+03 0.51585842056E+03 0.45680543302E+03 0.37732701765E+03
 0.29306995712E+03 0.21344686336E+03 0.14372566695E+03 0.88575564791E+02 0.51411641513E+02
 0.30998059579E+02 0.20636474358E+02 0.14378235484E+02 0.10797180616E+02 0.88360440466E+01
 0.76839764001E+01 0.69015581923E+01 0.64091662805E+01 0.62067788125E+01 0.61707432382E+01
 0.62067788125E+01 0.64091662805E+01 0.69015581923E+01 0.76839764001E+01 0.88360440466E+01
 0.10797180616E+02 0.14378235484E+02 0.20636474358E+02 0.30998059579E+02 0.51411641513E+02
 0.88575564791E+02 0.14372566695E+03 0.21344686336E+03 0.29306995712E+03 0.37732701765E+03
 0.45680543302E+03 0.51585842056E+03 0.51585842056E+03 0.49500609653E+03 0.43912239856E+03
 0.36347154178E+03 0.28266994829E+03 0.20583498427E+03 0.13843191334E+03 0.85287034531E+02
 0.49707548745E+02 0.30268666624E+02 0.20283356051E+02 0.14215461463E+02 0.10740823924E+02
 0.88290863414E+01 0.76988559510E+01 0.69290403981E+01 0.64440580517E+01 0.62433122197E+01
 0.62067788125E+01 0.62433122197E+01 0.64440580517E+01 0.69290403981E+01 0.76988559510E+01
 0.88290863414E+01 0.10740823924E+02 0.14215461463E+02 0.20283356051E+02 0.30268666624E+02
 0.49707548745E+02 0.85287034531E+02 0.13843191334E+03 0.20583498427E+03 0.28266994829E+03
 0.36347154178E+03 0.43912239856E+03 0.49500609653E+03 0.45680543302E+03 0.43912239856E+03
 0.39131277385E+03 0.32550669736E+03 0.25378486977E+03 0.18453987373E+03 0.12365976605E+03
 0.76210616273E+02 0.45074077940E+02 0.28286676028E+02 0.19300752886E+02 0.13778654388E+02
 0.10612884914E+02 0.88532060794E+01 0.78002371857E+01 0.70819560803E+01 0.66313505936E+01
 0.64440580517E+01 0.64091662805E+01 0.64440580517E+01 0.66313505936E+01 0.70819560803E+01
 0.78002371857E+01 0.88532060794E+01 0.10612884914E+02 0.13778654388E+02 0.19300752886E+02
 0.28286676028E+02 0.45074077940E+02 0.76210616273E+02 0.12365976605E+03 0.18453987373E+03
 0.25378486977E+03 0.32550669736E+03 0.39131277385E+03 0.43912239856E+03 0.37732701765E+03
 0.36347154178E+03 0.32550669736E+03 0.27200683153E+03 0.21220648341E+03 0.15363956649E+03
 0.10242985178E+03 0.63474868932E+02 0.38754400168E+02 0.25542781932E+02 0.17895965674E+02
 0.13196503876E+02 0.10500821134E+02 0.89870036932E+01 0.80746731025E+01 0.74593990677E+01
 0.70819560803E+01 0.69290403981E+01 0.69015581923E+01 0.69290403981E+01 0.70819560803E+01
 0.74593990677E+01 0.80746731025E+01 0.89870036932E+01 0.10500821134E+02 0.13196503876E+02
 0.17895965674E+02 0.25542781932E+02 0.38754400168E+02 0.63474868932E+02 0.10242985178E+03
 0.15363956649E+03 0.21220648341E+03 0.27200683153E+03 0.32550669736E+03 0.36347154178E+03
 0.29306995712E+03 0.28266994829E+03 0.25378486977E+03 0.21220648341E+03 0.16491268275E+03
 0.11854803371E+03 0.78872272283E+02 0.49881864320E+02 0.32234306953E+02 0.22495023187E+02
 0.16346895950E+02 0.12623266343E+02 0.10485845411E+02 0.92753501851E+01 0.85483230757E+01
 0.80746731025E+01 0.78002371857E+01 0.76988559510E+01 0.76839764001E+01 0.76988559510E+01
 0.78002371857E+01 0.80746731025E+01 0.85483230757E+01 0.92753501851E+01 0.10485845411E+02
 0.12623266343E+02 0.16346895950E+02 0.22495023187E+02 0.32234306953E+02 0.49881864320E+02
 0.78872272283E+02 0.11854803371E+03 0.16491268275E+03 0.21220648341E+03 0.25378486977E+03
 0.28266994829E+03 0.21344686336E+03 0.20583498427E+03 0.18453987373E+03 0.15363956649E+03
 0.11854803371E+03 0.84835640734E+02 0.57149008294E+02 0.37969778875E+02 0.26568921146E+02
 0.19498613605E+02 0.14928505578E+02 0.12204453662E+02 0.10647848190E+02 0.97746467993E+01
 0.92753501851E+01 0.89870036932E+01 0.88532060794E+01 0.88290863414E+01 0.88360440466E+01
 0.88290863414E+01 0.88532060794E+01 0.89870036932E+01 0.92753501851E+01 0.97746467993E+01
 0.10647848190E+02 0.12204453662E+02 0.14928505578E+02 0.19498613605E+02 0.26568921146E+02
 0.37969778875E+02 0.57149008294E+02 0.84835640734E+02 0.11854803371E+03 0.15363956649E+03
 0.18453987373E+03 0.20583498427E+03 0.14372566695E+03 0.13843191334E+03 0.12365976605E+03
 0.10242985178E+03 0.78872272283E+02 0.57149008294E+02 0.40272218121E+02 0.29074520342E+02
 0.21883764576E+02 0.16942134042E+02 0.13855434155E+02 0.12072381075E+02 0.11109773701E+02
 0.10647848190E+02 0.10485845411E+02 0.10500821134E+02 0.10612884914E+02 0.10740823924E+02
 0.10797180616E+02 0.10740823924E+02 0.10612884914E+02 0.10500821134E+02 0.10485845411E+02
 0.10647848190E+02 0.11109773701E+02 0.12072381075E+02 0.13855434155E+02 0.16942134042E+02
 0.21883764576E+02 0.29074520342E+02 0.40272218121E+02 0.57149008294E+02 0.78872272283E+02
 0.10242985178E+03 0.12365976605E+03 0.13843191334E+03 0.88575564791E+02 0.85287034531E+02
 0.76210616273E+02 0.63474868932E+02 0.49881864320E+02 0.37969778875E+02 0.29074520342E+02
 0.22779905834E+02 0.18138572076E+02 0.15066059995E+02 0.13266392158E+02 0.12364398378E+02
 0.12072381075E+02 0.12204453662E+02 0.12623266343E+02 0.13196503876E+02 0.13778654388E+02
 0.14215461463E+02 0.14378235484E+02 0.14215461463E+02 0.13778654388E+02 0.13196503876E+02
 0.12623266343E+02 0.12204453662E+02 0.12072381075E+02 0.12364398378E+02 0.13266392158E+02
 0.15066059995E+02 0.18138572076E+02 0.22779905834E+02 0.29074520342E+02 0.37969778875E+02
 0.49881864320E+02 0.63474868932E+02 0.76210616273E+02 0.85287034531E+02 0.51411641513E+02
 0.49707548745E+02 0.45074077940E+02 0.38754400168E+02 0.32234306953E+02 0.26568921146E+02
 0.21883764576E+02 0.18138572076E+02 0.15515061652E+02 0.13950083042E+02 0.13258646767E+02
 0.13266392158E+02 0.13855434155E+02 0.14928505578E+02 0.16346895950E+02 0.17895965674E+02
 0.19300752886E+02 0.20283356051E+02 0.20636474358E+02 0.20283356051E+02 0.19300752886E+02
 0.17895965674E+02 0.16346895950E+02 0.14928505578E+02 0.13855434155E+02 0.13266392158E+02
 0.13258646767E+02 0.13950083042E+02 0.15515061652E+02 0.18138572076E+02 0.21883764576E+02
 0.26568921146E+02 0.32234306953E+02 0.38754400168E+02 0.45074077940E+02 0.49707548745E+02
 0.30998059579E+02 0.30268666624E+02 0.28286676028E+02 0.25542781932E+02 0.22495023187E+02