   4   4   0   0
  0.1805291E+02  0.4164240E-09  0.4164240E-09  0.4164240E-09  0.5000000E-15
  1.000000000000000E-004
  CAR 
 Ag                                      
     37.76188391     -1.48128657  301      7.61639608      1.00000000
     -1.481  0.0000E+00  0.0000E+00
     -1.350  0.0000E+00  0.0000E+00
     -1.220  0.0000E+00  0.0000E+00
     -1.089  0.0000E+00  0.0000E+00
     -0.958  0.0000E+00  0.0000E+00
     -0.827  0.0000E+00  0.0000E+00
     -0.696  0.0000E+00  0.0000E+00
     -0.566  0.0000E+00  0.0000E+00
     -0.435  0.0000E+00  0.0000E+00
     -0.304  0.0000E+00  0.0000E+00
     -0.173  0.0000E+00  0.0000E+00
     -0.042  0.0000E+00  0.0000E+00
      0.088  0.2105E-10  0.2754E-11
      0.219  0.2770E-03  0.3623E-04
      0.350  0.2712E-01  0.3584E-02
      0.481  0.1350E+00  0.2124E-01
      0.612  0.2362E+00  0.5213E-01
      0.742  0.2613E+00  0.8631E-01
      0.873  0.1796E+00  0.1098E+00
      1.004  0.2546E+00  0.1431E+00
      1.135  0.7867E+00  0.2460E+00
      1.266  0.5372E+00  0.3163E+00
      1.397  0.9698E-01  0.3290E+00
      1.527  0.9937E+00  0.4590E+00
      1.658  0.1524E+01  0.6583E+00
      1.789  0.5794E+01  0.1416E+01
      1.920  0.1002E+02  0.2727E+01
      2.051  0.1223E+02  0.4327E+01
      2.181  0.1656E+02  0.6493E+01
      2.312  0.1220E+02  0.8088E+01
      2.443  0.1112E+02  0.9542E+01
      2.574  0.8917E+01  0.1071E+02
      2.705  0.1068E+02  0.1211E+02
      2.835  0.1192E+02  0.1367E+02
      2.966  0.1233E+02  0.1528E+02
      3.097  0.1029E+02  0.1662E+02
      3.228  0.1405E+02  0.1846E+02
      3.359  0.2200E+02  0.2134E+02
      3.490  0.1452E+02  0.2324E+02
      3.620  0.9724E+01  0.2451E+02
      3.751  0.1070E+02  0.2591E+02
      3.882  0.1544E+02  0.2793E+02
      4.013  0.1386E+02  0.2974E+02
      4.144  0.1276E+02  0.3141E+02
      4.274  0.1326E+02  0.3315E+02
      4.405  0.8894E+01  0.3431E+02
      4.536  0.1282E+02  0.3599E+02
      4.667  0.1919E+02  0.3850E+02
      4.798  0.1525E+02  0.4049E+02
      4.928  0.5716E+01  0.4124E+02
      5.059  0.7219E+00  0.4133E+02
      5.190  0.1348E+01  0.4151E+02
      5.321  0.2370E+01  0.4182E+02
      5.452  0.4060E+00  0.4187E+02
      5.582  0.1195E+01  0.4203E+02
      5.713  0.1091E+00  0.4204E+02
      5.844  0.6061E+00  0.4212E+02
      5.975  0.1206E+00  0.4214E+02
      6.106  0.2012E+01  0.4240E+02
      6.237  0.1548E+01  0.4260E+02
      6.367  0.5662E+00  0.4268E+02
      6.498  0.1381E+01  0.4286E+02
      6.629  0.9443E+00  0.4298E+02
      6.760  0.1627E+00  0.4300E+02
      6.891  0.2387E+00  0.4303E+02
      7.021  0.6857E+00  0.4312E+02
      7.152  0.1592E+01  0.4333E+02
      7.283  0.1208E+01  0.4349E+02
      7.414  0.3008E+01  0.4388E+02
      7.545  0.2238E+00  0.4391E+02
      7.675  0.1331E+01  0.4409E+02
      7.806  0.1286E+00  0.4410E+02
      7.937  0.6901E+00  0.4419E+02
      8.068  0.1458E+01  0.4439E+02
      8.199  0.8169E+00  0.4449E+02
      8.330  0.6778E+00  0.4458E+02
      8.460  0.1813E+01  0.4482E+02
      8.591  0.1895E+01  0.4507E+02
      8.722  0.1023E+01  0.4520E+02
      8.853  0.7242E+00  0.4529E+02
      8.984  0.8297E+00  0.4540E+02
      9.114  0.1650E+01  0.4562E+02
      9.245  0.1737E-01  0.4562E+02
      9.376  0.1170E+01  0.4577E+02
      9.507  0.1079E+01  0.4592E+02
      9.638  0.7154E+00  0.4601E+02
      9.768  0.1279E+01  0.4618E+02
      9.899  0.1893E+01  0.4642E+02
     10.030  0.1243E+01  0.4659E+02
     10.161  0.1648E+01  0.4680E+02
     10.292  0.1793E-01  0.4680E+02
     10.422  0.1045E-01  0.4681E+02
     10.553  0.6612E+00  0.4689E+02
     10.684  0.7777E+00  0.4699E+02
     10.815  0.4628E+00  0.4705E+02
     10.946  0.1421E+01  0.4724E+02
     11.077  0.1477E+01  0.4743E+02
     11.207  0.1791E+01  0.4767E+02
     11.338  0.1419E+01  0.4785E+02
     11.469  0.7083E+00  0.4795E+02
     11.600  0.7680E+00  0.4805E+02
     11.731  0.1080E+01  0.4819E+02
     11.861  0.3176E+01  0.4860E+02
     11.992  0.9774E+00  0.4873E+02
     12.123  0.1544E+01  0.4893E+02
     12.254  0.1200E+01  0.4909E+02
     12.385  0.4161E+00  0.4914E+02
     12.515  0.6238E+00  0.4923E+02
     12.646  0.1867E+01  0.4947E+02
     12.777  0.9935E+00  0.4960E+02
     12.908  0.1005E+01  0.4973E+02
     13.039  0.2496E+01  0.5006E+02
     13.169  0.3492E+00  0.5010E+02
     13.300  0.1324E+01  0.5028E+02
     13.431  0.7304E+00  0.5037E+02
     13.562  0.1831E+01  0.5061E+02
     13.693  0.6706E+00  0.5070E+02
     13.824  0.9032E+00  0.5082E+02
     13.954  0.1366E+01  0.5100E+02
     14.085  0.2950E+01  0.5138E+02
     14.216  0.5416E+00  0.5145E+02
     14.347  0.7296E+00  0.5155E+02
     14.478  0.1463E+01  0.5174E+02
     14.608  0.2627E+01  0.5208E+02
     14.739  0.2245E+01  0.5238E+02
     14.870  0.1316E+01  0.5255E+02
     15.001  0.4197E+00  0.5261E+02
     15.132  0.5527E+00  0.5268E+02
     15.262  0.4236E+01  0.5323E+02
     15.393  0.2774E+01  0.5359E+02
     15.524  0.3798E+00  0.5364E+02
     15.655  0.6678E+00  0.5373E+02
     15.786  0.2188E+01  0.5402E+02
     15.917  0.2595E+01  0.5436E+02
     16.047  0.1782E+01  0.5459E+02
     16.178  0.2346E+01  0.5490E+02
     16.309  0.5194E+00  0.5497E+02
     16.440  0.2452E+01  0.5529E+02
     16.571  0.1817E+01  0.5552E+02
     16.701  0.1433E+01  0.5571E+02
     16.832  0.2250E+01  0.5601E+02
     16.963  0.2006E+01  0.5627E+02
     17.094  0.1534E+01  0.5647E+02
     17.225  0.1978E+01  0.5673E+02
     17.355  0.2789E+01  0.5709E+02
     17.486  0.1522E+00  0.5711E+02
     17.617  0.1280E+01  0.5728E+02
     17.748  0.1739E+01  0.5751E+02
     17.879  0.3865E+01  0.5801E+02
     18.009  0.2886E+01  0.5839E+02
     18.140  0.2900E+01  0.5877E+02
     18.271  0.1888E+01  0.5902E+02
     18.402  0.8324E+00  0.5913E+02
     18.533  0.2428E+01  0.5944E+02
     18.664  0.3224E+01  0.5986E+02
     18.794  0.2277E+01  0.6016E+02
     18.925  0.2261E+01  0.6046E+02
     19.056  0.3252E+01  0.6088E+02
     19.187  0.1097E+01  0.6103E+02
     19.318  0.1945E+01  0.6128E+02
     19.448  0.2783E+01  0.6165E+02
     19.579  0.2502E+01  0.6197E+02
     19.710  0.1014E+01  0.6211E+02
     19.841  0.2580E+00  0.6214E+02
     19.972  0.6453E+00  0.6222E+02
     20.102  0.2916E+01  0.6260E+02
     20.233  0.3194E+01  0.6302E+02
     20.364  0.3504E+01  0.6348E+02
     20.495  0.1160E+01  0.6363E+02
     20.626  0.1492E+01  0.6383E+02
     20.757  0.3439E+01  0.6428E+02
     20.887  0.2541E+01  0.6461E+02
     21.018  0.6095E+00  0.6469E+02
     21.149  0.1204E+01  0.6485E+02
     21.280  0.2958E+01  0.6523E+02
     21.411  0.2763E+01  0.6560E+02
     21.541  0.8430E+00  0.6571E+02
     21.672  0.1310E+01  0.6588E+02
     21.803  0.1049E+01  0.6601E+02
     21.934  0.1612E+01  0.6623E+02
     22.065  0.2832E+01  0.6660E+02
     22.195  0.4098E+01  0.6713E+02
     22.326  0.1765E+01  0.6736E+02
     22.457  0.3639E+00  0.6741E+02
     22.588  0.1303E+01  0.6758E+02
     22.719  0.1183E+01  0.6774E+02
     22.849  0.6715E+00  0.6782E+02
     22.980  0.2239E+01  0.6812E+02
     23.111  0.2359E+01  0.6842E+02
     23.242  0.1365E+01  0.6860E+02
     23.373  0.1486E+01  0.6880E+02
     23.504  0.2786E+01  0.6916E+02
     23.634  0.1734E+01  0.6939E+02
     23.765  0.3617E+01  0.6986E+02
     23.896  0.5932E+01  0.7064E+02
     24.027  0.2427E+01  0.7096E+02
     24.158  0.3314E+01  0.7139E+02
     24.288  0.2200E+01  0.7168E+02
     24.419  0.1171E+01  0.7183E+02
     24.550  0.1141E+01  0.7198E+02
     24.681  0.1021E+01  0.7211E+02
     24.812  0.1028E+02  0.7346E+02
     24.942  0.8544E+01  0.7458E+02
     25.073  0.2275E+01  0.7487E+02
     25.204  0.3849E+01  0.7538E+02
     25.335  0.1418E+01  0.7556E+02
     25.466  0.3294E+01  0.7599E+02
     25.597  0.3387E+01  0.7644E+02
     25.727  0.1725E+01  0.7666E+02
     25.858  0.2895E+00  0.7670E+02
     25.989  0.1245E+01  0.7686E+02
     26.120  0.1027E+01  0.7700E+02
     26.251  0.2546E+01  0.7733E+02
     26.381  0.4394E+01  0.7790E+02
     26.512  0.3959E+01  0.7842E+02
     26.643  0.3838E+01  0.7892E+02
     26.774  0.1417E+01  0.7911E+02
     26.905  0.2212E+01  0.7940E+02
     27.035  0.2032E+01  0.7966E+02
     27.166  0.2912E+01  0.8005E+02
     27.297  0.6597E+00  0.8013E+02
     27.428  0.9803E+00  0.8026E+02
     27.559  0.1090E+01  0.8040E+02
     27.689  0.1863E+01  0.8065E+02
     27.820  0.1361E+01  0.8082E+02
     27.951  0.1653E+01  0.8104E+02
     28.082  0.7996E+00  0.8115E+02
     28.213  0.1231E+01  0.8131E+02
     28.344  0.2077E+01  0.8158E+02
     28.474  0.1077E+01  0.8172E+02
     28.605  0.1925E+01  0.8197E+02
     28.736  0.2589E+01  0.8231E+02
     28.867  0.1575E+01  0.8252E+02
     28.998  0.5677E+00  0.8259E+02
     29.128  0.1177E+01  0.8274E+02
     29.259  0.2711E+01  0.8310E+02
     29.390  0.2295E+01  0.8340E+02
     29.521  0.2377E+01  0.8371E+02
     29.652  0.2755E+01  0.8407E+02
     29.782  0.1010E+01  0.8420E+02
     29.913  0.1127E+01  0.8435E+02
     30.044  0.3695E+01  0.8483E+02
     30.175  0.5121E+01  0.8550E+02
     30.306  0.6295E+01  0.8633E+02
     30.436  0.4743E+01  0.8695E+02
     30.567  0.1316E+01  0.8712E+02
     30.698  0.2536E+01  0.8745E+02
     30.829  0.1398E+01  0.8763E+02
     30.960  0.3137E+01  0.8804E+02
     31.091  0.1603E+01  0.8825E+02
     31.221  0.2072E+01  0.8852E+02
     31.352  0.2566E+01  0.8886E+02
     31.483  0.3416E+01  0.8931E+02
     31.614  0.1546E+01  0.8951E+02
     31.745  0.1644E+01  0.8972E+02
     31.875  0.1770E+01  0.8996E+02
     32.006  0.3824E+01  0.9046E+02
     32.137  0.3309E+01  0.9089E+02
     32.268  0.2957E+01  0.9128E+02
     32.399  0.3248E+01  0.9170E+02
     32.529  0.7472E+01  0.9268E+02
     32.660  0.2978E+01  0.9307E+02
     32.791  0.4710E+01  0.9368E+02
     32.922  0.3488E+01  0.9414E+02
     33.053  0.1285E+01  0.9431E+02
     33.184  0.1037E+01  0.9444E+02
     33.314  0.3484E+01  0.9490E+02
     33.445  0.2155E+01  0.9518E+02
     33.576  0.2201E+01  0.9547E+02
     33.707  0.8406E+00  0.9558E+02
     33.838  0.2129E-01  0.9558E+02
     33.968  0.5385E-02  0.9558E+02
     34.099  0.7792E+00  0.9568E+02
     34.230  0.1324E+01  0.9586E+02
     34.361  0.3417E+00  0.9590E+02
     34.492  0.2285E+00  0.9593E+02
     34.622  0.8666E-02  0.9593E+02
     34.753  0.7420E-08  0.9593E+02
     34.884  0.2056E-14  0.9593E+02
     35.015  0.8586E-05  0.9593E+02
     35.146  0.9401E-01  0.9595E+02
     35.276  0.1958E+00  0.9597E+02
     35.407  0.1875E+00  0.9600E+02
     35.538  0.4379E-03  0.9600E+02
     35.669  0.4734E-11  0.9600E+02
     35.800  0.6761E-08  0.9600E+02
     35.931  0.2665E-02  0.9600E+02
     36.061  0.2692E-01  0.9600E+02
     36.192  0.2770E-03  0.9600E+02
     36.323  0.2105E-10  0.9600E+02
     36.454  0.0000E+00  0.9600E+02
     36.585  0.0000E+00  0.9600E+02
     36.715  0.0000E+00  0.9600E+02
     36.846  0.0000E+00  0.9600E+02
     36.977  0.0000E+00  0.9600E+02
     37.108  0.0000E+00  0.9600E+02
     37.239  0.0000E+00  0.9600E+02
     37.369  0.0000E+00  0.9600E+02
     37.500  0.0000E+00  0.9600E+02
     37.631  0.0000E+00  0.9600E+02
     37.762  0.0000E+00  0.9600E+02
