    4    4    1    1
  0.1805291E+02  0.4164240E-09  0.4164240E-09  0.4164240E-09  0.5000000E-15
  1.000000000000000E-004
  CAR 
 Ag                                      
     44     35     48
 
  0.0000000E+00  0.0000000E+00  0.0000000E+00  0.1953125E-02
      1          0.302494   1.000000
      2          1.586399   1.000000
      3          1.586399   1.000000
      4          1.586399   1.000000
      5          1.706387   1.000000
      6          1.706387   1.000000
      7          1.706387   1.000000
      8          3.059979   1.000000
      9          3.059979   1.000000
     10          3.059979   1.000000
     11          3.995808   1.000000
     12          3.995808   1.000000
     13          4.686340   1.000000
     14          4.686340   1.000000
     15          4.686340   1.000000
     16          4.903625   1.000000
     17          4.903625   1.000000
     18          4.903625   1.000000
     19          4.903625   1.000000
     20          4.903625   1.000000
     21          4.903625   1.000000
     22          9.320856   0.000000
     23          9.320856   0.000000
     24          9.320856   0.000000
     25         13.968773   0.000000
     26         13.968773   0.000000
     27         13.968773   0.000000
     28         18.036576   0.000000
     29         18.036576   0.000000
     30         18.036576   0.000000
     31         18.036576   0.000000
     32         18.036576   0.000000
     33         18.036576   0.000000
     34         23.553654   0.000000
     35         24.182701   0.000000
     36         24.182701   0.000000
     37         24.182701   0.000000
     38         24.186260   0.000000
     39         24.186260   0.000000
     40         24.186260   0.000000
     41         26.790601   0.000000
     42         26.790601   0.000000
     43         26.790601   0.000000
     44         31.465173   0.000000
     45         32.263647   0.000000
     46         32.263647   0.000000
     47         32.263647   0.000000
     48         35.978103   0.000000
 
  0.1250000E+00  0.1542150E-32  0.0000000E+00  0.1171875E-01
      1          0.458202   1.000000
      2          1.646394   1.000000
      3          1.665680   1.000000
      4          1.665680   1.000000
      5          1.752838   1.000000
      6          1.777061   1.000000
      7          1.777061   1.000000
      8          3.002350   1.000000
      9          3.114106   1.000000
     10          3.114106   1.000000
     11          3.938976   1.000000
     12          4.020776   1.000000
     13          4.609916   1.000000
     14          4.609916   1.000000
     15          4.645322   1.000000
     16          4.645322   1.000000
     17          4.658659   1.000000
     18          4.810062   1.000000
     19          4.810062   1.000000
     20          4.903551   1.000000
     21          4.903551   1.000000
     22          8.360255   0.000000
     23          9.711077   0.000000
     24          9.711077   0.000000
     25         13.989761   0.000000
     26         13.989761   0.000000
     27         15.175732   0.000000
     28         17.532252   0.000000
     29         17.532252   0.000000
     30         17.549852   0.000000
     31         17.549852   0.000000
     32         18.308930   0.000000
     33         18.308930   0.000000
     34         23.584083   0.000000
     35         24.163834   0.000000
     36         24.166288   0.000000
     37         24.733598   0.000000
     38         24.733598   0.000000
     39         25.046640   0.000000
     40         25.046640   0.000000
     41         26.190632   0.000000
     42         26.339224   0.000000
     43         26.339224   0.000000
     44         32.084462   0.000000
     45         32.084462   0.000000
     46         32.294265   0.000000
     47         32.540272   0.000000
     48         34.432895   0.000000
 
  0.2500000E+00  0.3084300E-32  0.0000000E+00  0.1171875E-01
      1          0.904903   1.000000
      2          1.809236   1.000000
      3          1.879732   1.000000
      4          1.879732   1.000000
      5          1.886145   1.000000
      6          1.990710   1.000000
      7          1.990710   1.000000
      8          2.841530   1.000000
      9          3.274201   1.000000
     10          3.274201   1.000000
     11          3.796805   1.000000
     12          4.063853   1.000000
     13          4.063853   1.000000
     14          4.092617   1.000000
     15          4.401531   1.000000
     16          4.401531   1.000000
     17          4.558268   1.000000
     18          4.558268   1.000000
     19          4.580827   1.000000
     20          4.903885   1.000000
     21          4.903885   1.000000
     22          6.676564   1.000000
     23         10.683839   0.000000
     24         10.683839   0.000000
     25         14.058788   0.000000
     26         14.058788   0.000000
     27         16.348972   0.000000
     28         16.348972   0.000000
     29         16.627648   0.000000
     30         16.627648   0.000000
     31         17.595358   0.000000
     32         19.090745   0.000000
     33         19.090745   0.000000
     34         23.667046   0.000000
     35         24.107102   0.000000
     36         24.157710   0.000000
     37         25.107947   0.000000
     38         25.107947   0.000000
     39         25.142958   0.000000
     40         26.068199   0.000000
     41         26.068199   0.000000
     42         27.074234   0.000000
     43         27.074234   0.000000
     44         30.801798   0.000000
     45         32.216646   0.000000
     46         32.216646   0.000000
     47         33.363192   0.000000
     48         34.341080   0.000000
 
  0.3750000E+00  0.8360813E-32  0.0000000E+00  0.1171875E-01
      1          1.540267   1.000000
      2          2.000542   1.000000
      3          2.092527   1.000000
      4          2.141561   1.000000
      5          2.141561   1.000000
      6          2.342903   1.000000
      7          2.342903   1.000000
      8          2.608992   1.000000
      9          3.415644   1.000000
     10          3.415644   1.000000
     11          3.527636   1.000000
     12          3.527636   1.000000
     13          3.694905   1.000000
     14          4.142447   1.000000
     15          4.142447   1.000000
     16          4.201306   1.000000
     17          4.215497   1.000000
     18          4.215497   1.000000
     19          4.465557   1.000000
     20          4.904127   1.000000
     21          4.904127   1.000000
     22          5.114010   1.000000
     23         11.966915   0.000000
     24         11.966915   0.000000
     25         14.175848   0.000000
     26         14.175848   0.000000
     27         14.905200   0.000000
     28         14.905200   0.000000
     29         15.858360   0.000000
     30         15.858360   0.000000
     31         20.293440   0.000000
     32         20.293440   0.000000
     33         20.357632   0.000000
     34         23.477523   0.000000
     35         23.477523   0.000000
     36         23.781130   0.000000
     37         24.016687   0.000000
     38         24.171008   0.000000
     39         24.324740   0.000000
     40         27.668103   0.000000
     41         27.820628   0.000000
     42         27.820628   0.000000
     43         29.554045   0.000000
     44         29.554045   0.000000
     45         32.069390   0.000000
     46         32.069390   0.000000
     47         32.990766   0.000000
     48         32.990766   0.000000
 
  0.5000000E+00  0.6168600E-32  0.0000000E+00  0.5859375E-02
      1          2.008711   1.000000
      2          2.008711   1.000000
      3          2.274454   1.000000
      4          2.274454   1.000000
      5          2.345393   1.000000
      6          2.345393   1.000000
      7          2.824379   1.000000
      8          2.824379   1.000000
      9          2.824379   1.000000
     10          2.824379   1.000000
     11          3.854045   1.000000
     12          3.854045   1.000000
     13          3.854045   1.000000
     14          3.854045   1.000000
     15          4.010261   1.000000
     16          4.010261   1.000000
     17          4.021265   1.000000
     18          4.021265   1.000000
     19          4.332315   1.000000
     20          4.332315   1.000000
     21          4.903998   1.000000
     22          4.903998   1.000000
     23         13.407240   0.000000
     24         13.407240   0.000000
     25         13.407240   0.000000
     26         13.407240   0.000000
     27         14.255858   0.000000
     28         14.255858   0.000000
     29         15.544049   0.000000
     30         15.544049   0.000000
     31         21.802574   0.000000
     32         21.802574   0.000000
     33         21.802574   0.000000
     34         21.802574   0.000000
     35         22.860091   0.000000
     36         22.860091   0.000000
     37         23.903644   0.000000
     38         23.903644   0.000000
     39         25.185297   0.000000
     40         25.185297   0.000000
     41         29.844784   0.000000
     42         29.844784   0.000000
     43         29.844784   0.000000
     44         29.844784   0.000000
     45         31.263000   0.000000
     46         31.263000   0.000000
     47         34.304620   0.000000
     48         34.304620   0.000000
 
  0.1250000E+00  0.1250000E+00  0.0000000E+00  0.2343750E-01
      1          0.609128   1.000000
      2          1.716359   1.000000
      3          1.726938   1.000000
      4          1.726938   1.000000
      5          1.821587   1.000000
      6          1.821587   1.000000
      7          1.871209   1.000000
      8          2.983946   1.000000
      9          3.133115   1.000000
     10          3.159754   1.000000
     11          3.925275   1.000000
     12          4.015086   1.000000
     13          4.465519   1.000000
     14          4.465519   1.000000
     15          4.484929   1.000000
     16          4.540671   1.000000
     17          4.667286   1.000000
     18          4.667286   1.000000
     19          4.809405   1.000000
     20          4.809405   1.000000
     21          4.838384   1.000000
     22          8.721133   0.000000
     23          8.721133   0.000000
     24         10.069984   0.000000
     25         14.004827   0.000000
     26         15.221981   0.000000
     27         15.221981   0.000000
     28         16.066539   0.000000
     29         17.787684   0.000000
     30         17.787684   0.000000
     31         17.793931   0.000000
     32         17.793931   0.000000
     33         18.558456   0.000000
     34         23.464349   0.000000
     35         24.101236   0.000000
     36         24.734802   0.000000
     37         24.734802   0.000000
     38         24.803676   0.000000
     39         25.051095   0.000000
     40         25.051095   0.000000
     41         26.145794   0.000000
     42         26.562702   0.000000
     43         27.354203   0.000000
     44         30.525706   0.000000
     45         32.219366   0.000000
     46         32.467783   0.000000
     47         34.045485   0.000000
     48         34.150007   0.000000
 
  0.2500000E+00  0.1250000E+00  0.0000000E+00  0.4687500E-01
      1          1.040431   1.000000
      2          1.881872   1.000000
      3          1.894120   1.000000
      4          1.944680   1.000000
      5          1.949712   1.000000
      6          2.028384   1.000000
      7          2.112980   1.000000
      8          2.849706   1.000000
      9          3.275160   1.000000
     10          3.281783   1.000000
     11          3.818139   1.000000
     12          3.917649   1.000000
     13          3.990648   1.000000
     14          4.099803   1.000000
     15          4.187824   1.000000
     16          4.349550   1.000000
     17          4.440454   1.000000
     18          4.556357   1.000000
     19          4.602726   1.000000
     20          4.806539   1.000000
     21          4.807817   1.000000
     22          7.045004   1.000000
     23          9.581035   0.000000
     24         10.990239   0.000000
     25         13.952471   0.000000
     26         14.732800   0.000000
     27         15.334630   0.000000
     28         16.584582   0.000000
     29         16.881839   0.000000
     30         17.605370   0.000000
     31         18.464118   0.000000
     32         18.509650   0.000000
     33         18.512998   0.000000
     34         23.028441   0.000000
     35         23.365629   0.000000
     36         24.744250   0.000000
     37         24.798207   0.000000
     38         25.124955   0.000000
     39         25.641397   0.000000
     40         26.101499   0.000000
     41         26.929335   0.000000
     42         27.065347   0.000000
     43         28.673285   0.000000
     44         29.936422   0.000000
     45         32.005570   0.000000
     46         32.259751   0.000000
     47         33.258916   0.000000
     48         34.092770   0.000000
 
  0.3750000E+00  0.1250000E+00  0.0000000E+00  0.4687500E-01
      1          1.651269   1.000000
      2          2.093748   1.000000
      3          2.143247   1.000000
      4          2.145831   1.000000
      5          2.212218   1.000000
      6          2.368374   1.000000
      7          2.432186   1.000000
      8          2.633529   1.000000
      9          3.313612   1.000000
     10          3.373335   1.000000
     11          3.391554   1.000000
     12          3.525145   1.000000
     13          3.823033   1.000000
     14          3.841759   1.000000
     15          4.111947   1.000000
     16          4.168716   1.000000
     17          4.212482   1.000000
     18          4.259646   1.000000
     19          4.458032   1.000000
     20          4.801737   1.000000
     21          4.805331   1.000000
     22          5.545194   1.000000
     23         10.657883   0.000000
     24         12.233660   0.000000
     25         13.032297   0.000000
     26         14.507555   0.000000
     27         15.136894   0.000000
     28         15.260100   0.000000
     29         16.452655   0.000000
     30         17.672434   0.000000
     31         19.432473   0.000000
     32         19.599555   0.000000
     33         20.449660   0.000000
     34         22.004201   0.000000
     35         22.132238   0.000000
     36         24.781925   0.000000
     37         25.154033   0.000000
     38         25.328101   0.000000
     39         25.441393   0.000000
     40         26.519280   0.000000
     41         27.878291   0.000000
     42         28.187921   0.000000
     43         29.141792   0.000000
     44         31.053325   0.000000
     45         31.951400   0.000000
     46         32.165550   0.000000
     47         32.202546   0.000000
     48         32.925023   0.000000
 
  0.5000000E+00  0.1250000E+00  0.0000000E+00  0.2343750E-01
      1          2.108744   1.000000
      2          2.108744   1.000000
      3          2.333151   1.000000
      4          2.333151   1.000000
      5          2.385257   1.000000
      6          2.385257   1.000000
      7          2.802976   1.000000
      8          2.802976   1.000000
      9          2.831324   1.000000
     10          2.831324   1.000000
     11          3.473305   1.000000
     12          3.473305   1.000000
     13          3.850365   1.000000
     14          3.850365   1.000000
     15          4.007975   1.000000
     16          4.007975   1.000000
     17          4.194344   1.000000
     18          4.194344   1.000000
     19          4.584763   1.000000
     20          4.584763   1.000000
     21          4.803021   1.000000
     22          4.803021   1.000000
     23         11.822723   0.000000
     24         11.822723   0.000000
     25         13.649648   0.000000
     26         13.649648   0.000000
     27         14.835883   0.000000
     28         14.835883   0.000000
     29         16.871545   0.000000
     30         16.871545   0.000000
     31         20.687290   0.000000
     32         20.687290   0.000000
     33         20.885897   0.000000
     34         20.885897   0.000000
     35         23.135912   0.000000
     36         23.135912   0.000000
     37         24.890881   0.000000
     38         24.890881   0.000000
     39         26.321939   0.000000
     40         26.321939   0.000000
     41         28.506445   0.000000
     42         28.506445   0.000000
     43         29.923301   0.000000
     44         29.923301   0.000000
     45         32.714614   0.000000
     46         32.714614   0.000000
     47         33.167348   0.000000
     48         33.167348   0.000000
 
  0.2500000E+00  0.2500000E+00  0.0000000E+00  0.2343750E-01
      1          1.420924   1.000000
      2          1.976667   1.000000
      3          2.124874   1.000000
      4          2.124874   1.000000
      5          2.136801   1.000000
      6          2.136801   1.000000
      7          2.368678   1.000000
      8          2.816936   1.000000
      9          3.313856   1.000000
     10          3.340562   1.000000
     11          3.622707   1.000000
     12          3.622707   1.000000
     13          3.728793   1.000000
     14          3.766984   1.000000
     15          4.200841   1.000000
     16          4.251760   1.000000
     17          4.428933   1.000000
     18          4.428933   1.000000
     19          4.551464   1.000000
     20          4.551464   1.000000
     21          4.649409   1.000000
     22          7.857470   0.000000
     23          7.857470   0.000000
     24         11.811113   0.000000
     25         12.696554   0.000000
     26         14.429817   0.000000
     27         17.017586   0.000000
     28         17.017586   0.000000
     29         17.249530   0.000000
     30         17.249530   0.000000
     31         18.180386   0.000000
     32         18.180386   0.000000
     33         20.011696   0.000000
     34         21.768765   0.000000
     35         21.916288   0.000000
     36         23.934840   0.000000
     37         26.203594   0.000000
     38         26.203594   0.000000
     39         26.332500   0.000000
     40         27.109644   0.000000
     41         27.109644   0.000000
     42         27.872895   0.000000
     43         28.903685   0.000000
     44         30.884717   0.000000
     45         31.115645   0.000000
     46         32.142597   0.000000
     47         33.430182   0.000000
     48         33.430182   0.000000
 
  0.3750000E+00  0.2500000E+00  0.0000000E+00  0.4687500E-01
      1          1.945693   1.000000
      2          2.187933   1.000000
      3          2.300508   1.000000
      4          2.350600   1.000000
      5          2.412330   1.000000
      6          2.440192   1.000000
      7          2.648789   1.000000
      8          2.684974   1.000000
      9          3.092729   1.000000
     10          3.269814   1.000000
     11          3.299620   1.000000
     12          3.302496   1.000000
     13          3.542982   1.000000
     14          3.784908   1.000000
     15          4.012679   1.000000
     16          4.165550   1.000000
     17          4.206648   1.000000
     18          4.293148   1.000000
     19          4.546110   1.000000
     20          4.570738   1.000000
     21          4.606243   1.000000
     22          6.340836   1.000000
     23          8.851101   0.000000
     24         11.242050   0.000000
     25         12.969584   0.000000
     26         14.708038   0.000000
     27         15.789979   0.000000
     28         16.008994   0.000000
     29         18.011951   0.000000
     30         18.239529   0.000000
     31         18.610688   0.000000
     32         20.060068   0.000000
     33         20.355225   0.000000
     34         20.686321   0.000000
     35         20.728665   0.000000
     36         24.900770   0.000000
     37         25.899975   0.000000
     38         26.370986   0.000000
     39         26.636437   0.000000
     40         27.382856   0.000000
     41         28.045348   0.000000
     42         28.332623   0.000000
     43         29.450939   0.000000
     44         30.209973   0.000000
     45         32.390580   0.000000
     46         32.448695   0.000000
     47         32.489552   0.000000
     48         32.507887   0.000000
 
  0.5000000E+00  0.2500000E+00  0.0000000E+00  0.2343750E-01
      1          2.368522   1.000000
      2          2.368522   1.000000
      3          2.461765   1.000000
      4          2.461765   1.000000
      5          2.495359   1.000000
      6          2.495359   1.000000
      7          2.800263   1.000000
      8          2.800263   1.000000
      9          2.842630   1.000000
     10          2.842630   1.000000
     11          3.139134   1.000000
     12          3.139134   1.000000
     13          3.849587   1.000000
     14          3.849587   1.000000
     15          3.964427   1.000000
     16          3.964427   1.000000
     17          4.037427   1.000000
     18          4.037427   1.000000
     19          4.547631   1.000000
     20          4.547631   1.000000
     21          5.245244   1.000000
     22          5.245244   1.000000
     23          9.970460   0.000000
     24          9.970460   0.000000
     25         14.328846   0.000000
     26         14.328846   0.000000
     27         15.225146   0.000000
     28         15.225146   0.000000
     29         19.105674   0.000000
     30         19.105674   0.000000
     31         19.307155   0.000000
     32         19.307155   0.000000
     33         19.426575   0.000000
     34         19.426575   0.000000
     35         23.421254   0.000000
     36         23.421254   0.000000
     37         26.565173   0.000000
     38         26.565173   0.000000
     39         26.897846   0.000000
     40         26.897846   0.000000
     41         28.106964   0.000000
     42         28.106964   0.000000
     43         30.143948   0.000000
     44         30.143948   0.000000
     45         31.428837   0.000000
     46         31.428837   0.000000
     47         33.640109   0.000000
     48         33.640109   0.000000
 
  0.3750000E+00  0.3750000E+00  0.0000000E+00  0.2343750E-01
      1          2.300837   1.000000
      2          2.309803   1.000000
      3          2.541902   1.000000
      4          2.541902   1.000000
      5          2.694276   1.000000
      6          2.694276   1.000000
      7          2.700512   1.000000
      8          2.861462   1.000000
      9          2.861462   1.000000
     10          2.899594   1.000000
     11          3.112754   1.000000
     12          3.257567   1.000000
     13          3.642310   1.000000
     14          3.649526   1.000000
     15          3.859950   1.000000
     16          4.039958   1.000000
     17          4.039958   1.000000
     18          4.209594   1.000000
     19          4.209594   1.000000
     20          4.359581   1.000000
     21          5.197288   1.000000
     22          7.279063   1.000000
     23          7.279063   1.000000
     24          9.679799   0.000000
     25         14.043924   0.000000
     26         15.127117   0.000000
     27         16.757636   0.000000
     28         16.757636   0.000000
     29         16.766407   0.000000
     30         16.766407   0.000000
     31         18.921516   0.000000
     32         19.285860   0.000000
     33         21.231250   0.000000
     34         21.231250   0.000000
     35         22.163216   0.000000
     36         23.930948   0.000000
     37         25.700638   0.000000
     38         27.604221   0.000000
     39         27.604221   0.000000
     40         27.732644   0.000000
     41         27.862394   0.000000
     42         28.276283   0.000000
     43         28.276283   0.000000
     44         31.622527   0.000000
     45         32.178297   0.000000
     46         32.509396   0.000000
     47         32.509396   0.000000
     48         32.554775   0.000000
 
  0.5000000E+00  0.3750000E+00  0.0000000E+00  0.2343750E-01
      1          2.529185   1.000000
      2          2.529185   1.000000
      3          2.589355   1.000000
      4          2.589355   1.000000
      5          2.643008   1.000000
      6          2.643008   1.000000
      7          2.834344   1.000000
      8          2.834344   1.000000
      9          2.961999   1.000000
     10          2.961999   1.000000
     11          3.048548   1.000000
     12          3.048548   1.000000
     13          3.794926   1.000000
     14          3.794926   1.000000
     15          3.824664   1.000000
     16          3.824664   1.000000
     17          3.884803   1.000000
     18          3.884803   1.000000
     19          4.246761   1.000000
     20          4.246761   1.000000
     21          6.058761   1.000000
     22          6.058761   1.000000
     23          8.373112   0.000000
     24          8.373112   0.000000
     25         15.339386   0.000000
     26         15.339386   0.000000
     27         15.796869   0.000000
     28         15.796869   0.000000
     29         17.723667   0.000000
     30         17.723667   0.000000
     31         17.960328   0.000000
     32         17.960328   0.000000
     33         21.952807   0.000000
     34         21.952807   0.000000
     35         23.854262   0.000000
     36         23.854262   0.000000
     37         25.571469   0.000000
     38         25.571469   0.000000
     39         27.199859   0.000000
     40         27.199859   0.000000
     41         28.376136   0.000000
     42         28.376136   0.000000
     43         30.399489   0.000000
     44         30.399489   0.000000
     45         32.437142   0.000000
     46         32.437142   0.000000
     47         32.853111   0.000000
     48         32.853111   0.000000
 
  0.5000000E+00  0.5000000E+00  0.0000000E+00  0.5859375E-02
      1          2.568544   1.000000
      2          2.568544   1.000000
      3          2.568544   1.000000
      4          2.568544   1.000000
      5          2.771314   1.000000
      6          2.771314   1.000000
      7          2.771314   1.000000
      8          2.771314   1.000000
      9          3.152329   1.000000
     10          3.152329   1.000000
     11          3.152329   1.000000
     12          3.152329   1.000000
     13          3.658563   1.000000
     14          3.658563   1.000000
     15          3.658563   1.000000
     16          3.658563   1.000000
     17          4.008390   1.000000
     18          4.008390   1.000000
     19          4.008390   1.000000
     20          4.008390   1.000000
     21          7.077692   1.000000
     22          7.077692   1.000000
     23          7.077692   1.000000
     24          7.077692   1.000000
     25         16.576824   0.000000
     26         16.576824   0.000000
     27         16.576824   0.000000
     28         16.576824   0.000000
     29         16.621159   0.000000
     30         16.621159   0.000000
     31         16.621159   0.000000
     32         16.621159   0.000000
     33         24.421928   0.000000
     34         24.421928   0.000000
     35         24.421928   0.000000
     36         24.421928   0.000000
     37         24.797904   0.000000
     38         24.797904   0.000000
     39         24.797904   0.000000
     40         24.797904   0.000000
     41         29.988953   0.000000
     42         29.988953   0.000000
     43         29.988953   0.000000
     44         29.988953   0.000000
     45         32.493381   0.000000
     46         32.493381   0.000000
     47         32.493381   0.000000
     48         32.493381   0.000000
 
  0.1250000E+00  0.1250000E+00  0.1250000E+00  0.1562500E-01
      1          0.752637   1.000000
      2          1.770421   1.000000
      3          1.770421   1.000000
      4          1.770421   1.000000
      5          1.920520   1.000000
      6          1.920520   1.000000
      7          1.920520   1.000000
      8          2.984038   1.000000
      9          3.167764   1.000000
     10          3.167764   1.000000
     11          3.966217   1.000000
     12          3.966217   1.000000
     13          4.380084   1.000000
     14          4.380084   1.000000
     15          4.380084   1.000000
     16          4.450242   1.000000
     17          4.450242   1.000000
     18          4.450242   1.000000
     19          4.823171   1.000000
     20          4.823171   1.000000
     21          4.823171   1.000000
     22          9.041765   0.000000
     23          9.041765   0.000000
     24          9.041765   0.000000
     25         15.219039   0.000000
     26         15.219039   0.000000
     27         15.219039   0.000000
     28         16.353652   0.000000
     29         16.353652   0.000000
     30         16.353652   0.000000
     31         18.812340   0.000000
     32         18.812340   0.000000
     33         18.812340   0.000000
     34         22.848122   0.000000
     35         24.076745   0.000000
     36         24.076745   0.000000
     37         24.076745   0.000000
     38         24.508960   0.000000
     39         26.596438   0.000000
     40         26.596438   0.000000
     41         26.596438   0.000000
     42         26.861801   0.000000
     43         26.861801   0.000000
     44         30.434752   0.000000
     45         31.756239   0.000000
     46         31.756239   0.000000
     47         35.155222   0.000000
     48         35.304567   0.000000
 
  0.2500000E+00  0.1250000E+00  0.1250000E+00  0.4687500E-01
      1          1.158445   1.000000
      2          1.909702   1.000000
      3          1.927867   1.000000
      4          1.927867   1.000000
      5          2.071120   1.000000
      6          2.163806   1.000000
      7          2.163806   1.000000
      8          2.890067   1.000000