<?xml version="1.0" encoding="ISO-8859-1"?>
<modeling>
 <generator>
  <i name="program" type="string">vasp </i>
  <i name="version" type="string">6.4.3  </i>
  <i name="subversion" type="string">19Mar24 (build Jun 26 2024 13:02:28) complex                          parallel </i>
  <i name="platform" type="string">LinuxIFC </i>
  <i name="date" type="string">2025 08 08 </i>
  <i name="time" type="string">18:32:30 </i>
 </generator>
 <incar>
  <i type="string" name="SYSTEM">Ag</i>
  <i type="int" name="IBRION">    -1</i>
  <i type="int" name="ISYM">     2</i>
  <i name="ENCUT">    324.79720000</i>
  <i type="int" name="ISMEAR">     0</i>
  <i name="SIGMA">      0.05000000</i>
  <i type="logical" name="LWAVE"> T  </i>
  <i type="logical" name="LCHARG"> T  </i>
 </incar>
 <primitive_cell>
  <structure name="primitive_cell" >
   <crystal>
    <varray name="basis" >
     <v>       2.08212000      -2.08212000       0.00000000 </v>
     <v>       2.08212000       0.00000000       2.08212000 </v>
     <v>       0.00000000      -2.08212000       2.08212000 </v>
    </varray>
    <i name="volume">     18.05291192 </i>
    <varray name="rec_basis" >
     <v>       0.24013986      -0.24013986      -0.24013986 </v>
     <v>       0.24013986       0.24013986       0.24013986 </v>
     <v>      -0.24013986      -0.24013986       0.24013986 </v>
    </varray>
   </crystal>
   <varray name="positions" >
    <v>       0.00000000       0.00000000       0.00000000 </v>
   </varray>
  </structure>
  <varray name="primitive_index" >
   <v type="int" >        1 </v>
  </varray>
 </primitive_cell>
 <kpoints>
  <generation param="Gamma">
   <v type="int" name="divisions">       8        8        8 </v>
   <v name="usershift">      0.00000000       0.00000000       0.00000000 </v>
   <v name="genvec1">      0.12500000      -0.00000000       0.00000000 </v>
   <v name="genvec2">      0.00000000       0.12500000       0.00000000 </v>
   <v name="genvec3">     -0.00000000      -0.00000000       0.12500000 </v>
   <v name="shift">      0.00000000       0.00000000       0.00000000 </v>
  </generation>
  <varray name="kpointlist" >
   <v>       0.00000000       0.00000000       0.00000000 </v>
   <v>       0.12500000       0.00000000       0.00000000 </v>
   <v>       0.25000000       0.00000000       0.00000000 </v>
   <v>       0.37500000       0.00000000       0.00000000 </v>
   <v>       0.50000000       0.00000000       0.00000000 </v>
   <v>       0.12500000       0.12500000       0.00000000 </v>
   <v>       0.25000000       0.12500000       0.00000000 </v>
   <v>       0.37500000       0.12500000       0.00000000 </v>
   <v>       0.50000000       0.12500000       0.00000000 </v>
   <v>       0.25000000       0.25000000       0.00000000 </v>
   <v>       0.37500000       0.25000000       0.00000000 </v>
   <v>       0.50000000       0.25000000       0.00000000 </v>
   <v>       0.37500000       0.37500000       0.00000000 </v>
   <v>       0.50000000       0.37500000       0.00000000 </v>
   <v>       0.50000000       0.50000000       0.00000000 </v>
   <v>       0.12500000       0.12500000       0.12500000 </v>
   <v>       0.25000000       0.12500000       0.12500000 </v>
   <v>       0.37500000       0.12500000       0.12500000 </v>
   <v>       0.50000000       0.12500000       0.12500000 </v>
   <v>       0.25000000       0.25000000       0.12500000 </v>
   <v>       0.37500000       0.25000000       0.12500000 </v>
   <v>       0.50000000       0.25000000       0.12500000 </v>
   <v>       0.37500000       0.37500000       0.12500000 </v>
   <v>       0.50000000       0.37500000       0.12500000 </v>
   <v>       0.50000000       0.50000000       0.12500000 </v>
   <v>       0.25000000       0.25000000       0.25000000 </v>
   <v>       0.37500000       0.25000000       0.25000000 </v>
   <v>       0.50000000       0.25000000       0.25000000 </v>
   <v>       0.37500000       0.37500000       0.25000000 </v>
   <v>       0.50000000       0.37500000       0.25000000 </v>
   <v>       0.50000000       0.50000000       0.25000000 </v>
   <v>       0.37500000       0.37500000       0.37500000 </v>
   <v>       0.50000000       0.37500000       0.37500000 </v>
   <v>       0.50000000       0.50000000       0.37500000 </v>
   <v>       0.50000000       0.50000000       0.50000000 </v>
  </varray>
  <varray name="weights" >
   <v>       0.00195312 </v>
   <v>       0.01171875 </v>
   <v>       0.01171875 </v>
   <v>       0.01171875 </v>
   <v>       0.00585938 </v>
   <v>       0.02343750 </v>
   <v>       0.04687500 </v>
   <v>       0.04687500 </v>
   <v>       0.02343750 </v>
   <v>       0.02343750 </v>
   <v>       0.04687500 </v>
   <v>       0.02343750 </v>
   <v>       0.02343750 </v>
   <v>       0.02343750 </v>
   <v>       0.00585938 </v>
   <v>       0.01562500 </v>
   <v>       0.04687500 </v>
   <v>       0.04687500 </v>
   <v>       0.02343750 </v>
   <v>       0.04687500 </v>
   <v>       0.09375000 </v>
   <v>       0.04687500 </v>
   <v>       0.04687500 </v>
   <v>       0.04687500 </v>
   <v>       0.01171875 </v>
   <v>       0.01562500 </v>
   <v>       0.04687500 </v>
   <v>       0.02343750 </v>
   <v>       0.04687500 </v>
   <v>       0.04687500 </v>
   <v>       0.01171875 </v>
   <v>       0.01562500 </v>
   <v>       0.02343750 </v>
   <v>       0.01171875 </v>
   <v>       0.00195312 </v>
  </varray>
 </kpoints>
 <parameters>
  <separator name="general" >
   <i type="string" name="SYSTEM">Ag</i>
   <i type="logical" name="LCOMPAT"> F  </i>
  </separator>
  <separator name="electronic" >
   <i type="string" name="PREC">normal</i>
   <i name="ENMAX">    324.79720000</i>
   <i name="ENAUG">    412.49600000</i>
   <i name="EDIFF">      0.00010000</i>
   <i type="int" name="IALGO">    38</i>
   <i type="int" name="IWAVPR">    10</i>
   <i type="int" name="NBANDS">    48</i>
   <i type="int" name="NBANDSLOW">    -1</i>
   <i type="int" name="NBANDSHIGH">    -1</i>
   <i name="NELECT">     44.00000000</i>
   <i type="int" name="TURBO">     0</i>
   <i type="int" name="IRESTART">     0</i>
   <i type="int" name="NREBOOT">     0</i>
   <i type="int" name="NMIN">     0</i>
   <i name="EREF">      0.00000000</i>
   <separator name="electronic smearing" >
    <i type="int" name="ISMEAR">     0</i>
    <i name="SIGMA">      0.05000000</i>
    <i name="KSPACING">      0.50000000</i>
    <i type="logical" name="KGAMMA"> T  </i>
    <i type="logical" name="KBLOWUP"> T  </i>
   </separator>
   <separator name="electronic projectors" >
    <i type="logical" name="LREAL"> F  </i>
    <v name="ROPT">      0.00000000</v>
    <i type="int" name="LMAXPAW">  -100</i>
    <i type="int" name="LMAXMIX">     2</i>
    <i type="logical" name="NLSPLINE"> F  </i>
   </separator>
   <separator name="electronic startup" >
    <i type="int" name="ISTART">     1</i>
    <i type="int" name="ICHARG">     0</i>
    <i type="int" name="INIWAV">     1</i>
   </separator>
   <separator name="electronic spin" >
    <i type="int" name="ISPIN">     1</i>
    <i type="logical" name="LNONCOLLINEAR"> F  </i>
    <v name="MAGMOM">      1.00000000      1.00000000      1.00000000      1.00000000</v>
    <i name="NUPDOWN">     -1.00000000</i>
    <i type="logical" name="LSORBIT"> F  </i>
    <v name="SAXIS">      0.00000000      0.00000000      1.00000000</v>
    <i type="logical" name="LSPIRAL"> F  </i>
    <v name="QSPIRAL">      0.00000000      0.00000000      0.00000000</v>
    <i type="logical" name="LZEROZ"> F  </i>
   </separator>
   <separator name="electronic exchange-correlation" >
    <i type="logical" name="LASPH"> F  </i>
   </separator>
   <separator name="electronic convergence" >
    <i type="int" name="NELM">    60</i>
    <i type="int" name="NELMDL">     0</i>
    <i type="int" name="NELMIN">     2</i>
    <i name="ENINI">    324.79720000</i>
    <separator name="electronic convergence detail" >
     <i type="logical" name="LDIAG"> T  </i>
     <i type="logical" name="LSUBROT"> F  </i>
     <i name="WEIMIN">      0.00000000</i>
     <i name="EBREAK">      0.00000052</i>
     <i name="DEPER">      0.30000000</i>
     <i type="int" name="NRMM">     4</i>
     <i name="TIME">      0.40000000</i>
    </separator>
   </separator>
   <separator name="electronic mixer" >
    <i name="AMIX">      0.40000000</i>
    <i name="BMIX">      1.00000000</i>
    <i name="AMIN">      0.10000000</i>
    <i name="AMIX_MAG">      1.60000000</i>
    <i name="BMIX_MAG">      1.00000000</i>
    <separator name="electronic mixer details" >
     <i type="int" name="IMIX">     4</i>
     <i type="logical" name="MIXFIRST"> F  </i>
     <i type="int" name="MAXMIX">   -45</i>
     <i name="WC">    100.00000000</i>
     <i type="int" name="INIMIX">     1</i>
     <i type="int" name="MIXPRE">     1</i>
     <i type="int" name="MREMOVE">     5</i>
    </separator>
   </separator>
   <separator name="electronic dipolcorrection" >
    <i type="logical" name="LDIPOL"> F  </i>
    <i type="logical" name="LMONO"> F  </i>
    <i type="int" name="IDIPOL">     0</i>
    <i name="EPSILON">      1.00000000</i>
    <v name="DIPOL">   -100.00000000   -100.00000000   -100.00000000</v>
    <i name="EFIELD">      0.00000000</i>
    <i type="logical" name="LVACPOTAV"> F  </i>
   </separator>
  </separator>
  <separator name="grids" >
   <i type="int" name="NGX">    18</i>
   <i type="int" name="NGY">    18</i>
   <i type="int" name="NGZ">    18</i>
   <i type="int" name="NGXF">    36</i>
   <i type="int" name="NGYF">    36</i>
   <i type="int" name="NGZF">    36</i>
   <i type="logical" name="ADDGRID"> F  </i>
  </separator>
  <separator name="ionic" >
   <i type="int" name="NSW">     0</i>
   <i type="int" name="IBRION">    -1</i>
   <i type="int" name="MDALGO">     0</i>
   <i type="int" name="ISIF">     2</i>
   <i name="PSTRESS">      0.00000000</i>
   <i name="EDIFFG">      0.00100000</i>
   <i type="int" name="NFREE">     0</i>
   <i name="POTIM">      0.50000000</i>
   <i name="SMASS">     -3.00000000</i>
   <i name="SCALEE">      1.00000000</i>
  </separator>
  <separator name="ionic md" >
   <i name="TEBEG">      0.00010000</i>
   <i name="TEEND">      0.00010000</i>
   <i type="int" name="NBLOCK">     1</i>
   <i type="int" name="KBLOCK">     1</i>
   <i type="int" name="NPACO">   256</i>
   <i name="APACO">     10.00000000</i>
  </separator>
  <separator name="symmetry" >
   <i type="int" name="ISYM">     2</i>
   <i name="SYMPREC">      0.00001000</i>
  </separator>
  <separator name="dos" >
   <i type="int" name="LORBIT">     0</i>
   <v name="RWIGS">     -1.00000000</v>
   <i type="int" name="NEDOS">   301</i>
   <i name="EMIN">     10.00000000</i>
   <i name="EMAX">    -10.00000000</i>
   <i name="EFERMI">      0.00000000</i>
  </separator>
  <separator name="writing" >
   <i type="int" name="NWRITE">     2</i>
   <i type="logical" name="LWAVE"> T  </i>
   <i type="logical" name="LDOWNSAMPLE"> F  </i>
   <i type="logical" name="LCHARG"> T  </i>
   <i type="logical" name="LPARD"> F  </i>
   <i type="logical" name="LVTOT"> F  </i>
   <i type="logical" name="LVHAR"> F  </i>
   <i type="logical" name="LELF"> F  </i>
   <i type="logical" name="LOPTICS"> F  </i>
   <v name="STM">      0.00000000      0.00000000      0.00000000      0.00000000      0.00000000      0.00000000      0.00000000</v>
  </separator>
  <separator name="performance" >
   <i type="int" name="NPAR">    48</i>
   <i type="int" name="NSIM">     4</i>
   <i type="int" name="NBLK">    -1</i>
   <i type="logical" name="LPLANE"> T  </i>
   <i type="logical" name="LSCALAPACK"> T  </i>
   <i type="logical" name="LSCAAWARE"> T  </i>
   <i type="logical" name="LSCALU"> F  </i>
   <i type="logical" name="LASYNC"> F  </i>
   <i type="logical" name="LORBITALREAL"> F  </i>
  </separator>
  <separator name="miscellaneous" >
   <i type="int" name="IDIOT">     3</i>
   <i type="int" name="PHON_NSTRUCT">    -1</i>
   <i type="logical" name="LMUSIC"> F  </i>
   <v name="POMASS">    107.86800000</v>
   <v name="DARWINR">      0.00000000</v>
   <v name="DARWINV">      1.00000000</v>
   <i type="logical" name="LCORR"> T  </i>
  </separator>
  <i type="logical" name="GGA_COMPAT"> T  </i>
  <i type="logical" name="LBERRY"> F  </i>
  <i type="int" name="ICORELEVEL">     0</i>
  <i type="logical" name="LDAU"> F  </i>
  <i type="int" name="I_CONSTRAINED_M">     0</i>
  <separator name="electronic exchange-correlation" >
   <i type="string" name="GGA    ">PE</i>
   <i type="string" name="XC_C">1</i>
   <i type="int" name="VOSKOWN">     0</i>
   <i type="logical" name="LHFCALC"> F  </i>
   <i type="string" name="PRECFOCK"></i>
   <i type="logical" name="LSYMGRAD"> F  </i>
   <i type="logical" name="LHFONE"> F  </i>
   <i type="logical" name="LRHFCALC"> F  </i>
   <i type="logical" name="LTHOMAS"> F  </i>
   <i type="logical" name="LMODELHF"> F  </i>
   <i type="logical" name="LFOCKACE"> F  </i>
   <i name="ENCUT4O">     -1.00000000</i>
   <i type="int" name="EXXOEP">     0</i>
   <i type="int" name="FOURORBIT">     0</i>
   <i name="AEXX">      0.00000000</i>
   <i name="HFALPHA">      0.00000000</i>
   <i name="MCALPHA">      0.00000000</i>
   <i name="ALDAX">      1.00000000</i>
   <i name="AGGAX">      1.00000000</i>
   <i name="AMGGAX">      1.00000000</i>
   <i name="ALDAC">      1.00000000</i>
   <i name="AGGAC">      1.00000000</i>
   <i name="AMGGAC">      1.00000000</i>
   <i type="int" name="NKREDX">     1</i>
   <i type="int" name="NKREDY">     1</i>
   <i type="int" name="NKREDZ">     1</i>
   <i type="logical" name="SHIFTRED"> F  </i>
   <i type="logical" name="ODDONLY"> F  </i>
   <i type="logical" name="EVENONLY"> F  </i>
   <i type="int" name="LMAXFOCK">     0</i>
   <i type="int" name="NMAXFOCKAE">     0</i>
   <i type="logical" name="LFOCKAEDFT"> F  </i>
   <i name="HFSCREEN">      0.00000000</i>
   <i name="HFSCREENC">      0.00000000</i>
   <i type="int" name="NBANDSGWLOW">     0</i>
  </separator>
  <separator name="vdW DFT" >
   <i type="logical" name="LUSE_VDW"> F  </i>
   <i type="int" name="IVDW_NL">    -1</i>
   <i type="logical" name="LSPIN_VDW"> F  </i>
   <i name="ZAB_VDW">     -0.84910000</i>
   <i name="GAMMA_VDW">      1.39626340</i>
   <i name="ALPHA_VDW">      0.00000000</i>
   <i name="PARAM1">      0.12340000</i>
   <i name="PARAM2">      1.00000000</i>
   <i name="BPARAM">      6.30000000</i>
   <i name="CPARAM">      0.00930000</i>
  </separator>
  <separator name="model GW" >
   <i type="int" name="MODEL_GW">     0</i>
   <i name="MODEL_EPS0">     10.83174715</i>
   <i name="MODEL_ALPHA">      1.00000000</i>
  </separator>
  <separator name="linear response parameters" >
   <i type="logical" name="LEPSILON"> F  </i>
   <i type="logical" name="LRPA"> F  </i>
   <i type="logical" name="LNABLA"> F  </i>
   <i type="logical" name="LVEL"> F  </i>
   <i name="CSHIFT">      0.10000000</i>
   <i name="OMEGAMAX">     -1.00000000</i>
   <i name="DEG_THRESHOLD">      0.00200000</i>
   <i name="RTIME">     -0.10000000</i>
   <i name="WPLASMAI">      0.00000000</i>
   <v name="DFIELD">      0.00000000      0.00000000      0.00000000</v>
   <v name="WPLASMA">      0.00000000      0.00000000      0.00000000      0.00000000      0.00000000      0.00000000      0.00000000      0.00000000      0.00000000</v>
  </separator>
  <separator name="orbital magnetization" >
   <i type="logical" name="NUCIND"> F  </i>
   <v name="MAGPOS">      0.00000000      0.00000000      0.00000000</v>
   <i type="logical" name="LNICSALL"> T  </i>
   <i type="logical" name="ORBITALMAG"> F  </i>
   <i type="logical" name="LMAGBLOCH"> F  </i>
   <i type="logical" name="LCHIMAG"> F  </i>
   <i type="logical" name="LGAUGE"> T  </i>
   <i type="int" name="MAGATOM">     0</i>
   <v name="MAGDIPOL">      0.00000000      0.00000000      0.00000000</v>
   <v name="AVECCONST">      0.00000000      0.00000000      0.00000000</v>
  </separator>
  <separator name="response functions" >
   <i type="logical" name="LALL_IN_ONE"> F  </i>
   <i type="int" name="IALL_IN_ONE">    -1</i>
   <i type="int" name="NBANDS_WAVE">    -1</i>
   <i type="logical" name="LFINITE_TEMPERATURE"> F  </i>
   <i type="logical" name="LADDER"> F  </i>
   <i type="logical" name="LRPAFORCE"> F  </i>
   <i type="logical" name="LFXC"> F  </i>
   <i type="logical" name="LHARTREE"> T  </i>
   <i type="int" name="IBSE">     0</i>
   <v type="int" name="KPOINT">    -1     0     0     0</v>
   <i type="logical" name="LTCTC"> F  </i>
   <i type="logical" name="LTCTE"> F  </i>
   <i type="logical" name="LTETE"> F  </i>
   <i type="logical" name="LTRIPLET"> F  </i>
   <i type="logical" name="LFXCEPS"> F  </i>
   <i type="logical" name="LFXHEG"> F  </i>
   <i type="int" name="NATURALO">     2</i>
   <i type="logical" name="LHOLEGF"> F  </i>
   <i type="logical" name="L2ORDER"> F  </i>
   <i type="logical" name="LDMP1"> F  </i>
   <i type="logical" name="LMP2LT"> F  </i>
   <i type="logical" name="LSMP2LT"> F  </i>
   <i type="logical" name="LGWLF"> F  </i>
   <i name="ENCUTGW">     -1.60000002</i>
   <i name="ENCUTGWSOFT">     -1.60000002</i>
   <i name="ENCUTLF">     -1.00000000</i>
   <i type="logical" name="ESF_SPLINES"> F  </i>
   <i name="ESF_CONV">      0.01000000</i>
   <i type="int" name="ESF_NINTER">    15</i>
   <i type="int" name="LMAXMP2">    -1</i>
   <i name="SCISSOR">      0.00000000</i>
   <i type="int" name="NOMEGA">     0</i>
   <i type="int" name="NOMEGAR">     0</i>
   <i type="int" name="NBANDSGW">    -1</i>
   <i type="int" name="NBANDSO">    -1</i>
   <i type="int" name="NBANDSV">    -1</i>
   <i type="int" name="NELMGW">     1</i>
   <i type="int" name="NELMHF">     1</i>
   <i type="int" name="DIM">     3</i>
   <i type="int" name="IESPILON">     4</i>
   <i type="int" name="ANTIRES">     0</i>
   <i name="OMEGAMAX">    -30.00000000</i>
   <i name="OMEGAMIN">    -30.00000000</i>
   <i name="OMEGATL">   -200.00000000</i>
   <i type="int" name="OMEGAGRID">     0</i>
   <i name="CSHIFT">     -0.10000000</i>
   <i type="logical" name="LSELFENERGY"> F  </i>
   <i type="logical" name="LSPECTRAL"> F  </i>
   <i type="logical" name="LSPECTRALGW"> F  </i>
   <i type="logical" name="LSINGLES"> F  </i>
   <i type="logical" name="LFERMIGW"> F  </i>
   <i type="logical" name="ODDONLYGW"> F  </i>
   <i type="logical" name="EVENONLYGW"> F  </i>
   <i type="int" name="NKREDLFX">     1</i>
   <i type="int" name="NKREDLFY">     1</i>
   <i type="int" name="NKREDLFZ">     1</i>
   <i type="int" name="MAXMEM">  2800</i>
   <i type="int" name="TELESCOPE">     0</i>
   <i type="int" name="NTAUPAR">    -1</i>
   <i type="int" name="NOMEGAPAR">    -1</i>
   <i name="DAMP_NEWTON">      0.80000001</i>
   <i name="LAMBDA">      1.00000000</i>
  </separator>
  <separator name="External order field" >
   <i name="OFIELD_KAPPA">      0.00000000</i>
   <v name="OFIELD_K">      0.00000000      0.00000000      0.00000000</v>
   <i name="OFIELD_Q6_NEAR">      0.00000000</i>
   <i name="OFIELD_Q6_FAR">      0.00000000</i>
   <i name="OFIELD_A">      0.00000000</i>
  </separator>
  <separator name="optional k-points parameters" >
   <i type="int" name="KPOINTS_OPT_MODE">     1</i>
   <i type="logical" name="LKPOINTS_OPT"> T  </i>
  </separator>
 </parameters>
 <atominfo>
  <atoms>       4 </atoms>
  <types>       1 </types>
  <array name="atoms" >
   <dimension dim="1">ion</dimension>
   <field type="string">element</field>
   <field type="int">atomtype</field>
   <set>
    <rc><c>Ag</c><c>   1</c></rc>
    <rc><c>Ag</c><c>   1</c></rc>
    <rc><c>Ag</c><c>   1</c></rc>
    <rc><c>Ag</c><c>   1</c></rc>
   </set>
  </array>
  <array name="atomtypes" >
   <dimension dim="1">type</dimension>
   <field type="int">atomspertype</field>
   <field type="string">element</field>
   <field>mass</field>
   <field>valence</field>
   <field type="string">pseudopotential</field>
   <set>
    <rc><c>   4</c><c>Ag</c><c>    107.86800000</c><c>     11.00000000</c><c>PAW_PBE Ag 02Apr2005                    </c></rc>
   </set>
  </array>
 </atominfo>
 <structure name="initialpos" >
  <crystal>
   <varray name="basis" >
    <v>       4.16424000       0.00000000       0.00000000 </v>
    <v>       0.00000000       4.16424000       0.00000000 </v>
    <v>       0.00000000       0.00000000       4.16424000 </v>
   </varray>
   <i name="volume">     72.21164767 </i>
   <varray name="rec_basis" >
    <v>       0.24013986      -0.00000000       0.00000000 </v>
    <v>       0.00000000       0.24013986       0.00000000 </v>
    <v>      -0.00000000      -0.00000000       0.24013986 </v>
   </varray>
  </crystal>
  <varray name="positions" >
   <v>       0.00000000       0.00000000       0.00000000 </v>
   <v>       0.00000000       0.50000000       0.50000000 </v>
   <v>       0.50000000       0.00000000       0.50000000 </v>
   <v>       0.50000000       0.50000000       0.00000000 </v>
  </varray>
 </structure>
 <calculation>
  <scstep>
   <time name="dav">    0.31    0.31</time>
   <time name="total">    0.32    0.32</time>
   <energy>
    <i name="alphaZ">    188.46335104 </i>
    <i name="ewald">  -3836.73644632 </i>
    <i name="hartreedc">   -796.48919332 </i>
    <i name="XCdc">    -44.05609746 </i>
    <i name="pawpsdc">   4394.99367519 </i>
    <i name="pawaedc">  -4220.02957447 </i>
    <i name="eentropy">     -0.00264103 </i>
    <i name="bandstr">    154.05511587 </i>
    <i name="atom">   4148.90130626 </i>
    <i name="e_fr_energy">    -10.90050424 </i>
    <i name="e_wo_entrp">    -10.89786321 </i>
    <i name="e_0_energy">    -10.89918373 </i>
   </energy>
  </scstep>
  <scstep>
   <time name="dav">    0.27    0.27</time>
   <time name="total">    0.28    0.28</time>
   <energy>
    <i name="alphaZ">    188.46335104 </i>
    <i name="ewald">  -3836.73644632 </i>
    <i name="hartreedc">   -796.53009814 </i>
    <i name="XCdc">    -44.05468468 </i>
    <i name="pawpsdc">   4395.03839090 </i>
    <i name="pawaedc">  -4220.07386865 </i>
    <i name="eentropy">     -0.00264103 </i>
    <i name="bandstr">    154.09418702 </i>
    <i name="atom">   4148.90130626 </i>
    <i name="e_fr_energy">    -10.90050360 </i>
    <i name="e_wo_entrp">    -10.89786257 </i>
    <i name="e_0_energy">    -10.89918308 </i>
   </energy>
  </scstep>
  <structure>
   <crystal>
    <varray name="basis" >
     <v>       4.16424000       0.00000000       0.00000000 </v>
     <v>       0.00000000       4.16424000       0.00000000 </v>
     <v>       0.00000000       0.00000000       4.16424000 </v>
    </varray>
    <i name="volume">     72.21164767 </i>
    <varray name="rec_basis" >
     <v>       0.24013986      -0.00000000       0.00000000 </v>
     <v>       0.00000000       0.24013986       0.00000000 </v>
     <v>      -0.00000000      -0.00000000       0.24013986 </v>
    </varray>
   </crystal>
   <varray name="positions" >
    <v>       0.00000000       0.00000000       0.00000000 </v>
    <v>       0.00000000       0.50000000       0.50000000 </v>
    <v>       0.50000000       0.00000000       0.50000000 </v>
    <v>       0.50000000       0.50000000       0.00000000 </v>
   </varray>
  </structure>
  <varray name="forces" >
   <v>      -0.00000000      -0.00000000       0.00000000 </v>
   <v>      -0.00000000       0.00000000      -0.00000000 </v>
   <v>       0.00000000       0.00000000       0.00000000 </v>
   <v>      -0.00000000      -0.00000000       0.00000000 </v>
  </varray>
  <varray name="stress" >
   <v>     -17.42308311      -0.00000000      -0.00000000 </v>
   <v>      -0.00000000     -17.42308311      -0.00000000 </v>
   <v>       0.00000000       0.00000000     -17.42308311 </v>
  </varray>
  <energy>
   <i name="e_fr_energy">    -10.90050360 </i>
   <i name="e_wo_entrp">    -10.89786257 </i>
   <i name="e_0_energy">    -10.89918308 </i>
  </energy>
  <dos comment="kpoints_opt">
   <i name="efermi">      7.36520907 </i>
   <total>
    <array>
     <dimension dim="1">gridpoints</dimension>
     <dimension dim="2">spin</dimension>
     <field>energy</field>
     <field>total</field>
     <field>integrated</field>
     <set>
      <set comment="spin 1">
       <r>    -1.4813     0.0000     0.0000 </r>
       <r>    -1.3505     0.0000     0.0000 </r>
       <r>    -1.2197     0.0000     0.0000 </r>
       <r>    -1.0889     0.0000     0.0000 </r>
       <r>    -0.9580     0.0000     0.0000 </r>
       <r>    -0.8272     0.0000     0.0000 </r>
       <r>    -0.6964     0.0000     0.0000 </r>
       <r>    -0.5656     0.0000     0.0000 </r>
       <r>    -0.4348     0.0000     0.0000 </r>
       <r>    -0.3040     0.0000     0.0000 </r>
       <r>    -0.1732     0.0000     0.0000 </r>
       <r>    -0.0424     0.0000     0.0000 </r>
       <r>     0.0884     0.0000     0.0000 </r>
       <r>     0.2193     0.0045     0.0006 </r>
       <r>     0.3501     0.8853     0.1164 </r>
       <r>     0.4809     0.8820     0.2318 </r>
       <r>     0.6117     0.5481     0.3035 </r>
       <r>     0.7425     0.4465     0.3619 </r>
       <r>     0.8733     0.3906     0.4130 </r>
       <r>     1.0041     0.3607     0.4602 </r>
       <r>     1.1349     0.3343     0.5039 </r>
       <r>     1.2657     0.3276     0.5467 </r>
       <r>     1.3965     0.3159     0.5881 </r>
       <r>     1.5274     0.4260     0.6438 </r>
       <r>     1.6582     5.2934     1.3362 </r>
       <r>     1.7890     9.5451     2.5848 </r>
       <r>     1.9198     8.0758     3.6412 </r>
       <r>     2.0506    11.2124     5.1079 </r>
       <r>     2.1814    12.1646     6.6992 </r>
       <r>     2.3122     9.0767     7.8865 </r>
       <r>     2.4430     6.6580     8.7574 </r>
       <r>     2.5738     8.4720     9.8657 </r>
       <r>     2.7047     6.2130    10.6784 </r>
       <r>     2.8355    17.5132    12.9693 </r>
       <r>     2.9663    16.7496    15.1603 </r>
       <r>     3.0971    11.3820    16.6492 </r>
       <r>     3.2279    16.0377    18.7471 </r>
       <r>     3.3587    17.8148    21.0775 </r>
       <r>     3.4895    12.6464    22.7318 </r>
       <r>     3.6203    13.9825    24.5608 </r>
       <r>     3.7511    18.3557    26.9619 </r>
       <r>     3.8819     9.0970    28.1519 </r>
       <r>     4.0128    12.9324    29.8436 </r>
       <r>     4.1436    13.9498    31.6684 </r>
       <r>     4.2744     9.8367    32.9551 </r>
       <r>     4.4052    10.5143    34.3305 </r>
       <r>     4.5360    11.6646    35.8564 </r>
       <r>     4.6668    14.9518    37.8122 </r>
       <r>     4.7976    11.0301    39.2551 </r>
       <r>     4.9284    10.9281    40.6846 </r>
       <r>     5.0592     1.5532    40.8878 </r>
       <r>     5.1901     0.6035    40.9667 </r>
       <r>     5.3209     0.6271    41.0488 </r>
       <r>     5.4517     0.5856    41.1254 </r>
       <r>     5.5825     0.5796    41.2012 </r>
       <r>     5.7133     0.6027    41.2800 </r>
       <r>     5.8441     0.5016    41.3457 </r>
       <r>     5.9749     0.5796    41.4215 </r>
       <r>     6.1057     0.5650    41.4954 </r>
       <r>     6.2365     0.4930    41.5599 </r>
       <r>     6.3673     0.5820    41.6360 </r>
       <r>     6.4982     0.4153    41.6903 </r>
       <r>     6.6290     0.5716    41.7651 </r>
       <r>     6.7598     0.4642    41.8258 </r>
       <r>     6.8906     0.5029    41.8916 </r>
       <r>     7.0214     0.6039    41.9706 </r>
       <r>     7.1522     7.0584    42.8939 </r>
       <r>     7.2830     5.9775    43.6758 </r>
       <r>     7.4138     3.6903    44.1586 </r>
       <r>     7.5446     3.0355    44.5556 </r>
       <r>     7.6755     2.2714    44.8528 </r>
       <r>     7.8063     1.3321    45.0270 </r>
       <r>     7.9371     1.2662    45.1926 </r>
       <r>     8.0679     1.1592    45.3443 </r>
       <r>     8.1987     1.1569    45.4956 </r>
       <r>     8.3295     1.1200    45.6421 </r>
       <r>     8.4603     1.0526    45.7798 </r>
       <r>     8.5911     1.0952    45.9231 </r>
       <r>     8.7219     1.0314    46.0580 </r>
       <r>     8.8527     1.0763    46.1988 </r>
       <r>     8.9836     1.1252    46.3460 </r>
       <r>     9.1144     1.1813    46.5005 </r>
       <r>     9.2452     1.5412    46.7021 </r>
       <r>     9.3760     2.7879    47.0668 </r>
       <r>     9.5068     1.4108    47.2513 </r>
       <r>     9.6376     0.4016    47.3039 </r>
       <r>     9.7684     0.5016    47.3695 </r>
       <r>     9.8992     0.3147    47.4106 </r>
       <r>    10.0300     0.4298    47.4669 </r>
       <r>    10.1609     0.3005    47.5062 </r>
       <r>    10.2917     0.3687    47.5544 </r>
       <r>    10.4225     0.3271    47.5972 </r>
       <r>    10.5533     0.3268    47.6399 </r>
       <r>    10.6841     0.3498    47.6857 </r>
       <r>    10.8149     0.3025    47.7253 </r>
       <r>    10.9457     0.3763    47.7745 </r>
       <r>    11.0765     0.3928    47.8259 </r>
       <r>    11.2073     0.5001    47.8913 </r>
       <r>    11.3381     0.6291    47.9736 </r>
       <r>    11.4690     0.4846    48.0370 </r>
       <r>    11.5998     0.3219    48.0791 </r>
       <r>    11.7306     0.5905    48.1563 </r>
       <r>    11.8614     0.6031    48.2352 </r>
       <r>    11.9922     0.4778    48.2977 </r>
       <r>    12.1230     0.4868    48.3614 </r>
       <r>    12.2538     0.4489    48.4201 </r>
       <r>    12.3846     0.5067    48.4864 </r>
       <r>    12.5154     0.3945    48.5380 </r>
       <r>    12.6463     0.4480    48.5966 </r>
       <r>    12.7771     0.4457    48.6549 </r>
       <r>    12.9079     0.5217    48.7232 </r>
       <r>    13.0387     1.5085    48.9205 </r>
       <r>    13.1695     1.3165    49.0927 </r>
       <r>    13.3003     1.4359    49.2805 </r>
       <r>    13.4311     1.1257    49.4278 </r>
       <r>    13.5619     1.2523    49.5916 </r>
       <r>    13.6927     1.1241    49.7386 </r>
       <r>    13.8235     1.0733    49.8790 </r>
       <r>    13.9544     1.9202    50.1302 </r>
       <r>    14.0852     4.2636    50.6879 </r>
       <r>    14.2160     1.8573    50.9309 </r>
       <r>    14.3468     1.8157    51.1684 </r>
       <r>    14.4776     1.9602    51.4248 </r>
       <r>    14.6084     1.6705    51.6433 </r>
       <r>    14.7392     1.5639    51.8479 </r>
       <r>    14.8700     1.2930    52.0171 </r>
       <r>    15.0008     1.3676    52.1960 </r>
       <r>    15.1317     1.6981    52.4181 </r>
       <r>    15.2625     1.3876    52.5996 </r>
       <r>    15.3933     1.9582    52.8557 </r>
       <r>    15.5241     2.1248    53.1337 </r>
       <r>    15.6549     2.0632    53.4036 </r>
       <r>    15.7857     1.7801    53.6364 </r>
       <r>    15.9165     1.6398    53.8509 </r>
       <r>    16.0473     1.9373    54.1043 </r>
       <r>    16.1781     1.6537    54.3207 </r>
       <r>    16.3090     1.2525    54.4845 </r>
       <r>    16.4398     1.3501    54.6611 </r>
       <r>    16.5706     1.7477    54.8898 </r>
       <r>    16.7014     5.2712    55.5793 </r>
       <r>    16.8322     3.7789    56.0736 </r>
       <r>    16.9630     3.5691    56.5405 </r>
       <r>    17.0938     3.1229    56.9490 </r>
       <r>    17.2246     1.9564    57.2049 </r>
       <r>    17.3554     1.7855    57.4385 </r>
       <r>    17.4862     2.0279    57.7037 </r>
       <r>    17.6171     1.9838    57.9632 </r>
       <r>    17.7479     3.4678    58.4168 </r>
       <r>    17.8787     3.2686    58.8444 </r>
       <r>    18.0095     4.7016    59.4594 </r>
       <r>    18.1403     5.3552    60.1599 </r>
       <r>    18.2711     2.1667    60.4434 </r>
       <r>    18.4019     1.9939    60.7042 </r>
       <r>    18.5327     1.6025    60.9138 </r>
       <r>    18.6635     1.9165    61.1645 </r>
       <r>    18.7944     1.4180    61.3500 </r>
       <r>    18.9252     1.7940    61.5847 </r>
       <r>    19.0560     1.5053    61.7816 </r>
       <r>    19.1868     1.6074    61.9919 </r>
       <r>    19.3176     1.5158    62.1901 </r>
       <r>    19.4484     1.6659    62.4081 </r>
       <r>    19.5792     1.6044    62.6179 </r>
       <r>    19.7100     1.5467    62.8202 </r>
       <r>    19.8408     1.4873    63.0148 </r>
       <r>    19.9716     1.3277    63.1885 </r>
       <r>    20.1025     1.4472    63.3778 </r>
       <r>    20.2333     1.3224    63.5508 </r>
       <r>    20.3641     1.1709    63.7039 </r>
       <r>    20.4949     1.4432    63.8927 </r>
       <r>    20.6257     1.0450    64.0294 </r>
       <r>    20.7565     1.4393    64.2177 </r>
       <r>    20.8873     1.0965    64.3611 </r>
       <r>    21.0181     1.2642    64.5265 </r>
       <r>    21.1489     1.1718    64.6798 </r>
       <r>    21.2798     1.3790    64.8602 </r>
       <r>    21.4106     0.8337    64.9692 </r>
       <r>    21.5414     0.9443    65.0928 </r>
       <r>    21.6722     1.3379    65.2678 </r>
       <r>    21.8030     1.4443    65.4567 </r>
       <r>    21.9338     1.2110    65.6151 </r>
       <r>    22.0646     1.2137    65.7739 </r>
       <r>    22.1954     1.3794    65.9543 </r>
       <r>    22.3262     1.0970    66.0978 </r>
       <r>    22.4570     1.4749    66.2907 </r>
       <r>    22.5879     1.0290    66.4254 </r>
       <r>    22.7187     1.6748    66.6444 </r>
       <r>    22.8495     1.7998    66.8799 </r>
       <r>    22.9803     1.8526    67.1222 </r>
       <r>    23.1111     1.6568    67.3389 </r>
       <r>    23.2419     1.4816    67.5327 </r>
       <r>    23.3727     1.6723    67.7515 </r>
       <r>    23.5035     1.9055    68.0008 </r>
       <r>    23.6343     3.4152    68.4475 </r>
       <r>    23.7652     3.1090    68.8542 </r>
       <r>    23.8960     4.5725    69.4523 </r>
       <r>    24.0268     5.3994    70.1586 </r>
       <r>    24.1576     5.1326    70.8300 </r>
       <r>    24.2884     7.8487    71.8567 </r>
       <r>    24.4192     4.8299    72.4885 </r>
       <r>    24.5500     3.9462    73.0047 </r>
       <r>    24.6808     5.6421    73.7428 </r>
       <r>    24.8116     3.7795    74.2372 </r>
       <r>    24.9424     3.5719    74.7044 </r>
       <r>    25.0733     3.1689    75.1189 </r>
       <r>    25.2041     3.3033    75.5510 </r>
       <r>    25.3349     3.2515    75.9764 </r>
       <r>    25.4657     2.6565    76.3239 </r>
       <r>    25.5965     2.8649    76.6986 </r>
       <r>    25.7273     3.2039    77.1177 </r>
       <r>    25.8581     4.1564    77.6614 </r>
       <r>    25.9889     3.5071    78.1202 </r>
       <r>    26.1197     2.5525    78.4541 </r>
       <r>    26.2506     2.0173    78.7180 </r>
       <r>    26.3814     1.8483    78.9598 </r>
       <r>    26.5122     1.7521    79.1890 </r>
       <r>    26.6430     1.9003    79.4376 </r>
       <r>    26.7738     3.0518    79.8368 </r>
       <r>    26.9046     3.2838    80.2663 </r>
       <r>    27.0354     1.3368    80.4412 </r>
       <r>    27.1662     1.2354    80.6028 </r>
       <r>    27.2970     1.2266    80.7633 </r>
       <r>    27.4278     1.1162    80.9093 </r>
       <r>    27.5587     1.0961    81.0526 </r>
       <r>    27.6895     1.1728    81.2061 </r>
       <r>    27.8203     1.2094    81.3643 </r>
       <r>    27.9511     1.3936    81.5466 </r>
       <r>    28.0819     1.4682    81.7386 </r>
       <r>    28.2127     0.6222    81.8200 </r>
       <r>    28.3435     1.3480    81.9963 </r>
       <r>    28.4743     0.8729    82.1105 </r>
       <r>    28.6051     0.8616    82.2232 </r>
       <r>    28.7360     1.0394    82.3592 </r>
       <r>    28.8668     0.8136    82.4656 </r>
       <r>    28.9976     1.0646    82.6049 </r>
       <r>    29.1284     0.7243    82.6996 </r>
       <r>    29.2592     1.5734    82.9054 </r>
       <r>    29.3900     2.5599    83.2403 </r>
       <r>    29.5208     1.8436    83.4815 </r>
       <r>    29.6516     2.3468    83.7885 </r>
       <r>    29.7824     5.2906    84.4805 </r>
       <r>    29.9132     5.1815    85.1583 </r>
       <r>    30.0441     5.2642    85.8469 </r>
       <r>    30.1749     2.7351    86.2047 </r>
       <r>    30.3057     2.2084    86.4936 </r>
       <r>    30.4365     2.2808    86.7920 </r>
       <r>    30.5673     1.8360    87.0321 </r>
       <r>    30.6981     1.7215    87.2573 </r>
       <r>    30.8289     1.4310    87.4445 </r>
       <r>    30.9597     1.3117    87.6161 </r>
       <r>    31.0905     1.2282    87.7767 </r>
       <r>    31.2214     1.7881    88.0106 </r>
       <r>    31.3522     1.6915    88.2319 </r>
       <r>    31.4830     1.8554    88.4746 </r>
       <r>    31.6138     2.3754    88.7853 </r>
       <r>    31.7446     1.5855    88.9927 </r>
       <r>    31.8754     1.9258    89.2447 </r>
       <r>    32.0062     1.4386    89.4329 </r>
       <r>    32.1370     3.1403    89.8436 </r>
       <r>    32.2678     8.2759    90.9262 </r>
       <r>    32.3987     6.0477    91.7173 </r>
       <r>    32.5295    10.5117    93.0924 </r>
       <r>    32.6603     4.8891    93.7319 </r>
       <r>    32.7911     4.0921    94.2672 </r>
       <r>    32.9219     1.8264    94.5061 </r>
       <r>    33.0527     1.7556    94.7358 </r>
       <r>    33.1835     0.9418    94.8590 </r>
       <r>    33.3143     1.1047    95.0035 </r>
       <r>    33.4451     1.0505    95.1409 </r>
       <r>    33.5759     0.7600    95.2403 </r>
       <r>    33.7068     0.5893    95.3174 </r>
       <r>    33.8376     0.2769    95.3536 </r>
       <r>    33.9684     0.3507    95.3995 </r>
       <r>    34.0992     0.2813    95.4363 </r>
       <r>    34.2300     0.3515    95.4823 </r>
       <r>    34.3608     0.2049    95.5091 </r>
       <r>    34.4916     0.4001    95.5614 </r>
       <r>    34.6224     0.2234    95.5906 </r>
       <r>    34.7532     0.3125    95.6315 </r>
       <r>    34.8841     0.3019    95.6710 </r>
       <r>    35.0149     0.3464    95.7163 </r>
       <r>    35.1457     0.2451    95.7484 </r>
       <r>    35.2765     0.3376    95.7926 </r>
       <r>    35.4073     0.3015    95.8320 </r>
       <r>    35.5381     0.1569    95.8525 </r>
       <r>    35.6689     0.1930    95.8778 </r>
       <r>    35.7997     0.1793    95.9012 </r>
       <r>    35.9305     0.2376    95.9323 </r>
       <r>    36.0613     0.5111    95.9992 </r>
       <r>    36.1922     0.0065    96.0000 </r>
       <r>    36.3230     0.0000    96.0000 </r>
       <r>    36.4538     0.0000    96.0000 </r>
       <r>    36.5846     0.0000    96.0000 </r>
       <r>    36.7154     0.0000    96.0000 </r>
       <r>    36.8462     0.0000    96.0000 </r>
       <r>    36.9770     0.0000    96.0000 </r>
       <r>    37.1078     0.0000    96.0000 </r>
       <r>    37.2386     0.0000    96.0000 </r>
       <r>    37.3695     0.0000    96.0000 </r>
       <r>    37.5003     0.0000    96.0000 </r>
       <r>    37.6311     0.0000    96.0000 </r>
       <r>    37.7619     0.0000    96.0000 </r>
      </set>
     </set>
    </array>
   </total>
  </dos>
  <eigenvalues_kpoints_opt comment="kpoints_opt">
   <kpoints>
    <varray name="kpointlist" >
     <v>       0.00000000       0.00000000       0.00000000 </v>
     <v>       0.01041667       0.00000000       0.01041667 </v>
     <v>       0.02083333       0.00000000       0.02083333 </v>
     <v>       0.03125000       0.00000000       0.03125000 </v>
     <v>       0.04166667       0.00000000       0.04166667 </v>
     <v>       0.05208333       0.00000000       0.05208333 </v>
     <v>       0.06250000       0.00000000       0.06250000 </v>
     <v>       0.07291667       0.00000000       0.07291667 </v>
     <v>       0.08333333       0.00000000       0.08333333 </v>
     <v>       0.09375000       0.00000000       0.09375000 </v>
     <v>       0.10416667       0.00000000       0.10416667 </v>
     <v>       0.11458333       0.00000000       0.11458333 </v>
     <v>       0.12500000       0.00000000       0.12500000 </v>
     <v>       0.13541667       0.00000000       0.13541667 </v>
     <v>       0.14583333       0.00000000       0.14583333 </v>
     <v>       0.15625000       0.00000000       0.15625000 </v>
     <v>       0.16666667       0.00000000       0.16666667 </v>
     <v>       0.17708333       0.00000000       0.17708333 </v>
     <v>       0.18750000       0.00000000       0.18750000 </v>
     <v>       0.19791667       0.00000000       0.19791667 </v>
     <v>       0.20833333       0.00000000       0.20833333 </v>
     <v>       0.21875000       0.00000000       0.21875000 </v>
     <v>       0.22916667       0.00000000       0.22916667 </v>
     <v>       0.23958333       0.00000000       0.23958333 </v>
     <v>       0.25000000       0.00000000       0.25000000 </v>
     <v>       0.26041667       0.00000000       0.26041667 </v>
     <v>       0.27083333       0.00000000       0.27083333 </v>
     <v>       0.28125000       0.00000000       0.28125000 </v>
     <v>       0.29166667       0.00000000       0.29166667 </v>
     <v>       0.30208333       0.00000000       0.30208333 </v>
     <v>       0.31250000       0.00000000       0.31250000 </v>
     <v>       0.32291667       0.00000000       0.32291667 </v>
     <v>       0.33333333       0.00000000       0.33333333 </v>
     <v>       0.34375000       0.00000000       0.34375000 </v>
     <v>       0.35416667       0.00000000       0.35416667 </v>
     <v>       0.36458333       0.00000000       0.36458333 </v>
     <v>       0.37500000       0.00000000       0.37500000 </v>
     <v>       0.38541667       0.00000000       0.38541667 </v>
     <v>       0.39583333       0.00000000       0.39583333 </v>
     <v>       0.40625000       0.00000000       0.40625000 </v>
     <v>       0.41666667       0.00000000       0.41666667 </v>
     <v>       0.42708333       0.00000000       0.42708333 </v>
     <v>       0.43750000       0.00000000       0.43750000 </v>
     <v>       0.44791667       0.00000000       0.44791667 </v>
     <v>       0.45833333       0.00000000       0.45833333 </v>
     <v>       0.46875000       0.00000000       0.46875000 </v>
     <v>       0.47916667       0.00000000       0.47916667 </v>
     <v>       0.48958333       0.00000000       0.48958333 </v>
     <v>       0.50000000       0.00000000       0.50000000 </v>
     <v>       0.50000000       0.00000000       0.50000000 </v>
     <v>       0.50260417       0.00520833       0.50260417 </v>
     <v>       0.50520833       0.01041667       0.50520833 </v>
     <v>       0.50781250       0.01562500       0.50781250 </v>
     <v>       0.51041667       0.02083333       0.51041667 </v>
     <v>       0.51302083       0.02604167       0.51302083 </v>
     <v>       0.51562500       0.03125000       0.51562500 </v>
     <v>       0.51822917       0.03645833       0.51822917 </v>
     <v>       0.52083333       0.04166667       0.52083333 </v>
     <v>       0.52343750       0.04687500       0.52343750 </v>
     <v>       0.52604167       0.05208333       0.52604167 </v>
     <v>       0.52864583       0.05729167       0.52864583 </v>
     <v>       0.53125000       0.06250000       0.53125000 </v>
     <v>       0.53385417       0.06770833       0.53385417 </v>
     <v>       0.53645833       0.07291667       0.53645833 </v>
     <v>       0.53906250       0.07812500       0.53906250 </v>
     <v>       0.54166667       0.08333333       0.54166667 </v>
     <v>       0.54427083       0.08854167       0.54427083 </v>
     <v>       0.54687500       0.09375000       0.54687500 </v>
     <v>       0.54947917       0.09895833       0.54947917 </v>
     <v>       0.55208333       0.10416667       0.55208333 </v>
     <v>       0.55468750       0.10937500       0.55468750 </v>
     <v>       0.55729167       0.11458333       0.55729167 </v>
     <v>       0.55989583       0.11979167       0.55989583 </v>
     <v>       0.56250000       0.12500000       0.56250000 </v>
     <v>       0.56510417       0.13020833       0.56510417 </v>
     <v>       0.56770833       0.13541667       0.56770833 </v>
     <v>       0.57031250       0.14062500       0.57031250 </v>
     <v>       0.57291667       0.14583333       0.57291667 </v>
     <v>       0.57552083       0.15104167       0.57552083 </v>
     <v>       0.57812500       0.15625000       0.57812500 </v>
     <v>       0.58072917       0.16145833       0.58072917 </v>
     <v>       0.58333333       0.16666667       0.58333333 </v>
     <v>       0.58593750       0.17187500       0.58593750 </v>
     <v>       0.58854167       0.17708333       0.58854167 </v>
     <v>       0.59114583       0.18229167       0.59114583 </v>
     <v>       0.59375000       0.18750000       0.59375000 </v>
     <v>       0.59635417       0.19270833       0.59635417 </v>
     <v>       0.59895833       0.19791667       0.59895833 </v>
     <v>       0.60156250       0.20312500       0.60156250 </v>
     <v>       0.60416667       0.20833333       0.60416667 </v>
     <v>       0.60677083       0.21354167       0.60677083 </v>
     <v>       0.60937500       0.21875000       0.60937500 </v>
     <v>       0.61197917       0.22395833       0.61197917 </v>
     <v>       0.61458333       0.22916667       0.61458333 </v>
     <v>       0.61718750       0.23437500       0.61718750 </v>
     <v>       0.61979167       0.23958333       0.61979167 </v>
     <v>       0.62239583       0.24479167       0.62239583 </v>
     <v>       0.62500000       0.25000000       0.62500000 </v>
     <v>       0.62500000       0.25000000       0.62500000 </v>
     <v>       0.61197917       0.24479167       0.61197917 </v>
     <v>       0.59895833       0.23958333       0.59895833 </v>
     <v>       0.58593750       0.23437500       0.58593750 </v>
     <v>       0.57291667       0.22916667       0.57291667 </v>
     <v>       0.55989583       0.22395833       0.55989583 </v>
     <v>       0.54687500       0.21875000       0.54687500 </v>
     <v>       0.53385417       0.21354167       0.53385417 </v>
     <v>       0.52083333       0.20833333       0.52083333 </v>
     <v>       0.50781250       0.20312500       0.50781250 </v>
     <v>       0.49479167       0.19791667       0.49479167 </v>
     <v>       0.48177083       0.19270833       0.48177083 </v>
     <v>       0.46875000       0.18750000       0.46875000 </v>
     <v>       0.45572917       0.18229167       0.45572917 </v>
     <v>       0.44270833       0.17708333       0.44270833 </v>
     <v>       0.42968750       0.17187500       0.42968750 </v>
     <v>       0.41666667       0.16666667       0.41666667 </v>
     <v>       0.40364583       0.16145833       0.40364583 </v>
     <v>       0.39062500       0.15625000       0.39062500 </v>
     <v>       0.37760417       0.15104167       0.37760417 </v>
     <v>       0.36458333       0.14583333       0.36458333 </v>
     <v>       0.35156250       0.14062500       0.35156250 </v>
     <v>       0.33854167       0.13541667       0.33854167 </v>
     <v>       0.32552083       0.13020833       0.32552083 </v>
     <v>       0.31250000       0.12500000       0.31250000 </v>
     <v>       0.29947917       0.11979167       0.29947917 </v>
     <v>       0.28645833       0.11458333       0.28645833 </v>
     <v>       0.27343750       0.10937500       0.27343750 </v>
     <v>       0.26041667       0.10416667       0.26041667 </v>
     <v>       0.24739583       0.09895833       0.24739583 </v>
     <v>       0.23437500       0.09375000       0.23437500 </v>
     <v>       0.22135417       0.08854167       0.22135417 </v>
     <v>       0.20833333       0.08333333       0.20833333 </v>
     <v>       0.19531250       0.07812500       0.19531250 </v>
     <v>       0.18229167       0.07291667       0.18229167 </v>
     <v>       0.16927083       0.06770833       0.16927083 </v>
     <v>       0.15625000       0.06250000       0.15625000 </v>
     <v>       0.14322917       0.05729167       0.14322917 </v>
     <v>       0.13020833       0.05208333       0.13020833 </v>
     <v>       0.11718750       0.04687500       0.11718750 </v>
     <v>       0.10416667       0.04166667       0.10416667 </v>
     <v>       0.09114583       0.03645833       0.09114583 </v>
     <v>       0.07812500       0.03125000       0.07812500 </v>
     <v>       0.06510417       0.02604167       0.06510417 </v>
     <v>       0.05208333       0.02083333       0.05208333 </v>
     <v>       0.03906250       0.01562500       0.03906250 </v>
     <v>       0.02604167       0.01041667       0.02604167 </v>
     <v>       0.01302083       0.00520833       0.01302083 </v>
     <v>      -0.00000000       0.00000000      -0.00000000 </v>
    </varray>
    <varray name="weights" >
     <v>       0.00680272 </v>
     <v>       0.00680272 </v>
     <v>       0.00680272 </v>
     <v>       0.00680272 </v>
     <v>       0.00680272 </v>
     <v>       0.00680272 </v>
     <v>       0.00680272 </v>
     <v>       0.00680272 </v>
     <v>       0.00680272 </v>
     <v>       0.00680272 </v>
     <v>       0.00680272 </v>
     <v>       0.00680272 </v>
     <v>       0.00680272 </v>
     <v>       0.00680272 </v>
     <v>       0.00680272 </v>
     <v>       0.00680272 </v>
     <v>       0.00680272 </v>
     <v>       0.00680272 </v>
     <v>       0.00680272 </v>
     <v>       0.00680272 </v>
     <v>       0.00680272 </v>
     <v>       0.00680272 </v>
     <v>       0.00680272 </v>
     <v>       0.00680272 </v>
     <v>       0.00680272 </v>
     <v>       0.00680272 </v>
     <v>       0.00680272 </v>
     <v>       0.00680272 </v>
     <v>       0.00680272 </v>
     <v>       0.00680272 </v>
     <v>       0.00680272 </v>
     <v>       0.00680272 </v>
     <v>       0.00680272 </v>
     <v>       0.00680272 </v>
     <v>       0.00680272 </v>
     <v>       0.00680272 </v>
     <v>       0.00680272 </v>
     <v>       0.00680272 </v>
     <v>       0.00680272 </v>
     <v>       0.00680272 </v>
     <v>       0.00680272 </v>
     <v>       0.00680272 </v>
     <v>       0.00680272 </v>
     <v>       0.00680272 </v>
     <v>       0.00680272 </v>
     <v>       0.00680272 </v>
     <v>       0.00680272 </v>
     <v>       0.00680272 </v>
     <v>       0.00680272 </v>
     <v>       0.00680272 </v>
     <v>       0.00680272 </v>
     <v>       0.00680272 </v>
     <v>       0.00680272 </v>
     <v>       0.00680272 </v>
     <v>       0.00680272 </v>
     <v>       0.00680272 </v>
     <v>       0.00680272 </v>
     <v>       0.00680272 </v>
     <v>       0.00680272 </v>
     <v>       0.00680272 </v>
     <v>       0.00680272 </v>
     <v>       0.00680272 </v>
     <v>       0.00680272 </v>
     <v>       0.00680272 </v>
     <v>       0.00680272 </v>
     <v>       0.00680272 </v>
     <v>       0.00680272 </v>
     <v>       0.00680272 </v>
     <v>       0.00680272 </v>
     <v>       0.00680272 </v>
     <v>       0.00680272 </v>
     <v>       0.00680272 </v>
     <v>       0.00680272 </v>
     <v>       0.00680272 </v>
     <v>       0.00680272 </v>
     <v>       0.00680272 </v>
     <v>       0.00680272 </v>
     <v>       0.00680272 </v>
     <v>       0.00680272 </v>
     <v>       0.00680272 </v>
     <v>       0.00680272 </v>
     <v>       0.00680272 </v>
     <v>       0.00680272 </v>
     <v>       0.00680272 </v>
     <v>       0.00680272 </v>
     <v>       0.00680272 </v>
     <v>       0.00680272 </v>
     <v>       0.00680272 </v>
     <v>       0.00680272 </v>
     <v>       0.00680272 </v>
     <v>       0.00680272 </v>
     <v>       0.00680272 </v>
     <v>       0.00680272 </v>
     <v>       0.00680272 </v>
     <v>       0.00680272 </v>
     <v>       0.00680272 </v>
     <v>       0.00680272 </v>
     <v>       0.00680272 </v>
     <v>       0.00680272 </v>
     <v>       0.00680272 </v>
     <v>       0.00680272 </v>
     <v>       0.00680272 </v>
     <v>       0.00680272 </v>
     <v>       0.00680272 </v>
     <v>       0.00680272 </v>
     <v>       0.00680272 </v>
     <v>       0.00680272 </v>
     <v>       0.00680272 </v>
     <v>       0.00680272 </v>
     <v>       0.00680272 </v>
     <v>       0.00680272 </v>
     <v>       0.00680272 </v>
     <v>       0.00680272 </v>
     <v>       0.00680272 </v>
     <v>       0.00680272 </v>
     <v>       0.00680272 </v>
     <v>       0.00680272 </v>
     <v>       0.00680272 </v>
     <v>       0.00680272 </v>
     <v>       0.00680272 </v>
     <v>       0.00680272 </v>
     <v>       0.00680272 </v>
     <v>       0.00680272 </v>
     <v>       0.00680272 </v>
     <v>       0.00680272 </v>
     <v>       0.00680272 </v>
     <v>       0.00680272 </v>
     <v>       0.00680272 </v>
     <v>       0.00680272 </v>
     <v>       0.00680272 </v>
     <v>       0.00680272 </v>
     <v>       0.00680272 </v>
     <v>       0.00680272 </v>
     <v>       0.00680272 </v>
     <v>       0.00680272 </v>
     <v>       0.00680272 </v>
     <v>       0.00680272 </v>
     <v>       0.00680272 </v>
     <v>       0.00680272 </v>
     <v>       0.00680272 </v>
     <v>       0.00680272 </v>
     <v>       0.00680272 </v>
     <v>       0.00680272 </v>
     <v>       0.00680272 </v>
     <v>       0.00680272 </v>
     <v>       0.00680272 </v>
     <v>       0.00680272 </v>
    </varray>
   </kpoints>
   <eigenvalues>
    <array>
     <dimension dim="1">band</dimension>
     <dimension dim="2">kpoint</dimension>
     <dimension dim="3">spin</dimension>
     <field>eigene</field>
     <set>
      <set comment="spin 1">
       <set comment="kpoint 1">
        <r>    0.3025 </r>
        <r>    1.5865 </r>
        <r>    1.5865 </r>
        <r>    1.5865 </r>
        <r>    1.7064 </r>
        <r>    1.7064 </r>
        <r>    1.7064 </r>
        <r>    3.0600 </r>
        <r>    3.0600 </r>
        <r>    3.0600 </r>
        <r>    3.9959 </r>
        <r>    3.9959 </r>
        <r>    4.6864 </r>
        <r>    4.6864 </r>
        <r>    4.6864 </r>
        <r>    4.9037 </r>
        <r>    4.9037 </r>
        <r>    4.9037 </r>
        <r>    4.9037 </r>
        <r>    4.9037 </r>
        <r>    4.9037 </r>
        <r>    9.3209 </r>
        <r>    9.3209 </r>
        <r>    9.3209 </r>
        <r>   13.9688 </r>
        <r>   13.9688 </r>
        <r>   13.9688 </r>
        <r>   18.0366 </r>
        <r>   18.0366 </r>
        <r>   18.0366 </r>
        <r>   18.0366 </r>
        <r>   18.0366 </r>
        <r>   18.0366 </r>
        <r>   23.5536 </r>
        <r>   24.1827 </r>
        <r>   24.1827 </r>
        <r>   24.1827 </r>
        <r>   24.1863 </r>
        <r>   24.1863 </r>
        <r>   24.1863 </r>
        <r>   26.7906 </r>
        <r>   26.7906 </r>
        <r>   26.7906 </r>
        <r>   31.4651 </r>
        <r>   32.2637 </r>
        <r>   32.2637 </r>
        <r>   32.2637 </r>
        <r>   35.9789 </r>
       </set>
       <set comment="kpoint 2">
        <r>    0.3047 </r>
        <r>    1.5874 </r>
        <r>    1.5874 </r>
        <r>    1.5876 </r>
        <r>    1.7073 </r>
        <r>    1.7073 </r>
        <r>    1.7074 </r>
        <r>    3.0595 </r>
        <r>    3.0606 </r>
        <r>    3.0608 </r>
        <r>    3.9954 </r>
        <r>    3.9959 </r>
        <r>    4.6853 </r>
        <r>    4.6857 </r>
        <r>    4.6857 </r>
        <r>    4.9002 </r>
        <r>    4.9011 </r>
        <r>    4.9011 </r>
        <r>    4.9030 </r>
        <r>    4.9030 </r>
        <r>    4.9032 </r>
        <r>    9.3153 </r>
        <r>    9.3153 </r>
        <r>    9.3266 </r>
        <r>   13.9691 </r>
        <r>   13.9791 </r>
        <r>   13.9791 </r>
        <r>   18.0174 </r>
        <r>   18.0346 </r>
        <r>   18.0346 </r>
        <r>   18.0347 </r>
        <r>   18.0347 </r>
        <r>   18.0403 </r>
        <r>   23.5541 </r>
        <r>   24.1841 </r>
        <r>   24.1891 </r>
        <r>   24.1891 </r>
        <r>   24.1902 </r>
        <r>   24.1902 </r>
        <r>   24.2061 </r>
        <r>   26.7701 </r>
        <r>   26.7843 </r>
        <r>   26.7946 </r>
        <r>   31.4796 </r>
        <r>   32.2596 </r>
        <r>   32.2633 </r>
        <r>   32.2635 </r>
        <r>   35.9950 </r>
       </set>
       <set comment="kpoint 3">
        <r>    0.3112 </r>
        <r>    1.5904 </r>
        <r>    1.5904 </r>
        <r>    1.5909 </r>
        <r>    1.7097 </r>
        <r>    1.7097 </r>
        <r>    1.7104 </r>
        <r>    3.0578 </r>
        <r>    3.0621 </r>
        <r>    3.0631 </r>
        <r>    3.9938 </r>
        <r>    3.9961 </r>
        <r>    4.6821 </r>
        <r>    4.6834 </r>
        <r>    4.6834 </r>
        <r>    4.8899 </r>
        <r>    4.8932 </r>
        <r>    4.8932 </r>
        <r>    4.9010 </r>
        <r>    4.9010 </r>
        <r>    4.9019 </r>
        <r>    9.2987 </r>
        <r>    9.2987 </r>
        <r>    9.3439 </r>
        <r>   13.9699 </r>
        <r>   14.0099 </r>
        <r>   14.0099 </r>
        <r>   17.9608 </r>
        <r>   18.0285 </r>
        <r>   18.0285 </r>
        <r>   18.0290 </r>
        <r>   18.0290 </r>
        <r>   18.0514 </r>
        <r>   23.5553 </r>
        <r>   24.1823 </r>
        <r>   24.2021 </r>
        <r>   24.2021 </r>
        <r>   24.2083 </r>
        <r>   24.2083 </r>
        <r>   24.2710 </r>
        <r>   26.7097 </r>
        <r>   26.7654 </r>
        <r>   26.8065 </r>
        <r>   31.5184 </r>
        <r>   32.2511 </r>
        <r>   32.2623 </r>
        <r>   32.2632 </r>
        <r>   35.9255 </r>
       </set>
       <set comment="kpoint 4">
        <r>    0.3221 </r>
        <r>    1.5954 </r>
        <r>    1.5954 </r>
        <r>    1.5965 </r>
        <r>    1.7138 </r>
        <r>    1.7138 </r>
        <r>    1.7155 </r>
        <r>    3.0549 </r>
        <r>    3.0647 </r>
        <r>    3.0668 </r>
        <r>    3.9912 </r>
        <r>    3.9964 </r>
        <r>    4.6767 </r>
        <r>    4.6796 </r>
        <r>    4.6796 </r>
        <r>    4.8728 </r>
        <r>    4.8803 </r>
        <r>    4.8803 </r>
        <r>    4.8977 </r>
        <r>    4.8977 </r>
        <r>    4.8996 </r>
        <r>    9.2717 </r>
        <r>    9.2717 </r>
        <r>    9.3724 </r>
        <r>   13.9713 </r>
        <r>   14.0605 </r>
        <r>   14.0605 </r>
        <r>   17.8690 </r>
        <r>   18.0185 </r>
        <r>   18.0185 </r>
        <r>   18.0196 </r>
        <r>   18.0196 </r>
        <r>   18.0698 </r>
        <r>   23.5570 </r>
        <r>   24.1793 </r>
        <r>   24.2219 </r>
        <r>   24.2219 </r>
        <r>   24.2402 </r>
        <r>   24.2402 </r>
        <r>   24.3767 </r>
        <r>   26.6126 </r>
        <r>   26.7346 </r>
        <r>   26.8263 </r>
        <r>   31.5661 </r>
        <r>   32.2514 </r>
        <r>   32.2606 </r>
        <r>   32.2635 </r>
        <r>   35.8562 </r>
       </set>
       <set comment="kpoint 5">
        <r>    0.3373 </r>
        <r>    1.6020 </r>
        <r>    1.6020 </r>
        <r>    1.6041 </r>
        <r>    1.7194 </r>
        <r>    1.7194 </r>
        <r>    1.7223 </r>
        <r>    3.0509 </r>
        <r>    3.0683 </r>
        <r>    3.0720 </r>
        <r>    3.9875 </r>
        <r>    3.9969 </r>
        <r>    4.6696 </r>
        <r>    4.6740 </r>
        <r>    4.6740 </r>
        <r>    4.8492 </r>
        <r>    4.8626 </r>
        <r>    4.8626 </r>
        <r>    4.8930 </r>
        <r>    4.8930 </r>
        <r>    4.8964 </r>
        <r>    9.2350 </r>
        <r>    9.2350 </r>
        <r>    9.4119 </r>
        <r>   13.9733 </r>
        <r>   14.1301 </r>
        <r>   14.1301 </r>
        <r>   17.7455 </r>
        <r>   18.0048 </r>
        <r>   18.0048 </r>
        <r>   18.0065 </r>
        <r>   18.0065 </r>
        <r>   18.0957 </r>
        <r>   23.5589 </r>
        <r>   24.1748 </r>
        <r>   24.2492 </r>
        <r>   24.2492 </r>
        <r>   24.2845 </r>
        <r>   24.2845 </r>
        <r>   24.5196 </r>
        <r>   26.4833 </r>
        <r>   26.6924 </r>
        <r>   26.8540 </r>
        <r>   31.5951 </r>
        <r>   32.2582 </r>
        <r>   32.2653 </r>
        <r>   32.2845 </r>
        <r>   35.7239 </r>
       </set>
       <set comment="kpoint 6">
        <r>    0.3568 </r>
        <r>    1.6110 </r>
        <r>    1.6110 </r>
        <r>    1.6136 </r>
        <r>    1.7267 </r>
        <r>    1.7267 </r>
        <r>    1.7317 </r>
        <r>    3.0459 </r>
        <r>    3.0729 </r>
        <r>    3.0787 </r>
        <r>    3.9829 </r>
        <r>    3.9976 </r>
        <r>    4.6600 </r>
        <r>    4.6662 </r>
        <r>    4.6662 </r>
        <r>    4.8197 </r>
        <r>    4.8406 </r>
        <r>    4.8406 </r>
        <r>    4.8870 </r>
        <r>    4.8870 </r>
        <r>    4.8923 </r>
        <r>    9.1895 </r>
        <r>    9.1895 </r>
        <r>    9.4621 </r>
        <r>   13.9758 </r>
        <r>   14.2177 </r>
        <r>   14.2177 </r>
        <r>   17.5941 </r>
        <r>   17.9875 </r>
        <r>   17.9875 </r>
        <r>   17.9899 </r>
        <r>   17.9899 </r>
        <r>   18.1288 </r>
        <r>   23.5603 </r>
        <r>   24.1692 </r>
        <r>   24.2844 </r>
        <r>   24.2844 </r>
        <r>   24.3412 </r>
        <r>   24.3412 </r>
        <r>   24.6961 </r>
        <r>   26.3266 </r>
        <r>   26.6401 </r>
        <r>   26.8896 </r>
        <r>   31.5781 </r>
        <r>   32.2552 </r>
        <r>   32.2698 </r>
        <r>   32.3745 </r>
        <r>   35.5769 </r>
       </set>
       <set comment="kpoint 7">
        <r>    0.3806 </r>
        <r>    1.6215 </r>
        <r>    1.6215 </r>
        <r>    1.6248 </r>
        <r>    1.7355 </r>
        <r>    1.7355 </r>
        <r>    1.7435 </r>
        <r>    3.0398 </r>
        <r>    3.0785 </r>
        <r>    3.0867 </r>
        <r>    3.9772 </r>
        <r>    3.9986 </r>
        <r>    4.6484 </r>
        <r>    4.6556 </r>
        <r>    4.6556 </r>
        <r>    4.7846 </r>
        <r>    4.8150 </r>
        <r>    4.8150 </r>
        <r>    4.8797 </r>
        <r>    4.8797 </r>
        <r>    4.8873 </r>
        <r>    9.1365 </r>
        <r>    9.1365 </r>
        <r>    9.5225 </r>
        <r>   13.9789 </r>
        <r>   14.3220 </r>
        <r>   14.3220 </r>
        <r>   17.4190 </r>
        <r>   17.9669 </r>
        <r>   17.9669 </r>
        <r>   17.9699 </r>
        <r>   17.9699 </r>
        <r>   18.1691 </r>
        <r>   23.5606 </r>
        <r>   24.1625 </r>
        <r>   24.3270 </r>
        <r>   24.3270 </r>
        <r>   24.4097 </r>
        <r>   24.4097 </r>
        <r>   24.9019 </r>
        <r>   26.1476 </r>
        <r>   26.5790 </r>
        <r>   26.9330 </r>
        <r>   31.5088 </r>
        <r>   32.2516 </r>
        <r>   32.2783 </r>
        <r>   32.5243 </r>
        <r>   35.4186 </r>
       </set>
       <set comment="kpoint 8">
        <r>    0.4086 </r>
        <r>    1.6343 </r>
        <r>    1.6343 </r>
        <r>    1.6375 </r>
        <r>    1.7460 </r>
        <r>    1.7460 </r>
        <r>    1.7578 </r>
        <r>    3.0326 </r>
        <r>    3.0851 </r>
        <r>    3.0961 </r>
        <r>    3.9706 </r>
        <r>    3.9999 </r>
        <r>    4.6349 </r>
        <r>    4.6412 </r>
        <r>    4.6412 </r>
        <r>    4.7444 </r>
        <r>    4.7871 </r>
        <r>    4.7871 </r>
        <r>    4.8711 </r>
        <r>    4.8711 </r>
        <r>    4.8814 </r>
        <r>    9.0771 </r>
        <r>    9.0771 </r>
        <r>    9.5926 </r>
        <r>   13.9825 </r>
        <r>   14.4415 </r>
        <r>   14.4415 </r>
        <r>   17.2241 </r>
        <r>   17.9433 </r>
        <r>   17.9433 </r>
        <r>   17.9466 </r>
        <r>   17.9466 </r>
        <r>   18.2166 </r>
        <r>   23.5586 </r>
        <r>   24.1547 </r>
        <r>   24.3773 </r>
        <r>   24.3773 </r>
        <r>   24.4900 </r>
        <r>   24.4900 </r>
        <r>   25.1332 </r>
        <r>   25.9505 </r>
        <r>   26.5108 </r>
        <r>   26.9842 </r>
        <r>   31.3983 </r>
        <r>   32.2473 </r>
        <r>   32.2918 </r>
        <r>   32.7202 </r>
        <r>   35.2382 </r>
       </set>
       <set comment="kpoint 9">
        <r>    0.4407 </r>
        <r>    1.6491 </r>
        <r>    1.6491 </r>
        <r>    1.6515 </r>
        <r>    1.7582 </r>
        <r>    1.7582 </r>
        <r>    1.7748 </r>
        <r>    3.0245 </r>
        <r>    3.0928 </r>
        <r>    3.1067 </r>
        <r>    3.9631 </r>
        <r>    4.0016 </r>
        <r>    4.6195 </r>
        <r>    4.6216 </r>
        <r>    4.6216 </r>
        <r>    4.6996 </r>
        <r>    4.7585 </r>
        <r>    4.7585 </r>
        <r>    4.8613 </r>
        <r>    4.8613 </r>
        <r>    4.8746 </r>
        <r>    9.0124 </r>
        <r>    9.0124 </r>
        <r>    9.6718 </r>
        <r>   13.9865 </r>
        <r>   14.5751 </r>
        <r>   14.5751 </r>
        <r>   17.0131 </r>
        <r>   17.9170 </r>
        <r>   17.9170 </r>
        <r>   17.9202 </r>
        <r>   17.9202 </r>
        <r>   18.2712 </r>
        <r>   23.5531 </r>
        <r>   24.1459 </r>
        <r>   24.4349 </r>
        <r>   24.4349 </r>
        <r>   24.5815 </r>
        <r>   24.5815 </r>
        <r>   25.3864 </r>
        <r>   25.7391 </r>
        <r>   26.4377 </r>
        <r>   27.0431 </r>
        <r>   31.2583 </r>
        <r>   32.2426 </r>
        <r>   32.3115 </r>
        <r>   32.9488 </r>
        <r>   35.0422 </r>
       </set>
       <set comment="kpoint 10">
        <r>    0.4769 </r>
        <r>    1.6657 </r>
        <r>    1.6657 </r>
        <r>    1.6665 </r>
        <r>    1.7718 </r>
        <r>    1.7718 </r>
        <r>    1.7947 </r>
        <r>    3.0156 </r>
        <r>    3.1014 </r>
        <r>    3.1187 </r>
        <r>    3.9548 </r>
        <r>    4.0039 </r>
        <r>    4.5948 </r>
        <r>    4.5948 </r>
        <r>    4.6023 </r>
        <r>    4.6507 </r>
        <r>    4.7314 </r>
        <r>    4.7314 </r>
        <r>    4.8502 </r>
        <r>    4.8502 </r>
        <r>    4.8669 </r>
        <r>    8.9435 </r>
        <r>    8.9435 </r>
        <r>    9.7597 </r>
        <r>   13.9910 </r>
        <r>   14.7212 </r>
        <r>   14.7212 </r>
        <r>   16.7892 </r>
        <r>   17.8885 </r>
        <r>   17.8885 </r>
        <r>   17.8910 </r>
        <r>   17.8910 </r>
        <r>   18.3328 </r>
        <r>   23.5428 </r>
        <r>   24.1360 </r>
        <r>   24.4997 </r>
        <r>   24.4997 </r>
        <r>   24.6838 </r>
        <r>   24.6838 </r>
        <r>   25.5165 </r>
        <r>   25.6584 </r>
        <r>   26.3620 </r>
        <r>   27.1096 </r>
        <r>   31.0969 </r>
        <r>   32.2373 </r>
        <r>   32.3384 </r>
        <r>   33.2007 </r>
        <r>   34.8336 </r>
       </set>
       <set comment="kpoint 11">
        <r>    0.5171 </r>
        <r>    1.6824 </r>
        <r>    1.6843 </r>
        <r>    1.6843 </r>
        <r>    1.7868 </r>
        <r>    1.7868 </r>
        <r>    1.8173 </r>
        <r>    3.0057 </r>
        <r>    3.1110 </r>
        <r>    3.1315 </r>
        <r>    3.9456 </r>
        <r>    4.0067 </r>
        <r>    4.5597 </r>
        <r>    4.5597 </r>
        <r>    4.5833 </r>
        <r>    4.5983 </r>
        <r>    4.7071 </r>
        <r>    4.7071 </r>
        <r>    4.8378 </r>
        <r>    4.8378 </r>
        <r>    4.8583 </r>
        <r>    8.8714 </r>
        <r>    8.8714 </r>
        <r>    9.8557 </r>
        <r>   13.9957 </r>
        <r>   14.8785 </r>
        <r>   14.8785 </r>
        <r>   16.5551 </r>
        <r>   17.8582 </r>
        <r>   17.8582 </r>
        <r>   17.8590 </r>
        <r>   17.8590 </r>
        <r>   18.4013 </r>
        <r>   23.5258 </r>
        <r>   24.1253 </r>
        <r>   24.5712 </r>
        <r>   24.5712 </r>
        <r>   24.7966 </r>
        <r>   24.7966 </r>
        <r>   25.2851 </r>
        <r>   25.9465 </r>
        <r>   26.2861 </r>
        <r>   27.1836 </r>
        <r>   30.9186 </r>
        <r>   32.2316 </r>
        <r>   32.3730 </r>
        <r>   33.4701 </r>
        <r>   34.6141 </r>
       </set>
       <set comment="kpoint 12">
        <r>    0.5612 </r>
        <r>    1.6991 </r>
        <r>    1.7047 </r>
        <r>    1.7047 </r>
        <r>    1.8035 </r>
        <r>    1.8035 </r>
        <r>    1.8429 </r>
        <r>    2.9949 </r>
        <r>    3.1216 </r>
        <r>    3.1452 </r>
        <r>    3.9357 </r>
        <r>    4.0104 </r>
        <r>    4.5162 </r>
        <r>    4.5162 </r>
        <r>    4.5429 </r>
        <r>    4.5628 </r>
        <r>    4.6861 </r>
        <r>    4.6861 </r>
        <r>    4.8242 </r>
        <r>    4.8242 </r>
        <r>    4.8488 </r>
        <r>    8.7970 </r>
        <r>    8.7970 </r>
        <r>    9.9593 </r>
        <r>   14.0004 </r>
        <r>   15.0459 </r>
        <r>   15.0459 </r>
        <r>   16.3135 </r>
        <r>   17.8245 </r>
        <r>   17.8245 </r>
        <r>   17.8265 </r>
        <r>   17.8265 </r>
        <r>   18.4765 </r>
        <r>   23.5002 </r>
        <r>   24.1136 </r>
        <r>   24.6497 </r>
        <r>   24.6497 </r>
        <r>   24.9191 </r>
        <r>   24.9191 </r>
        <r>   25.0469 </r>
        <r>   26.2131 </r>
        <r>   26.2486 </r>
        <r>   27.2650 </r>
        <r>   30.7273 </r>
        <r>   32.2255 </r>
        <r>   32.4160 </r>
        <r>   33.7525 </r>
        <r>   34.3855 </r>
       </set>
       <set comment="kpoint 13">
        <r>    0.6091 </r>
        <r>    1.7164 </r>
        <r>    1.7270 </r>
        <r>    1.7270 </r>
        <r>    1.8216 </r>
        <r>    1.8216 </r>
        <r>    1.8713 </r>
        <r>    2.9840 </r>
        <r>    3.1332 </r>
        <r>    3.1598 </r>
        <r>    3.9254 </r>
        <r>    4.0152 </r>
        <r>    4.4656 </r>
        <r>    4.4656 </r>
        <r>    4.4850 </r>
        <r>    4.5407 </r>
        <r>    4.6674 </r>
        <r>    4.6674 </r>
        <r>    4.8095 </r>
        <r>    4.8095 </r>
        <r>    4.8385 </r>
        <r>    8.7211 </r>
        <r>    8.7211 </r>
        <r>   10.0700 </r>
        <r>   14.0049 </r>
        <r>   15.2220 </r>
        <r>   15.2220 </r>
        <r>   16.0665 </r>
        <r>   17.7877 </r>
        <r>   17.7877 </r>
        <r>   17.7939 </r>
        <r>   17.7939 </r>
        <r>   18.5585 </r>
        <r>   23.4643 </r>
        <r>   24.1012 </r>
        <r>   24.7348 </r>
        <r>   24.7348 </r>
        <r>   24.8037 </r>
        <r>   25.0511 </r>
        <r>   25.0511 </r>
        <r>   26.1458 </r>
        <r>   26.5627 </r>
        <r>   27.3542 </r>
        <r>   30.5257 </r>
        <r>   32.2194 </r>
        <r>   32.4678 </r>
        <r>   34.0455 </r>
        <r>   34.1500 </r>
       </set>
       <set comment="kpoint 14">
        <r>    0.6607 </r>
        <r>    1.7344 </r>
        <r>    1.7511 </r>
        <r>    1.7511 </r>
        <r>    1.8412 </r>
        <r>    1.8412 </r>
        <r>    1.9023 </r>
        <r>    2.9719 </r>
        <r>    3.1457 </r>
        <r>    3.1749 </r>
        <r>    3.9141 </r>
        <r>    4.0210 </r>
        <r>    4.4092 </r>
        <r>    4.4092 </r>
        <r>    4.4250 </r>
        <r>    4.5173 </r>
        <r>    4.6500 </r>
        <r>    4.6500 </r>
        <r>    4.7936 </r>
        <r>    4.7936 </r>
        <r>    4.8272 </r>
        <r>    8.6444 </r>
        <r>    8.6444 </r>
        <r>   10.1873 </r>
        <r>   14.0083 </r>
        <r>   15.4056 </r>
        <r>   15.4056 </r>
        <r>   15.8165 </r>
        <r>   17.7489 </r>
        <r>   17.7489 </r>
        <r>   17.7612 </r>
        <r>   17.7612 </r>
        <r>   18.6469 </r>
        <r>   23.4156 </r>
        <r>   24.0882 </r>
        <r>   24.5564 </r>
        <r>   24.8263 </r>
        <r>   24.8263 </r>
        <r>   25.1919 </r>
        <r>   25.1919 </r>
        <r>   26.0870 </r>
        <r>   26.8874 </r>
        <r>   27.4502 </r>
        <r>   30.3160 </r>
        <r>   32.2127 </r>
        <r>   32.5285 </r>
        <r>   33.9080 </r>
        <r>   34.3445 </r>
       </set>
       <set comment="kpoint 15">
        <r>    0.7159 </r>
        <r>    1.7531 </r>
        <r>    1.7770 </r>
        <r>    1.7770 </r>
        <r>    1.8622 </r>
        <r>    1.8622 </r>
        <r>    1.9360 </r>
        <r>    2.9591 </r>
        <r>    3.1591 </r>
        <r>    3.1905 </r>
        <r>    3.9022 </r>
        <r>    4.0283 </r>
        <r>    4.3482 </r>
        <r>    4.3482 </r>
        <r>    4.3634 </r>
        <r>    4.4926 </r>
        <r>    4.6330 </r>
        <r>    4.6330 </r>
        <r>    4.7765 </r>
        <r>    4.7765 </r>
        <r>    4.8152 </r>
        <r>    8.5675 </r>
        <r>    8.5675 </r>
        <r>   10.3107 </r>
        <r>   14.0097 </r>
        <r>   15.5658 </r>
        <r>   15.5954 </r>
        <r>   15.5954 </r>
        <r>   17.7082 </r>
        <r>   17.7082 </r>
        <r>   17.7291 </r>
        <r>   17.7291 </r>
        <r>   18.7418 </r>
        <r>   23.3525 </r>
        <r>   24.0746 </r>
        <r>   24.3061 </r>
        <r>   24.9241 </r>
        <r>   24.9241 </r>
        <r>   25.3409 </r>
        <r>   25.3409 </r>
        <r>   26.0392 </r>
        <r>   27.2212 </r>
        <r>   27.5532 </r>
        <r>   30.1001 </r>
        <r>   32.2057 </r>
        <r>   32.5984 </r>
        <r>   33.6610 </r>
        <r>   34.6467 </r>
       </set>
       <set comment="kpoint 16">
        <r>    0.7745 </r>
        <r>    1.7718 </r>
        <r>    1.8046 </r>
        <r>    1.8046 </r>
        <r>    1.8845 </r>
        <r>    1.8845 </r>
        <r>    1.9718 </r>
        <r>    2.9459 </r>
        <r>    3.1734 </r>
        <r>    3.2065 </r>
        <r>    3.8899 </r>
        <r>    4.0375 </r>
        <r>    4.2834 </r>
        <r>    4.2834 </r>
        <r>    4.3005 </r>
        <r>    4.4666 </r>
        <r>    4.6161 </r>
        <r>    4.6161 </r>
        <r>    4.7584 </r>
        <r>    4.7584 </r>
        <r>    4.8021 </r>
        <r>    8.4908 </r>
        <r>    8.4908 </r>
        <r>   10.4400 </r>
        <r>   14.0070 </r>
        <r>   15.3177 </r>
        <r>   15.7898 </r>
        <r>   15.7898 </r>
        <r>   17.6660 </r>
        <r>   17.6660 </r>
        <r>   17.6986 </r>
        <r>   17.6986 </r>
        <r>   18.8429 </r>
        <r>   23.2739 </r>
        <r>   24.0539 </r>
        <r>   24.0600 </r>
        <r>   25.0279 </r>
        <r>   25.0279 </r>
        <r>   25.4975 </r>
        <r>   25.4975 </r>
        <r>   26.0047 </r>
        <r>   27.5628 </r>
        <r>   27.6633 </r>
        <r>   29.8799 </r>
        <r>   32.1987 </r>
        <r>   32.6775 </r>
        <r>   33.4104 </r>
        <r>   34.9500 </r>
       </set>
       <set comment="kpoint 17">
        <r>    0.8363 </r>
        <r>    1.7917 </r>
        <r>    1.8339 </r>
        <r>    1.8339 </r>
        <r>    1.9081 </r>
        <r>    1.9081 </r>
        <r>    2.0100 </r>
        <r>    2.9322 </r>
        <r>    3.1886 </r>
        <r>    3.2221 </r>
        <r>    3.8769 </r>
        <r>    4.0483 </r>
        <r>    4.2155 </r>
        <r>    4.2155 </r>
        <r>    4.2367 </r>
        <r>    4.4397 </r>
        <r>    4.5987 </r>
        <r>    4.5987 </r>
        <r>    4.7391 </r>
        <r>    4.7391 </r>
        <r>    4.7883 </r>
        <r>    8.4147 </r>
        <r>    8.4147 </r>
        <r>   10.5746 </r>
        <r>   13.9963 </r>
        <r>   15.0770 </r>
        <r>   15.9872 </r>
        <r>   15.9872 </r>
        <r>   17.6223 </r>
        <r>   17.6223 </r>
        <r>   17.6711 </r>
        <r>   17.6711 </r>
        <r>   18.9502 </r>
        <r>   23.1789 </r>
        <r>   23.8000 </r>
        <r>   24.0456 </r>
        <r>   25.1375 </r>
        <r>   25.1375 </r>
        <r>   25.6611 </r>
        <r>   25.6611 </r>
        <r>   25.9848 </r>
        <r>   27.7799 </r>
        <r>   27.9120 </r>
        <r>   29.6560 </r>
        <r>   32.1916 </r>
        <r>   32.7659 </r>
        <r>   33.1565 </r>
        <r>   35.2925 </r>
       </set>
       <set comment="kpoint 18">
        <r>    0.9011 </r>
        <r>    1.8125 </r>
        <r>    1.8649 </r>
        <r>    1.8649 </r>
        <r>    1.9329 </r>
        <r>    1.9329 </r>
        <r>    2.0502 </r>
        <r>    2.9181 </r>
        <r>    3.2048 </r>
        <r>    3.2375 </r>
        <r>    3.8637 </r>
        <r>    4.0616 </r>
        <r>    4.1452 </r>
        <r>    4.1452 </r>
        <r>    4.1725 </r>
        <r>    4.4118 </r>
        <r>    4.5807 </r>
        <r>    4.5807 </r>
        <r>    4.7188 </r>
        <r>    4.7188 </r>
        <r>    4.7737 </r>
        <r>    8.3396 </r>
        <r>    8.3396 </r>
        <r>   10.7143 </r>
        <r>   13.9696 </r>
        <r>   14.8526 </r>
        <r>   16.1849 </r>
        <r>   16.1849 </r>
        <r>   17.5775 </r>
        <r>   17.5775 </r>
        <r>   17.6489 </r>
        <r>   17.6489 </r>
        <r>   19.0634 </r>
        <r>   23.0675 </r>
        <r>   23.5454 </r>
        <r>   24.0310 </r>
        <r>   25.2528 </r>
        <r>   25.2528 </r>
        <r>   25.8310 </r>
        <r>   25.8310 </r>
        <r>   25.9801 </r>
        <r>   27.9029 </r>
        <r>   28.2675 </r>
        <r>   29.4303 </r>
        <r>   32.1845 </r>
        <r>   32.8635 </r>
        <r>   32.9004 </r>
        <r>   35.1474 </r>
       </set>
       <set comment="kpoint 19">
        <r>    0.9689 </r>
        <r>    1.8339 </r>
        <r>    1.8976 </r>
        <r>    1.8976 </r>
        <r>    1.9590 </r>
        <r>    1.9590 </r>
        <r>    2.0921 </r>
        <r>    2.9037 </r>
        <r>    3.2217 </r>
        <r>    3.2522 </r>
        <r>    3.8502 </r>
        <r>    4.0730 </r>
        <r>    4.0730 </r>
        <r>    4.0776 </r>
        <r>    4.1079 </r>
        <r>    4.3832 </r>
        <r>    4.5621 </r>
        <r>    4.5621 </r>
        <r>    4.6976 </r>
        <r>    4.6976 </r>
        <r>    4.7583 </r>
        <r>    8.2657 </r>
        <r>    8.2657 </r>
        <r>   10.8587 </r>
        <r>   13.9122 </r>
        <r>   14.6599 </r>
        <r>   16.3791 </r>
        <r>   16.3791 </r>
        <r>   17.5318 </r>
        <r>   17.5318 </r>
        <r>   17.6354 </r>
        <r>   17.6354 </r>
        <r>   19.1825 </r>
        <r>   22.9403 </r>
        <r>   23.2903 </r>
        <r>   24.0163 </r>
        <r>   25.3736 </r>
        <r>   25.3736 </r>
        <r>   25.9909 </r>
        <r>   26.0063 </r>
        <r>   26.0063 </r>
        <r>   28.0321 </r>
        <r>   28.6287 </r>
        <r>   29.2036 </r>
        <r>   32.1776 </r>
        <r>   32.6429 </r>
        <r>   32.9703 </r>
        <r>   34.9112 </r>
       </set>
       <set comment="kpoint 20">
        <r>    1.0392 </r>
        <r>    1.8560 </r>
        <r>    1.9319 </r>
        <r>    1.9319 </r>
        <r>    1.9861 </r>
        <r>    1.9861 </r>
        <r>    2.1356 </r>
        <r>    2.8895 </r>
        <r>    3.2397 </r>
        <r>    3.2662 </r>
        <r>    3.8367 </r>
        <r>    3.9992 </r>
        <r>    3.9992 </r>
        <r>    4.0434 </r>
        <r>    4.0967 </r>
        <r>    4.3538 </r>
        <r>    4.5425 </r>
        <r>    4.5425 </r>
        <r>    4.6754 </r>
        <r>    4.6754 </r>
        <r>    4.7421 </r>
        <r>    8.1932 </r>
        <r>    8.1932 </r>
        <r>   11.0077 </r>
        <r>   13.8043 </r>
        <r>   14.5194 </r>
        <r>   16.5638 </r>
        <r>   16.5638 </r>
        <r>   17.4854 </r>
        <r>   17.4854 </r>
        <r>   17.6365 </r>
        <r>   17.6365 </r>
        <r>   19.3073 </r>
        <r>   22.7986 </r>
        <r>   23.0352 </r>
        <r>   24.0016 </r>
        <r>   25.4997 </r>
        <r>   25.4997 </r>
[...]
       <r>   30.1098    0.0000 </r>
       <r>   30.2112    0.0000 </r>
       <r>   30.2112    0.0000 </r>
       <r>   30.3616    0.0000 </r>
       <r>   30.3616    0.0000 </r>
       <r>   31.3171    0.0000 </r>
       <r>   31.3171    0.0000 </r>
      </set>
      <set comment="kpoint 34">
       <r>    1.6904    1.0000 </r>
       <r>    1.6904    1.0000 </r>
       <r>    1.6904    1.0000 </r>
       <r>    1.6904    1.0000 </r>
       <r>    3.0188    1.0000 </r>
       <r>    3.0188    1.0000 </r>
       <r>    3.0188    1.0000 </r>
       <r>    3.0188    1.0000 </r>
       <r>    3.0975    1.0000 </r>
       <r>    3.0975    1.0000 </r>
       <r>    3.0975    1.0000 </r>
       <r>    3.0975    1.0000 </r>
       <r>    4.5169    1.0000 </r>
       <r>    4.5169    1.0000 </r>
       <r>    4.5169    1.0000 </r>
       <r>    4.5169    1.0000 </r>
       <r>    4.6480    1.0000 </r>
       <r>    4.6480    1.0000 </r>
       <r>    4.6480    1.0000 </r>
       <r>    4.6480    1.0000 </r>
       <r>    7.3313    1.0000 </r>
       <r>    7.3313    1.0000 </r>
       <r>    7.3313    1.0000 </r>
       <r>    7.3313    1.0000 </r>
       <r>   11.4679    0.0000 </r>
       <r>   11.4679    0.0000 </r>
       <r>   11.4679    0.0000 </r>
       <r>   11.4679    0.0000 </r>
       <r>   22.6233    0.0000 </r>
       <r>   22.6233    0.0000 </r>
       <r>   22.6233    0.0000 </r>
       <r>   22.6233    0.0000 </r>
       <r>   24.1318    0.0000 </r>
       <r>   24.1318    0.0000 </r>
       <r>   24.1318    0.0000 </r>
       <r>   24.1318    0.0000 </r>
       <r>   24.9167    0.0000 </r>
       <r>   24.9167    0.0000 </r>
       <r>   24.9167    0.0000 </r>
       <r>   24.9167    0.0000 </r>
       <r>   29.9778    0.0000 </r>
       <r>   29.9778    0.0000 </r>
       <r>   29.9778    0.0000 </r>
       <r>   29.9778    0.0000 </r>
       <r>   30.2511    0.0000 </r>
       <r>   30.2511    0.0000 </r>
       <r>   30.2511    0.0000 </r>
       <r>   30.2511    0.0000 </r>
      </set>
      <set comment="kpoint 35">
       <r>    1.6154    1.0000 </r>
       <r>    1.6154    1.0000 </r>
       <r>    1.6154    1.0000 </r>
       <r>    1.6154    1.0000 </r>
       <r>    3.0431    1.0000 </r>
       <r>    3.0431    1.0000 </r>
       <r>    3.0431    1.0000 </r>
       <r>    3.0431    1.0000 </r>
       <r>    3.0431    1.0000 </r>
       <r>    3.0431    1.0000 </r>
       <r>    3.0431    1.0000 </r>
       <r>    3.0431    1.0000 </r>
       <r>    4.7162    1.0000 </r>
       <r>    4.7162    1.0000 </r>
       <r>    4.7162    1.0000 </r>
       <r>    4.7162    1.0000 </r>
       <r>    4.7162    1.0000 </r>
       <r>    4.7162    1.0000 </r>
       <r>    4.7162    1.0000 </r>
       <r>    4.7162    1.0000 </r>
       <r>    7.4170    1.0000 </r>
       <r>    7.4170    1.0000 </r>
       <r>    7.4170    1.0000 </r>
       <r>    7.4170    1.0000 </r>
       <r>   10.9586    0.0000 </r>
       <r>   10.9586    0.0000 </r>
       <r>   10.9586    0.0000 </r>
       <r>   10.9586    0.0000 </r>
       <r>   22.7800    0.0000 </r>
       <r>   22.7800    0.0000 </r>
       <r>   22.7800    0.0000 </r>
       <r>   22.7800    0.0000 </r>
       <r>   24.9406    0.0000 </r>
       <r>   24.9406    0.0000 </r>
       <r>   24.9406    0.0000 </r>
       <r>   24.9406    0.0000 </r>
       <r>   24.9406    0.0000 </r>
       <r>   24.9406    0.0000 </r>
       <r>   24.9406    0.0000 </r>
       <r>   24.9406    0.0000 </r>
       <r>   29.7217    0.0000 </r>
       <r>   29.7217    0.0000 </r>
       <r>   29.7217    0.0000 </r>
       <r>   29.7217    0.0000 </r>
       <r>   29.7217    0.0000 </r>
       <r>   29.7217    0.0000 </r>
       <r>   29.7217    0.0000 </r>
       <r>   29.7217    0.0000 </r>
      </set>
     </set>
    </set>
   </array>
  </eigenvalues>
  <separator name="orbital magnetization" >
   <v name="MAGDIPOLOUT">      0.00000000      0.00000000      0.00000000</v>
  </separator>
  <dos>
   <i name="efermi">      7.61639608 </i>
   <total>
    <array>
     <dimension dim="1">gridpoints</dimension>
     <dimension dim="2">spin</dimension>
     <field>energy</field>
     <field>total</field>
     <field>integrated</field>
     <set>
      <set comment="spin 1">
       <r>    -1.4813     0.0000     0.0000 </r>
       <r>    -1.3505     0.0000     0.0000 </r>
       <r>    -1.2197     0.0000     0.0000 </r>
       <r>    -1.0889     0.0000     0.0000 </r>
       <r>    -0.9580     0.0000     0.0000 </r>
       <r>    -0.8272     0.0000     0.0000 </r>
       <r>    -0.6964     0.0000     0.0000 </r>
       <r>    -0.5656     0.0000     0.0000 </r>
       <r>    -0.4348     0.0000     0.0000 </r>
       <r>    -0.3040     0.0000     0.0000 </r>
       <r>    -0.1732     0.0000     0.0000 </r>
       <r>    -0.0424     0.0000     0.0000 </r>
       <r>     0.0884     0.0000     0.0000 </r>
       <r>     0.2193     0.0003     0.0000 </r>
       <r>     0.3501     0.0271     0.0036 </r>
       <r>     0.4809     0.1350     0.0212 </r>
       <r>     0.6117     0.2362     0.0521 </r>
       <r>     0.7425     0.2613     0.0863 </r>
       <r>     0.8733     0.1796     0.1098 </r>
       <r>     1.0041     0.2546     0.1431 </r>
       <r>     1.1349     0.7867     0.2460 </r>
       <r>     1.2657     0.5372     0.3163 </r>
       <r>     1.3965     0.0970     0.3290 </r>
       <r>     1.5274     0.9937     0.4590 </r>
       <r>     1.6582     1.5239     0.6583 </r>
       <r>     1.7890     5.7943     1.4163 </r>
       <r>     1.9198    10.0183     2.7268 </r>
       <r>     2.0506    12.2326     4.3269 </r>
       <r>     2.1814    16.5551     6.4925 </r>
       <r>     2.3122    12.1953     8.0878 </r>
       <r>     2.4430    11.1193     9.5423 </r>
       <r>     2.5738     8.9166    10.7087 </r>
       <r>     2.7047    10.6815    12.1060 </r>
       <r>     2.8355    11.9190    13.6651 </r>
       <r>     2.9663    12.3331    15.2784 </r>
       <r>     3.0971    10.2911    16.6246 </r>
       <r>     3.2279    14.0451    18.4618 </r>
       <r>     3.3587    21.9980    21.3394 </r>
       <r>     3.4895    14.5205    23.2388 </r>
       <r>     3.6203     9.7240    24.5108 </r>
       <r>     3.7511    10.6994    25.9104 </r>
       <r>     3.8819    15.4382    27.9299 </r>
       <r>     4.0128    13.8564    29.7425 </r>
       <r>     4.1436    12.7612    31.4118 </r>
       <r>     4.2744    13.2552    33.1457 </r>
       <r>     4.4052     8.8941    34.3091 </r>
       <r>     4.5360    12.8180    35.9859 </r>
       <r>     4.6668    19.1897    38.4961 </r>
       <r>     4.7976    15.2524    40.4913 </r>
       <r>     4.9284     5.7160    41.2390 </r>
       <r>     5.0592     0.7219    41.3334 </r>
       <r>     5.1901     1.3480    41.5097 </r>
       <r>     5.3209     2.3695    41.8197 </r>
       <r>     5.4517     0.4060    41.8728 </r>
       <r>     5.5825     1.1945    42.0291 </r>
       <r>     5.7133     0.1091    42.0433 </r>
       <r>     5.8441     0.6061    42.1226 </r>
       <r>     5.9749     0.1206    42.1384 </r>
       <r>     6.1057     2.0122    42.4016 </r>
       <r>     6.2365     1.5481    42.6041 </r>
       <r>     6.3673     0.5662    42.6782 </r>
       <r>     6.4982     1.3814    42.8589 </r>
       <r>     6.6290     0.9443    42.9824 </r>
       <r>     6.7598     0.1627    43.0037 </r>
       <r>     6.8906     0.2387    43.0349 </r>
       <r>     7.0214     0.6857    43.1246 </r>
       <r>     7.1522     1.5924    43.3329 </r>
       <r>     7.2830     1.2075    43.4909 </r>
       <r>     7.4138     3.0081    43.8844 </r>
       <r>     7.5446     0.2238    43.9137 </r>
       <r>     7.6755     1.3309    44.0878 </r>
       <r>     7.8063     0.1286    44.1046 </r>
       <r>     7.9371     0.6901    44.1948 </r>
       <r>     8.0679     1.4580    44.3856 </r>
       <r>     8.1987     0.8169    44.4924 </r>
       <r>     8.3295     0.6778    44.5811 </r>
       <r>     8.4603     1.8128    44.8182 </r>
       <r>     8.5911     1.8950    45.0661 </r>
       <r>     8.7219     1.0234    45.2000 </r>
       <r>     8.8527     0.7242    45.2947 </r>
       <r>     8.9836     0.8297    45.4032 </r>
       <r>     9.1144     1.6501    45.6191 </r>
       <r>     9.2452     0.0174    45.6214 </r>
       <r>     9.3760     1.1705    45.7745 </r>
       <r>     9.5068     1.0787    45.9156 </r>
       <r>     9.6376     0.7154    46.0092 </r>
       <r>     9.7684     1.2790    46.1765 </r>
       <r>     9.8992     1.8928    46.4241 </r>
       <r>    10.0300     1.2432    46.5867 </r>
       <r>    10.1609     1.6485    46.8023 </r>
       <r>    10.2917     0.0179    46.8047 </r>
       <r>    10.4225     0.0104    46.8061 </r>
       <r>    10.5533     0.6612    46.8925 </r>
       <r>    10.6841     0.7777    46.9943 </r>
       <r>    10.8149     0.4628    47.0548 </r>
       <r>    10.9457     1.4213    47.2407 </r>
       <r>    11.0765     1.4767    47.4339 </r>
       <r>    11.2073     1.7909    47.6682 </r>
       <r>    11.3381     1.4190    47.8538 </r>
       <r>    11.4690     0.7083    47.9464 </r>
       <r>    11.5998     0.7680    48.0469 </r>
       <r>    11.7306     1.0803    48.1882 </r>
       <r>    11.8614     3.1755    48.6036 </r>
       <r>    11.9922     0.9774    48.7315 </r>
       <r>    12.1230     1.5444    48.9335 </r>
       <r>    12.2538     1.2005    49.0905 </r>
       <r>    12.3846     0.4161    49.1449 </r>
       <r>    12.5154     0.6238    49.2265 </r>
       <r>    12.6463     1.8672    49.4708 </r>
       <r>    12.7771     0.9935    49.6008 </r>
       <r>    12.9079     1.0055    49.7323 </r>
       <r>    13.0387     2.4962    50.0588 </r>
       <r>    13.1695     0.3492    50.1045 </r>
       <r>    13.3003     1.3240    50.2777 </r>
       <r>    13.4311     0.7304    50.3732 </r>
       <r>    13.5619     1.8314    50.6128 </r>
       <r>    13.6927     0.6706    50.7005 </r>
       <r>    13.8235     0.9032    50.8187 </r>
       <r>    13.9544     1.3660    50.9973 </r>
       <r>    14.0852     2.9503    51.3833 </r>
       <r>    14.2160     0.5416    51.4541 </r>
       <r>    14.3468     0.7296    51.5496 </r>
       <r>    14.4776     1.4634    51.7410 </r>
       <r>    14.6084     2.6270    52.0846 </r>
       <r>    14.7392     2.2450    52.3783 </r>
       <r>    14.8700     1.3158    52.5504 </r>
       <r>    15.0008     0.4197    52.6053 </r>
       <r>    15.1317     0.5527    52.6776 </r>
       <r>    15.2625     4.2357    53.2317 </r>
       <r>    15.3933     2.7737    53.5945 </r>
       <r>    15.5241     0.3798    53.6442 </r>
       <r>    15.6549     0.6678    53.7316 </r>
       <r>    15.7857     2.1879    54.0178 </r>
       <r>    15.9165     2.5946    54.3571 </r>
       <r>    16.0473     1.7817    54.5902 </r>
       <r>    16.1781     2.3458    54.8971 </r>
       <r>    16.3090     0.5194    54.9650 </r>
       <r>    16.4398     2.4519    55.2857 </r>
       <r>    16.5706     1.8172    55.5234 </r>
       <r>    16.7014     1.4327    55.7108 </r>
       <r>    16.8322     2.2496    56.0051 </r>
       <r>    16.9630     2.0061    56.2675 </r>
       <r>    17.0938     1.5345    56.4683 </r>
       <r>    17.2246     1.9783    56.7270 </r>
       <r>    17.3554     2.7887    57.0918 </r>
       <r>    17.4862     0.1522    57.1117 </r>
       <r>    17.6171     1.2804    57.2792 </r>
       <r>    17.7479     1.7390    57.5067 </r>
       <r>    17.8787     3.8650    58.0123 </r>
       <r>    18.0095     2.8861    58.3898 </r>
       <r>    18.1403     2.9000    58.7692 </r>
       <r>    18.2711     1.8880    59.0162 </r>
       <r>    18.4019     0.8324    59.1250 </r>
       <r>    18.5327     2.4278    59.4426 </r>
       <r>    18.6635     3.2239    59.8643 </r>
       <r>    18.7944     2.2768    60.1622 </r>
       <r>    18.9252     2.2612    60.4580 </r>
       <r>    19.0560     3.2524    60.8834 </r>
       <r>    19.1868     1.0973    61.0270 </r>
       <r>    19.3176     1.9448    61.2814 </r>
       <r>    19.4484     2.7834    61.6455 </r>
       <r>    19.5792     2.5021    61.9728 </r>
       <r>    19.7100     1.0138    62.1054 </r>
       <r>    19.8408     0.2580    62.1391 </r>
       <r>    19.9716     0.6453    62.2235 </r>
       <r>    20.1025     2.9156    62.6049 </r>
       <r>    20.2333     3.1938    63.0227 </r>
       <r>    20.3641     3.5035    63.4810 </r>
       <r>    20.4949     1.1596    63.6327 </r>
       <r>    20.6257     1.4917    63.8278 </r>
       <r>    20.7565     3.4388    64.2777 </r>
       <r>    20.8873     2.5414    64.6101 </r>
       <r>    21.0181     0.6095    64.6898 </r>
       <r>    21.1489     1.2038    64.8473 </r>
       <r>    21.2798     2.9580    65.2342 </r>
       <r>    21.4106     2.7630    65.5957 </r>
       <r>    21.5414     0.8430    65.7059 </r>
       <r>    21.6722     1.3099    65.8773 </r>
       <r>    21.8030     1.0487    66.0145 </r>
       <r>    21.9338     1.6115    66.2253 </r>
       <r>    22.0646     2.8324    66.5958 </r>
       <r>    22.1954     4.0985    67.1319 </r>
       <r>    22.3262     1.7650    67.3628 </r>
       <r>    22.4570     0.3639    67.4104 </r>
       <r>    22.5879     1.3030    67.5808 </r>
       <r>    22.7187     1.1827    67.7356 </r>
       <r>    22.8495     0.6715    67.8234 </r>
       <r>    22.9803     2.2389    68.1163 </r>
       <r>    23.1111     2.3589    68.4248 </r>
       <r>    23.2419     1.3654    68.6034 </r>
       <r>    23.3727     1.4861    68.7978 </r>
       <r>    23.5035     2.7864    69.1623 </r>
       <r>    23.6343     1.7342    69.3892 </r>
       <r>    23.7652     3.6167    69.8623 </r>
       <r>    23.8960     5.9322    70.6383 </r>
       <r>    24.0268     2.4272    70.9558 </r>
       <r>    24.1576     3.3138    71.3893 </r>
       <r>    24.2884     2.2004    71.6771 </r>
       <r>    24.4192     1.1705    71.8302 </r>
       <r>    24.5500     1.1409    71.9795 </r>
       <r>    24.6808     1.0214    72.1131 </r>
       <r>    24.8116    10.2771    73.4574 </r>
       <r>    24.9424     8.5438    74.5750 </r>
       <r>    25.0733     2.2752    74.8727 </r>
       <r>    25.2041     3.8487    75.3761 </r>
       <r>    25.3349     1.4177    75.5616 </r>
       <r>    25.4657     3.2945    75.9925 </r>
       <r>    25.5965     3.3866    76.4355 </r>
       <r>    25.7273     1.7246    76.6611 </r>
       <r>    25.8581     0.2895    76.6990 </r>
       <r>    25.9889     1.2450    76.8619 </r>
       <r>    26.1197     1.0268    76.9962 </r>
       <r>    26.2506     2.5464    77.3293 </r>
       <r>    26.3814     4.3940    77.9040 </r>
       <r>    26.5122     3.9594    78.4220 </r>
       <r>    26.6430     3.8383    78.9241 </r>
       <r>    26.7738     1.4165    79.1094 </r>
       <r>    26.9046     2.2123    79.3987 </r>
       <r>    27.0354     2.0321    79.6646 </r>
       <r>    27.1662     2.9123    80.0455 </r>
       <r>    27.2970     0.6597    80.1318 </r>
       <r>    27.4278     0.9803    80.2601 </r>
       <r>    27.5587     1.0896    80.4026 </r>
       <r>    27.6895     1.8632    80.6463 </r>
       <r>    27.8203     1.3610    80.8244 </r>
       <r>    27.9511     1.6528    81.0406 </r>
       <r>    28.0819     0.7996    81.1452 </r>
       <r>    28.2127     1.2315    81.3062 </r>
       <r>    28.3435     2.0774    81.5780 </r>
       <r>    28.4743     1.0774    81.7189 </r>
       <r>    28.6051     1.9255    81.9708 </r>
       <r>    28.7360     2.5886    82.3094 </r>
       <r>    28.8668     1.5753    82.5155 </r>
       <r>    28.9976     0.5677    82.5897 </r>
       <r>    29.1284     1.1766    82.7437 </r>
       <r>    29.2592     2.7114    83.0983 </r>
       <r>    29.3900     2.2954    83.3986 </r>
       <r>    29.5208     2.3772    83.7096 </r>
       <r>    29.6516     2.7552    84.0700 </r>
       <r>    29.7824     1.0096    84.2020 </r>
       <r>    29.9132     1.1270    84.3494 </r>
       <r>    30.0441     3.6948    84.8328 </r>
       <r>    30.1749     5.1211    85.5027 </r>
       <r>    30.3057     6.2947    86.3261 </r>
       <r>    30.4365     4.7433    86.9466 </r>
       <r>    30.5673     1.3157    87.1187 </r>
       <r>    30.6981     2.5360    87.4504 </r>
       <r>    30.8289     1.3983    87.6333 </r>
       <r>    30.9597     3.1372    88.0437 </r>
       <r>    31.0905     1.6032    88.2534 </r>
       <r>    31.2214     2.0722    88.5245 </r>
       <r>    31.3522     2.5662    88.8602 </r>
       <r>    31.4830     3.4158    89.3070 </r>
       <r>    31.6138     1.5459    89.5092 </r>
       <r>    31.7446     1.6444    89.7243 </r>
       <r>    31.8754     1.7696    89.9558 </r>
       <r>    32.0062     3.8244    90.4561 </r>
       <r>    32.1370     3.3091    90.8889 </r>
       <r>    32.2678     2.9575    91.2758 </r>
       <r>    32.3987     3.2478    91.7006 </r>
       <r>    32.5295     7.4717    92.6780 </r>
       <r>    32.6603     2.9775    93.0675 </r>
       <r>    32.7911     4.7102    93.6836 </r>
       <r>    32.9219     3.4882    94.1399 </r>
       <r>    33.0527     1.2854    94.3081 </r>
       <r>    33.1835     1.0374    94.4438 </r>
       <r>    33.3143     3.4839    94.8995 </r>
       <r>    33.4451     2.1551    95.1814 </r>
       <r>    33.5759     2.2006    95.4693 </r>
       <r>    33.7068     0.8406    95.5792 </r>
       <r>    33.8376     0.0213    95.5820 </r>
       <r>    33.9684     0.0054    95.5827 </r>
       <r>    34.0992     0.7792    95.6847 </r>
       <r>    34.2300     1.3241    95.8579 </r>
       <r>    34.3608     0.3417    95.9026 </r>
       <r>    34.4916     0.2285    95.9325 </r>
       <r>    34.6224     0.0087    95.9336 </r>
       <r>    34.7532     0.0000    95.9336 </r>
       <r>    34.8841     0.0000    95.9336 </r>
       <r>    35.0149     0.0000    95.9336 </r>
       <r>    35.1457     0.0940    95.9459 </r>
       <r>    35.2765     0.1958    95.9715 </r>
       <r>    35.4073     0.1875    95.9960 </r>
       <r>    35.5381     0.0004    95.9961 </r>
       <r>    35.6689     0.0000    95.9961 </r>
       <r>    35.7997     0.0000    95.9961 </r>
       <r>    35.9305     0.0027    95.9964 </r>
       <r>    36.0613     0.0269    96.0000 </r>
       <r>    36.1922     0.0003    96.0000 </r>
       <r>    36.3230     0.0000    96.0000 </r>
       <r>    36.4538     0.0000    96.0000 </r>
       <r>    36.5846     0.0000    96.0000 </r>
       <r>    36.7154     0.0000    96.0000 </r>
       <r>    36.8462     0.0000    96.0000 </r>
       <r>    36.9770     0.0000    96.0000 </r>
       <r>    37.1078     0.0000    96.0000 </r>
       <r>    37.2386     0.0000    96.0000 </r>
       <r>    37.3695     0.0000    96.0000 </r>
       <r>    37.5003     0.0000    96.0000 </r>
       <r>    37.6311     0.0000    96.0000 </r>
       <r>    37.7619     0.0000    96.0000 </r>
      </set>
     </set>
    </array>
   </total>
  </dos>
 </calculation>
 <structure name="finalpos" >
  <crystal>
   <varray name="basis" >
    <v>       4.16424000       0.00000000       0.00000000 </v>
    <v>       0.00000000       4.16424000       0.00000000 </v>
    <v>       0.00000000       0.00000000       4.16424000 </v>
   </varray>
   <i name="volume">     72.21164767 </i>
   <varray name="rec_basis" >
    <v>       0.24013986      -0.00000000       0.00000000 </v>
    <v>       0.00000000       0.24013986       0.00000000 </v>
    <v>      -0.00000000      -0.00000000       0.24013986 </v>
   </varray>
  </crystal>
  <varray name="positions" >
   <v>       0.00000000       0.00000000       0.00000000 </v>
   <v>       0.00000000       0.50000000       0.50000000 </v>
   <v>       0.50000000       0.00000000       0.50000000 </v>
   <v>       0.50000000       0.50000000       0.00000000 </v>
  </varray>
 </structure>
</modeling>
