Cl                                      
   1.00000000000000     
     7.778750    0.000000    0.000000
     0.000000    4.349410    0.000000
     0.000000    0.000000    9.027540
   Cl
     8
Direct
  0.000000  0.408820  0.898480
  0.000000  0.091180  0.398480
  0.000000  0.908820  0.601520
  0.000000  0.591180  0.101520
  0.500000  0.908820  0.898480
  0.500000  0.591180  0.398480
  0.500000  0.408820  0.601520
  0.500000  0.091180  0.101520
 
   72   40   84
  5.8385      5.7725      5.5793      5.2730      4.8748      4.4109      3.9102      3.4011      2.9090      2.4554    
  2.0576      1.7285      1.4765      1.3070      1.2254      1.2443      1.3904      1.7115      2.2760      3.1717    
  4.5123      6.4658      9.3041      13.455      19.527      28.280      40.559      57.217      79.051      106.71    
  140.48      179.78      222.58      265.02      301.71      326.80      335.73      326.80      301.71      265.02    
  222.58      179.78      140.48      106.71      79.051      57.217      40.559      28.280      19.527      13.455    
  9.3041      6.4658      4.5123      3.1717      2.2760      1.7115      1.3904      1.2443      1.2254      1.3070    
  1.4765      1.7285      2.0576      2.4554      2.9090      3.4011      3.9102      4.4109      4.8748      5.2730    
  5.5793      5.7725      6.2300      6.1582      5.9486      5.6167      5.1863      4.6862      4.1479      3.6021    
  3.0753      2.5898      2.1632      1.8090      1.5359      1.3491      1.2540      1.2625      1.4008      1.7148    
  2.2720      3.1592      4.4895      6.4291      9.2471      13.366      19.385      28.055      40.210      56.695    
  78.296      105.65      139.01      177.77      219.90      261.60      297.56      322.11      330.85      322.11    
  297.56      261.60      219.90      177.77      139.01      105.65      78.296      56.695      40.210      28.055    
  19.385      13.366      9.2471      6.4291      4.4895      3.1592      2.2720      1.7148      1.4008      1.2625    
  1.2540      1.3491      1.5359      1.8090      2.1632      2.5898      3.0753      3.6021      4.1479      4.6862    
  5.1863      5.6167      5.9486      6.1582      7.4618      7.3712      7.1072      6.6915      6.1559      5.5384    
  4.8794      4.2165      3.5807      2.9963      2.4823      2.0526      1.7159      1.4772      1.3413      1.3188    
  1.4328      1.7253      2.2603      3.1220      4.4209      6.3189      9.0760      13.099      18.962      27.386    
  39.175      55.147      76.058      102.50      134.65      171.86      212.08      251.65      285.59      308.66    
  316.86      308.66      285.59      251.65      212.08      171.86      134.65      102.50      76.058      55.147    
  39.175      27.386      18.962      13.099      9.0760      6.3189      4.4209      3.1220      2.2603      1.7253    
  1.4328      1.3188      1.3413      1.4772      1.7159      2.0526      2.4823      2.9963      3.5807      4.2165    
  4.8794      5.5384      6.1559      6.6915      7.1072      7.3712      9.7091      9.5818      9.2121      8.6338    
  7.8953      7.0532      6.1657      5.2842      4.4491      3.6887      3.0228      2.4648      2.0216      1.6964    
  1.4922      1.4168      1.4889      1.7446      2.2420      3.0608      4.3070      6.1350      8.7906      12.655    
  18.264      26.290      37.490      52.630      72.415      97.368      127.59      162.35      199.65      236.06    
  267.06      288.00      295.41      288.00      267.06      236.06      199.65      162.35      127.59      97.368    
  72.415      52.630      37.490      26.290      18.264      12.655      8.7906      6.1350      4.3070      3.0608    
  2.2420      1.7446      1.4889      1.4168      1.4922      1.6964      2.0216      2.4648      3.0228      3.6887    
  4.4491      5.2842      6.1657      7.0532      7.8953      8.6338      9.2121      9.5818      13.266      13.077    
  12.531      11.680      10.603      9.3879      8.1236      6.8865      5.7327      4.6981      3.8030      3.0567    
  2.4608      2.0130      1.7120      1.5608      1.5721      1.7746      2.2188      2.9775      4.1495      5.8792    
  8.3936      12.041      17.307      24.803      35.216      49.245      67.518      90.477      118.14      149.75    
  183.40      215.99      243.52      262.01      268.53      262.01      243.52      215.99      183.40      149.75    
  118.14      90.477      67.518      49.245      35.216      24.803      17.307      12.041      8.3936      5.8792    
  4.1495      2.9775      2.2188      1.7746      1.5721      1.5608      1.7120      2.0130      2.4608      3.0567    
  3.8030      4.6981      5.7327      6.8865      8.1236      9.3879      10.603      11.680      12.531      13.077    
  18.533      18.250      17.431      16.160      14.560      12.771      10.930      9.1515      7.5186      6.0796    
  4.8549      3.8460      3.0432      2.4331      2.0049      1.7540      1.6848      1.8175      2.1931      2.8750    
  3.9525      5.5569      7.8924      11.269      16.116      22.973      32.444      45.140      61.598      82.165    
  106.79      134.74      164.28      192.68      216.53      232.48      238.10      232.48      216.53      192.68    
  164.28      134.74      106.79      82.165      61.598      45.140      32.444      22.973      16.116      11.269    
  7.8924      5.5569      3.9525      2.8750      2.1931      1.8175      1.6848      1.7540      2.0049      2.4331    
  3.0432      3.8460      4.8549      6.0796      7.5186      9.1515      10.930      12.771      14.560      16.160    
  17.431      18.250      25.985      25.563      24.345      22.462      20.102      17.480      14.803      12.243    
  9.9225      7.9091      6.2242      4.8574      3.7806      2.9615      2.3730      1.9973      1.8280      1.8748    
  2.1674      2.7577      3.7228      5.1780      7.3018      10.362      14.730      20.867      29.288      40.503    
  54.947      72.873      94.179      118.17      143.36      167.43      187.56      200.98      205.70      200.98    
  187.56      167.43      143.36      118.17      94.179      72.873      54.947      40.503      29.288      20.867    
  14.730      10.362      7.3018      5.1780      3.7228      2.7577      2.1674      1.8748      1.8280      1.9973    
  2.3730      2.9615      3.7806      4.8574      6.2242      7.9091      9.9225      12.243      14.803      17.480    
  20.102      22.462      24.345      25.563      36.125      35.508      33.729      30.988      27.569      23.792    
  19.962      16.328      13.066      10.269      7.9622      6.1190      4.6857      3.6021      2.8160      2.2896    
  2.0011      1.9472      2.1444      2.6311      3.4696      4.7571      6.6441      9.3559      13.203      18.569    
  25.880      35.547      47.900      63.100      81.005      101.00      121.83      141.63      158.11      169.08    
  172.93      169.08      158.11      141.63      121.83      101.00      81.005      63.100      47.900      35.547    
  25.880      18.569      13.203      9.3559      6.6441      4.7571      3.4696      2.6311      2.1444      1.9472    
  2.0011      2.2896      2.8160      3.6021      4.6857      6.1190      7.9622      10.269      13.066      16.328    
  19.962      23.792      27.569      30.988      33.729      35.508      49.456      48.571      46.023      42.113    
  37.264      31.943      26.584      21.537      17.042      13.224      10.110      7.6532      5.7680      4.3565    
  3.3318      2.6279      2.2022      2.0345      2.1263      2.5007      3.2037      4.3122      5.9476      8.2925    
  11.598      16.177      22.369      30.494      40.789      53.336      67.967      84.141      100.85      116.62    
  129.69      138.37      141.41      138.37      129.69      116.62      100.85      84.141      67.967      53.336    
  40.789      30.494      22.369      16.177      11.598      8.2925      5.9476      4.3122      3.2037      2.5007    
  2.1263      2.0345      2.2022      2.6279      3.3318      4.3565      5.7680      7.6532      10.110      13.224    
  17.042      21.537      26.584      31.943      37.264      42.113      46.023      48.571      66.451      65.203    
  61.621      56.151      49.415      42.084      34.764      27.928      21.886      16.795      12.679      9.4653    
  7.0275      5.2213      3.9155      3.0078      2.4281      2.1357      2.1148      2.3718      2.9355      3.8616    
  5.2427      7.2200      9.9901      13.798      18.907      25.561      33.921      44.012      55.653      68.381    
  81.398      93.583      103.63      110.27      112.59      110.27      103.63      93.583      81.398      68.381    
  55.653      44.012      33.921      25.561      18.907      13.798      9.9901      7.2200      5.2427      3.8616    
  2.9355      2.3718      2.1148      2.1357      2.4281      3.0078      3.9155      5.2213      7.0275      9.4653    
  12.679      16.795      21.886      27.928      34.764      42.084      49.415      56.151      61.621      65.203    
  87.471      85.746      80.809      73.309      64.145      54.263      44.496      35.465      27.554      20.942    
  15.637      11.532      8.4475      6.1840      4.5577      3.4223      2.6744      2.2490      2.1108      2.2490    
  2.6744      3.4223      4.5577      6.1840      8.4475      11.532      15.637      20.942      27.554      35.465    
  44.496      54.263      64.145      73.309      80.809      85.746      87.471      85.746      80.809      73.309    
  64.145      54.263      44.496      35.465      27.554      20.942      15.637      11.532      8.4475      6.1840    
  4.5577      3.4223      2.6744      2.2490      2.1108      2.2490      2.6744      3.4223      4.5577      6.1840    
  8.4475      11.532      15.637      20.942      27.554      35.465      44.496      54.263      64.145      73.309    
  80.809      85.746      112.59      110.27      103.63      93.583      81.398      68.381      55.653      44.012    
  33.921      25.561      18.907      13.798      9.9901      7.2200      5.2427      3.8616      2.9355      2.3718    
  2.1148      2.1357      2.4281      3.0078      3.9155      5.2213      7.0275      9.4653      12.679      16.795    
  21.886      27.928      34.764      42.084      49.415      56.151      61.621      65.203      66.451      65.203    
  61.621      56.151      49.415      42.084      34.764      27.928      21.886      16.795      12.679      9.4653    
  7.0275      5.2213      3.9155      3.0078      2.4281      2.1357      2.1148      2.3718      2.9355      3.8616    
  5.2427      7.2200      9.9901      13.798      18.907      25.561      33.921      44.012      55.653      68.381    
  81.398      93.583      103.63      110.27      141.41      138.37      129.69      116.62      100.85      84.141    
  67.967      53.336      40.789      30.494      22.369      16.177      11.598      8.2925      5.9476      4.3122    
  3.2037      2.5007      2.1263      2.0345      2.2022      2.6279      3.3318      4.3565      5.7680      7.6532    
  10.110      13.224      17.042      21.537      26.584      31.943      37.264      42.113      46.023      48.571    
  49.456      48.571      46.023      42.113      37.264      31.943      26.584      21.537      17.042      13.224    
  10.110      7.6532      5.7680      4.3565      3.3318      2.6279      2.2022      2.0345      2.1263      2.5007    
  3.2037      4.3122      5.9476      8.2925      11.598      16.177      22.369      30.494      40.789      53.336    
  67.967      84.141      100.85      116.62      129.69      138.37      172.93      169.08      158.11      141.63    
  121.83      101.00      81.005      63.100      47.900      35.547      25.880      18.569      13.203      9.3559    
  6.6441      4.7571      3.4696      2.6311      2.1444      1.9472      2.0011      2.2896      2.8160      3.6021    
  4.6857      6.1190      7.9622      10.269      13.066      16.328      19.962      23.792      27.569      30.988    
  33.729      35.508      36.125      35.508      33.729      30.988      27.569      23.792      19.962      16.328    
  13.066      10.269      7.9622      6.1190      4.6857      3.6021      2.8160      2.2896      2.0011      1.9472    
  2.1444      2.6311      3.4696      4.7571      6.6441      9.3559      13.203      18.569      25.880      35.547    
  47.900      63.100      81.005      101.00      121.83      141.63      158.11      169.08      205.70      200.98    
  187.56      167.43      143.36      118.17      94.179      72.873      54.947      40.503      29.288      20.867    
  14.730      10.362      7.3018      5.1780      3.7228      2.7577      2.1674      1.8748      1.8280      1.9973    
  2.3730      2.9615      3.7806      4.8574      6.2242      7.9091      9.9225      12.243      14.803      17.480    
  20.102      22.462      24.345      25.563      25.985      25.563      24.345      22.462      20.102      17.480    
  14.803      12.243      9.9225      7.9091      6.2242      4.8574      3.7806      2.9615      2.3730      1.9973    
  1.8280      1.8748      2.1674      2.7577      3.7228      5.1780      7.3018      10.362      14.730      20.867    
  29.288      40.503      54.947      72.873      94.179      118.17      143.36      167.43      187.56      200.98    
  238.10      232.48      216.53      192.68      164.28      134.74      106.79      82.165      61.598      45.140    
  32.444      22.973      16.116      11.269      7.8924      5.5569      3.9525      2.8750      2.1931      1.8175    
  1.6848      1.7540      2.0049      2.4331      3.0432      3.8460      4.8549      6.0796      7.5186      9.1515    
  10.930      12.771      14.560      16.160      17.431      18.250      18.533      18.250      17.431      16.160    
  14.560      12.771      10.930      9.1515      7.5186      6.0796      4.8549      3.8460      3.0432      2.4331    
  2.0049      1.7540      1.6848      1.8175      2.1931      2.8750      3.9525      5.5569      7.8924      11.269    
  16.116      22.973      32.444      45.140      61.598      82.165      106.79      134.74      164.28      192.68    
  216.53      232.48      268.53      262.01      243.52      215.99      183.40      149.75      118.14      90.477    
  67.518      49.245      35.216      24.803      17.307      12.041      8.3936      5.8792      4.1495      2.9775    
  2.2188      1.7746      1.5721      1.5608      1.7120      2.0130      2.4608      3.0567      3.8030      4.6981    
  5.7327      6.8865      8.1236      9.3879      10.603      11.680      12.531      13.077      13.266      13.077    
  12.531      11.680      10.603      9.3879      8.1236      6.8865      5.7327      4.6981      3.8030      3.0567    
  2.4608      2.0130      1.7120      1.5608      1.5721      1.7746      2.2188      2.9775      4.1495      5.8792    
  8.3936      12.041      17.307      24.803      35.216      49.245      67.518      90.477      118.14      149.75    
  183.40      215.99      243.52      262.01      295.41      288.00      267.06      236.06      199.65      162.35    
  127.59      97.368      72.415      52.630      37.490      26.290      18.264      12.655      8.7906      6.1350    
  4.3070      3.0608      2.2420      1.7446      1.4889      1.4168      1.4922      1.6964      2.0216      2.4648    
  3.0228      3.6887      4.4491      5.2842      6.1657      7.0532      7.8953      8.6338      9.2121      9.5818    
  9.7091      9.5818      9.2121      8.6338      7.8953      7.0532      6.1657      5.2842      4.4491      3.6887    
  3.0228      2.4648      2.0216      1.6964      1.4922      1.4168      1.4889      1.7446      2.2420      3.0608    
  4.3070      6.1350      8.7906      12.655      18.264      26.290      37.490      52.630      72.415      97.368    
  127.59      162.35      199.65      236.06      267.06      288.00      316.86      308.66      285.59      251.65    
  212.08      171.86      134.65      102.50      76.058      55.147      39.175      27.386      18.962      13.099    
  9.0760      6.3189      4.4209      3.1220      2.2603      1.7253      1.4328      1.3188      1.3413      1.4772    
  1.7159      2.0526      2.4823      2.9963      3.5807      4.2165      4.8794      5.5384      6.1559      6.6915    
  7.1072      7.3712      7.4618      7.3712      7.1072      6.6915      6.1559      5.5384      4.8794      4.2165    
  3.5807      2.9963      2.4823      2.0526      1.7159      1.4772      1.3413      1.3188      1.4328      1.7253    
  2.2603      3.1220      4.4209      6.3189      9.0760      13.099      18.962      27.386      39.175      55.147    
  76.058      102.50      134.65      171.86      212.08      251.65      285.59      308.66      330.85      322.11    
  297.56      261.60      219.90      177.77      139.01      105.65      78.296      56.695      40.210      28.055    
  19.385      13.366      9.2471      6.4291      4.4895      3.1592      2.2720      1.7148      1.4008      1.2625    
  1.2540      1.3491      1.5359      1.8090      2.1632      2.5898      3.0753      3.6021      4.1479      4.6862    
  5.1863      5.6167      5.9486      6.1582      6.2300      6.1582      5.9486      5.6167      5.1863      4.6862    
  4.1479      3.6021      3.0753      2.5898      2.1632      1.8090      1.5359      1.3491      1.2540      1.2625    
  1.4008      1.7148      2.2720      3.1592      4.4895      6.4291      9.2471      13.366      19.385      28.055    
  40.210      56.695      78.296      105.65      139.01      177.77      219.90      261.60      297.56      322.11    
  335.73      326.80      301.71      265.02      222.58      179.78      140.48      106.71      79.051      57.217    
  40.559      28.280      19.527      13.455      9.3041      6.4658      4.5123      3.1717      2.2760      1.7115    
  1.3904      1.2443      1.2254      1.3070      1.4765      1.7285      2.0576      2.4554      2.9090      3.4011    
  3.9102      4.4109      4.8748      5.2730      5.5793      5.7725      5.8385      5.7725      5.5793      5.2730    
  4.8748      4.4109      3.9102      3.4011      2.9090      2.4554      2.0576      1.7285      1.4765      1.3070    
  1.2254      1.2443      1.3904      1.7115      2.2760      3.1717      4.5123      6.4658      9.3041      13.455    
  19.527      28.280      40.559      57.217      79.051      106.71      140.48      179.78      222.58      265.02    
  301.71      326.80      330.85      322.11      297.56      261.60      219.90      177.77      139.01      105.65    
  78.296      56.695      40.210      28.055      19.385      13.366      9.2471      6.4291      4.4895      3.1592    
  2.2720      1.7148      1.4008      1.2625      1.2540      1.3491      1.5359      1.8090      2.1632      2.5898    
  3.0753      3.6021      4.1479      4.6862      5.1863      5.6167      5.9486      6.1582      6.2300      6.1582    
  5.9486      5.6167      5.1863      4.6862      4.1479      3.6021      3.0753      2.5898      2.1632      1.8090    
  1.5359      1.3491      1.2540      1.2625      1.4008      1.7148      2.2720      3.1592      4.4895      6.4291    
  9.2471      13.366      19.385      28.055      40.210      56.695      78.296      105.65      139.01      177.77    
  219.90      261.60      297.56      322.11      316.86      308.66      285.59      251.65      212.08      171.86    
  134.65      102.50      76.058      55.147      39.175      27.386      18.962      13.099      9.0760      6.3189    
  4.4209      3.1220      2.2603      1.7253      1.4328      1.3188      1.3413      1.4772      1.7159      2.0526    
  2.4823      2.9963      3.5807      4.2165      4.8794      5.5384      6.1559      6.6915      7.1072      7.3712    
  7.4618      7.3712      7.1072      6.6915      6.1559      5.5384      4.8794      4.2165      3.5807      2.9963    
  2.4823      2.0526      1.7159      1.4772      1.3413      1.3188      1.4328      1.7253      2.2603      3.1220    
  4.4209      6.3189      9.0760      13.099      18.962      27.386      39.175      55.147      76.058      102.50    
  134.65      171.86      212.08      251.65      285.59      308.66      295.41      288.00      267.06      236.06    
  199.65      162.35      127.59      97.368      72.415      52.630      37.490      26.290      18.264      12.655    
  8.7906      6.1350      4.3070      3.0608      2.2420      1.7446      1.4889      1.4168      1.4922      1.6964    
  2.0216      2.4648      3.0228      3.6887      4.4491      5.2842      6.1657      7.0532      7.8953      8.6338    
  9.2121      9.5818      9.7091      9.5818      9.2121      8.6338      7.8953      7.0532      6.1657      5.2842    
  4.4491      3.6887      3.0228      2.4648      2.0216      1.6964      1.4922      1.4168      1.4889      1.7446    
  2.2420      3.0608      4.3070      6.1350      8.7906      12.655      18.264      26.290      37.490      52.630    
  72.415      97.368      127.59      162.35      199.65      236.06      267.06      288.00      268.53      262.01    
  243.52      215.99      183.40      149.75      118.14      90.477      67.518      49.245      35.216      24.803    
  17.307      12.041      8.3936      5.8792      4.1495      2.9775      2.2188      1.7746      1.5721      1.5608    
  1.7120      2.0130      2.4608      3.0567      3.8030      4.6981      5.7327      6.8865      8.1236      9.3879    
  10.603      11.680      12.531      13.077      13.266      13.077      12.531      11.680      10.603      9.3879    
  8.1236      6.8865      5.7327      4.6981      3.8030      3.0567      2.4608      2.0130      1.7120      1.5608    
  1.5721      1.7746      2.2188      2.9775      4.1495      5.8792      8.3936      12.041      17.307      24.803    
  35.216      49.245      67.518      90.477      118.14      149.75      183.40      215.99      243.52      262.01    
  238.10      232.48      216.53      192.68      164.28      134.74      106.79      82.165      61.598      45.140    
  32.444      22.973      16.116      11.269      7.8924      5.5569      3.9525      2.8750      2.1931      1.8175    
  1.6848      1.7540      2.0049      2.4331      3.0432      3.8460      4.8549      6.0796      7.5186      9.1515    
  10.930      12.771      14.560      16.160      17.431      18.250      18.533      18.250      17.431      16.160    
  14.560      12.771      10.930      9.1515      7.5186      6.0796      4.8549      3.8460      3.0432      2.4331    
  2.0049      1.7540      1.6848      1.8175      2.1931      2.8750      3.9525      5.5569      7.8924      11.269    
  16.116      22.973      32.444      45.140      61.598      82.165      106.79      134.74      164.28      192.68    
  216.53      232.48      205.70      200.98      187.56      167.43      143.36      118.17      94.179      72.873    
  54.947      40.503      29.288      20.867      14.730      10.362      7.3018      5.1780      3.7228      2.7577    
  2.1674      1.8748      1.8280      1.9973      2.3730      2.9615      3.7806      4.8574      6.2242      7.9091    
  9.9225      12.243      14.803      17.480      20.102      22.462      24.345      25.563      25.985      25.563    
  24.345      22.462      20.102      17.480      14.803      12.243      9.9225      7.9091      6.2242      4.8574    
  3.7806      2.9615      2.3730      1.9973      1.8280      1.8748      2.1674      2.7577      3.7228      5.1780    
  7.3018      10.362      14.730      20.867      29.288      40.503      54.947      72.873      94.179      118.17    
  143.36      167.43      187.56      200.98      172.93      169.08      158.11      141.63      121.83      101.00    
  81.005      63.100      47.900      35.547      25.880      18.569      13.203      9.3559      6.6441      4.7571    
  3.4696      2.6311      2.1444      1.9472      2.0011      2.2896      2.8160      3.6021      4.6857      6.1190    
  7.9622      10.269      13.066      16.328      19.962      23.792      27.569      30.988      33.729      35.508    
  36.125      35.508      33.729      30.988      27.569      23.792      19.962      16.328      13.066      10.269    
  7.9622      6.1190      4.6857      3.6021      2.8160      2.2896      2.0011      1.9472      2.1444      2.6311    
  3.4696      4.7571      6.6441      9.3559      13.203      18.569      25.880      35.547      47.900      63.100    
  81.005      101.00      121.83      141.63      158.11      169.08      141.41      138.37      129.69      116.62    
  100.85      84.141      67.967      53.336      40.789      30.494      22.369      16.177      11.598      8.2925    
  5.9476      4.3122      3.2037      2.5007      2.1263      2.0345      2.2022      2.6279      3.3318      4.3565    
  5.7680      7.6532      10.110      13.224      17.042      21.537      26.584      31.943      37.264      42.113    
  46.023      48.571      49.456      48.571      46.023      42.113      37.264      31.943      26.584      21.537    
  17.042      13.224      10.110      7.6532      5.7680      4.3565      3.3318      2.6279      2.2022      2.0345    
  2.1263      2.5007      3.2037      4.3122      5.9476      8.2925      11.598      16.177      22.369      30.494    
  40.789      53.336      67.967      84.141      100.85      116.62      129.69      138.37      112.59      110.27    
  103.63      93.583      81.398      68.381      55.653      44.012      33.921      25.561      18.907      13.798    
  9.9901      7.2200      5.2427      3.8616      2.9355      2.3718      2.1148      2.1357      2.4281      3.0078    
  3.9155      5.2213      7.0275      9.4653      12.679      16.795      21.886      27.928      34.764      42.084    
  49.415      56.151      61.621      65.203      66.451      65.203      61.621      56.151      49.415      42.084    
  34.764      27.928      21.886      16.795      12.679      9.4653      7.0275      5.2213      3.9155      3.0078    
  2.4281      2.1357      2.1148      2.3718      2.9355      3.8616      5.2427      7.2200      9.9901      13.798    
  18.907      25.561      33.921      44.012      55.653      68.381      81.398      93.583      103.63      110.27    
  87.471      85.746      80.809      73.309      64.145      54.263      44.496      35.465      27.554      20.942    
  15.637      11.532      8.4475      6.1840      4.5577      3.4223      2.6744      2.2490      2.1108      2.2490    
  2.6744      3.4223      4.5577      6.1840      8.4475      11.532      15.637      20.942      27.554      35.465    
  44.496      54.263      64.145      73.309      80.809      85.746      87.471      85.746      80.809      73.309    
  64.145      54.263      44.496      35.465      27.554      20.942      15.637      11.532      8.4475      6.1840    
  4.5577      3.4223      2.6744      2.2490      2.1108      2.2490      2.6744      3.4223      4.5577      6.1840    
  8.4475      11.532      15.637      20.942      27.554      35.465      44.496      54.263      64.145      73.309    
  80.809      85.746      66.451      65.203      61.621      56.151      49.415      42.084      34.764      27.928    
  21.886      16.795      12.679      9.4653      7.0275      5.2213      3.9155      3.0078      2.4281      2.1357    
  2.1148      2.3718      2.9355      3.8616      5.2427      7.2200      9.9901      13.798      18.907      25.561    
  33.921      44.012      55.653      68.381      81.398      93.583      103.63      110.27      112.59      110.27    
  103.63      93.583      81.398      68.381      55.653      44.012      33.921      25.561      18.907      13.798    
  9.9901      7.2200      5.2427      3.8616      2.9355      2.3718      2.1148      2.1357      2.4281      3.0078    
  3.9155      5.2213      7.0275      9.4653      12.679      16.795      21.886      27.928      34.764      42.084    
  49.415      56.151      61.621      65.203      49.456      48.571      46.023      42.113      37.264      31.943    
  26.584      21.537      17.042      13.224      10.110      7.6532      5.7680      4.3565      3.3318      2.6279    
  2.2022      2.0345      2.1263      2.5007      3.2037      4.3122      5.9476      8.2925      11.598      16.177    
  22.369      30.494      40.789      53.336      67.967      84.141      100.85      116.62      129.69      138.37    
  141.41      138.37      129.69      116.62      100.85      84.141      67.967      53.336      40.789      30.494    
  22.369      16.177      11.598      8.2925      5.9476      4.3122      3.2037      2.5007      2.1263      2.0345    
  2.2022      2.6279      3.3318      4.3565      5.7680      7.6532      10.110      13.224      17.042      21.537    
  26.584      31.943      37.264      42.113      46.023      48.571      36.125      35.508      33.729      30.988    
  27.569      23.792      19.962      16.328      13.066      10.269      7.9622      6.1190      4.6857      3.6021    
  2.8160      2.2896      2.0011      1.9472      2.1444      2.6311      3.4696      4.7571      6.6441      9.3559    
  13.203      18.569      25.880      35.547      47.900      63.100      81.005      101.00      121.83      141.63    
  158.11      169.08      172.93      169.08      158.11      141.63      121.83      101.00      81.005      63.100    
  47.900      35.547      25.880      18.569      13.203      9.3559      6.6441      4.7571      3.4696      2.6311    
  2.1444      1.9472      2.0011      2.2896      2.8160      3.6021      4.6857      6.1190      7.9622      10.269    