   8   8   0   0
  0.3817856E+02  0.7778750E-09  0.4349410E-09  0.9027540E-09  0.5000000E-15
  1.000000000000000E-004
  CAR 
 Cl                                      
     11.01305127    -20.20259035  301     -1.98045955      1.00000000
    -20.203  0.0000E+00  0.0000E+00
    -20.099  0.0000E+00  0.0000E+00
    -19.994  0.0000E+00  0.0000E+00
    -19.890  0.0000E+00  0.0000E+00
    -19.786  0.0000E+00  0.0000E+00
    -19.682  0.0000E+00  0.0000E+00
    -19.578  0.0000E+00  0.0000E+00
    -19.474  0.0000E+00  0.0000E+00
    -19.370  0.0000E+00  0.0000E+00
    -19.266  0.0000E+00  0.0000E+00
    -19.162  0.0000E+00  0.0000E+00
    -19.058  0.1098E-14  0.1143E-15
    -18.954  0.3687E-06  0.3836E-07
    -18.850  0.4793E-01  0.4987E-02
    -18.746  0.1040E+02  0.1087E+01
    -18.642  0.5591E+02  0.6905E+01
    -18.538  0.1051E+02  0.7999E+01
    -18.434  0.8486E-02  0.8000E+01
    -18.330  0.4602E-08  0.8000E+01
    -18.226  0.0000E+00  0.8000E+01
    -18.122  0.0000E+00  0.8000E+01
    -18.017  0.0000E+00  0.8000E+01
    -17.913  0.0000E+00  0.8000E+01
    -17.809  0.0000E+00  0.8000E+01
    -17.705  0.0000E+00  0.8000E+01
    -17.601  0.0000E+00  0.8000E+01
    -17.497  0.0000E+00  0.8000E+01
    -17.393  0.0000E+00  0.8000E+01
    -17.289  0.0000E+00  0.8000E+01
    -17.185  0.0000E+00  0.8000E+01
    -17.081  0.0000E+00  0.8000E+01
    -16.977  0.0000E+00  0.8000E+01
    -16.873  0.0000E+00  0.8000E+01
    -16.769  0.0000E+00  0.8000E+01
    -16.665  0.0000E+00  0.8000E+01
    -16.561  0.0000E+00  0.8000E+01
    -16.457  0.0000E+00  0.8000E+01
    -16.353  0.0000E+00  0.8000E+01
    -16.249  0.0000E+00  0.8000E+01
    -16.145  0.0000E+00  0.8000E+01
    -16.041  0.0000E+00  0.8000E+01
    -15.936  0.0000E+00  0.8000E+01
    -15.832  0.0000E+00  0.8000E+01
    -15.728  0.0000E+00  0.8000E+01
    -15.624  0.0000E+00  0.8000E+01
    -15.520  0.0000E+00  0.8000E+01
    -15.416  0.0000E+00  0.8000E+01
    -15.312  0.0000E+00  0.8000E+01
    -15.208  0.0000E+00  0.8000E+01
    -15.104  0.0000E+00  0.8000E+01
    -15.000  0.0000E+00  0.8000E+01
    -14.896  0.1705E-09  0.8000E+01
    -14.792  0.4183E-03  0.8000E+01
    -14.688  0.7988E+00  0.8083E+01
    -14.584  0.1174E+02  0.9305E+01
    -14.480  0.2664E+02  0.1208E+02
    -14.376  0.2518E+02  0.1470E+02
    -14.272  0.1168E+02  0.1591E+02
    -14.168  0.8464E+00  0.1600E+02
    -14.064  0.2955E-03  0.1600E+02
    -13.959  0.6167E-10  0.1600E+02
    -13.855  0.0000E+00  0.1600E+02
    -13.751  0.0000E+00  0.1600E+02
    -13.647  0.0000E+00  0.1600E+02
    -13.543  0.0000E+00  0.1600E+02
    -13.439  0.0000E+00  0.1600E+02
    -13.335  0.0000E+00  0.1600E+02
    -13.231  0.0000E+00  0.1600E+02
    -13.127  0.0000E+00  0.1600E+02
    -13.023  0.0000E+00  0.1600E+02
    -12.919  0.0000E+00  0.1600E+02
    -12.815  0.0000E+00  0.1600E+02
    -12.711  0.0000E+00  0.1600E+02
    -12.607  0.0000E+00  0.1600E+02
    -12.503  0.0000E+00  0.1600E+02
    -12.399  0.0000E+00  0.1600E+02
    -12.295  0.0000E+00  0.1600E+02
    -12.191  0.0000E+00  0.1600E+02
    -12.087  0.0000E+00  0.1600E+02
    -11.982  0.0000E+00  0.1600E+02
    -11.878  0.0000E+00  0.1600E+02
    -11.774  0.0000E+00  0.1600E+02
    -11.670  0.0000E+00  0.1600E+02
    -11.566  0.0000E+00  0.1600E+02
    -11.462  0.0000E+00  0.1600E+02
    -11.358  0.0000E+00  0.1600E+02
    -11.254  0.0000E+00  0.1600E+02
    -11.150  0.0000E+00  0.1600E+02
    -11.046  0.0000E+00  0.1600E+02
    -10.942  0.0000E+00  0.1600E+02
    -10.838  0.0000E+00  0.1600E+02
    -10.734  0.0000E+00  0.1600E+02
    -10.630  0.0000E+00  0.1600E+02
    -10.526  0.0000E+00  0.1600E+02
    -10.422  0.0000E+00  0.1600E+02
    -10.318  0.0000E+00  0.1600E+02
    -10.214  0.0000E+00  0.1600E+02
    -10.110  0.0000E+00  0.1600E+02
    -10.005  0.0000E+00  0.1600E+02
     -9.901  0.0000E+00  0.1600E+02
     -9.797  0.0000E+00  0.1600E+02
     -9.693  0.0000E+00  0.1600E+02
     -9.589  0.0000E+00  0.1600E+02
     -9.485  0.0000E+00  0.1600E+02
     -9.381  0.0000E+00  0.1600E+02
     -9.277  0.0000E+00  0.1600E+02
     -9.173  0.0000E+00  0.1600E+02
     -9.069  0.0000E+00  0.1600E+02
     -8.965  0.0000E+00  0.1600E+02
     -8.861  0.0000E+00  0.1600E+02
     -8.757  0.0000E+00  0.1600E+02
     -8.653  0.0000E+00  0.1600E+02
     -8.549  0.0000E+00  0.1600E+02
     -8.445  0.0000E+00  0.1600E+02
     -8.341  0.0000E+00  0.1600E+02
     -8.237  0.0000E+00  0.1600E+02
     -8.133  0.0000E+00  0.1600E+02
     -8.028  0.0000E+00  0.1600E+02
     -7.924  0.0000E+00  0.1600E+02
     -7.820  0.2405E-14  0.1600E+02
     -7.716  0.3034E-06  0.1600E+02
     -7.612  0.1658E-01  0.1600E+02
     -7.508  0.1978E+01  0.1621E+02
     -7.404  0.8424E+01  0.1708E+02
     -7.300  0.1096E+02  0.1822E+02
     -7.196  0.1446E+02  0.1973E+02
     -7.092  0.1543E+02  0.2133E+02
     -6.988  0.1046E+02  0.2242E+02
     -6.884  0.7303E+01  0.2318E+02
     -6.780  0.5841E+01  0.2379E+02
     -6.676  0.1990E+01  0.2400E+02
     -6.572  0.1756E-01  0.2400E+02
     -6.468  0.2936E-06  0.2400E+02
     -6.364  0.1634E-14  0.2400E+02
     -6.260  0.0000E+00  0.2400E+02
     -6.156  0.0000E+00  0.2400E+02
     -6.051  0.0000E+00  0.2400E+02
     -5.947  0.0000E+00  0.2400E+02
     -5.843  0.0000E+00  0.2400E+02
     -5.739  0.2865E-09  0.2400E+02
     -5.635  0.2536E-03  0.2400E+02
     -5.531  0.2561E+00  0.2403E+02
     -5.427  0.6214E+01  0.2467E+02
     -5.323  0.2311E+02  0.2708E+02
     -5.219  0.2217E+02  0.2939E+02
     -5.115  0.1849E+02  0.3131E+02
     -5.011  0.2932E+02  0.3436E+02
     -4.907  0.3679E+02  0.3819E+02
     -4.803  0.1620E+02  0.3987E+02
     -4.699  0.1211E+01  0.4000E+02
     -4.595  0.1143E-02  0.4000E+02
     -4.491  0.7192E-09  0.4000E+02
     -4.387  0.0000E+00  0.4000E+02
     -4.283  0.0000E+00  0.4000E+02
     -4.179  0.0000E+00  0.4000E+02
     -4.075  0.0000E+00  0.4000E+02
     -3.970  0.0000E+00  0.4000E+02
     -3.866  0.0000E+00  0.4000E+02
     -3.762  0.0000E+00  0.4000E+02
     -3.658  0.0000E+00  0.4000E+02
     -3.554  0.0000E+00  0.4000E+02
     -3.450  0.0000E+00  0.4000E+02
     -3.346  0.0000E+00  0.4000E+02
     -3.242  0.0000E+00  0.4000E+02
     -3.138  0.1938E-11  0.4000E+02
     -3.034  0.1164E-04  0.4000E+02
     -2.930  0.5142E-01  0.4001E+02
     -2.826  0.1302E+01  0.4014E+02
     -2.722  0.7967E+01  0.4097E+02
     -2.618  0.2583E+02  0.4366E+02
     -2.514  0.2994E+02  0.4677E+02
     -2.410  0.3340E+02  0.5025E+02
     -2.306  0.4381E+02  0.5481E+02
     -2.202  0.1064E+02  0.5591E+02
     -2.098  0.8396E+00  0.5600E+02
     -1.993  0.1534E-02  0.5600E+02
     -1.889  0.3128E-08  0.5600E+02
     -1.785  0.0000E+00  0.5600E+02
     -1.681  0.0000E+00  0.5600E+02
     -1.577  0.0000E+00  0.5600E+02
     -1.473  0.0000E+00  0.5600E+02
     -1.369  0.0000E+00  0.5600E+02
     -1.265  0.0000E+00  0.5600E+02
     -1.161  0.0000E+00  0.5600E+02
     -1.057  0.0000E+00  0.5600E+02
     -0.953  0.0000E+00  0.5600E+02
     -0.849  0.0000E+00  0.5600E+02
     -0.745  0.0000E+00  0.5600E+02
     -0.641  0.0000E+00  0.5600E+02
     -0.537  0.0000E+00  0.5600E+02
     -0.433  0.0000E+00  0.5600E+02
     -0.329  0.0000E+00  0.5600E+02
     -0.225  0.0000E+00  0.5600E+02
     -0.121  0.7759E-14  0.5600E+02
     -0.016  0.4735E-06  0.5600E+02
      0.088  0.1072E-01  0.5600E+02
      0.192  0.8266E+00  0.5609E+02
      0.296  0.3778E+01  0.5648E+02
      0.400  0.5967E+01  0.5710E+02
      0.504  0.7501E+01  0.5788E+02
      0.608  0.1221E+02  0.5915E+02
      0.712  0.1483E+02  0.6070E+02
      0.816  0.1115E+02  0.6186E+02
      0.920  0.8508E+01  0.6274E+02
      1.024  0.7797E+01  0.6355E+02
      1.128  0.4088E+01  0.6398E+02
      1.232  0.2120E+00  0.6400E+02
      1.336  0.9244E-04  0.6400E+02
      1.440  0.2998E-10  0.6400E+02
      1.544  0.0000E+00  0.6400E+02
      1.648  0.0000E+00  0.6400E+02
      1.752  0.0000E+00  0.6400E+02
      1.856  0.0000E+00  0.6400E+02
      1.961  0.0000E+00  0.6400E+02
      2.065  0.0000E+00  0.6400E+02
      2.169  0.0000E+00  0.6400E+02
      2.273  0.0000E+00  0.6400E+02
      2.377  0.0000E+00  0.6400E+02
      2.481  0.0000E+00  0.6400E+02
      2.585  0.0000E+00  0.6400E+02
      2.689  0.0000E+00  0.6400E+02
      2.793  0.0000E+00  0.6400E+02
      2.897  0.0000E+00  0.6400E+02
      3.001  0.0000E+00  0.6400E+02
      3.105  0.0000E+00  0.6400E+02
      3.209  0.0000E+00  0.6400E+02
      3.313  0.0000E+00  0.6400E+02
      3.417  0.0000E+00  0.6400E+02
      3.521  0.0000E+00  0.6400E+02
      3.625  0.1827E-12  0.6400E+02
      3.729  0.2081E-05  0.6400E+02
      3.833  0.8060E-02  0.6400E+02
      3.938  0.1423E+00  0.6402E+02
      4.042  0.2924E+00  0.6405E+02
      4.146  0.6564E+00  0.6411E+02
      4.250  0.8477E+00  0.6420E+02
      4.354  0.9030E+00  0.6430E+02
      4.458  0.1045E+01  0.6441E+02
      4.562  0.1374E+01  0.6455E+02
      4.666  0.2192E+01  0.6478E+02
      4.770  0.2593E+01  0.6505E+02
      4.874  0.2031E+01  0.6526E+02
      4.978  0.1984E+01  0.6546E+02
      5.082  0.2384E+01  0.6571E+02
      5.186  0.1826E+01  0.6590E+02
      5.290  0.2373E+01  0.6615E+02
      5.394  0.3522E+01  0.6652E+02
      5.498  0.3675E+01  0.6690E+02
      5.602  0.3580E+01  0.6727E+02
      5.706  0.3364E+01  0.6762E+02
      5.810  0.4896E+01  0.6813E+02
      5.914  0.7041E+01  0.6886E+02
      6.019  0.6091E+01  0.6950E+02
      6.123  0.5260E+01  0.7004E+02
      6.227  0.5507E+01  0.7062E+02
      6.331  0.4346E+01  0.7107E+02
      6.435  0.2366E+01  0.7131E+02
      6.539  0.3510E+01  0.7168E+02
      6.643  0.4082E+01  0.7210E+02
      6.747  0.6940E+01  0.7283E+02
      6.851  0.9245E+01  0.7379E+02
      6.955  0.8419E+01  0.7466E+02
      7.059  0.9355E+01  0.7564E+02
      7.163  0.1272E+02  0.7696E+02
      7.267  0.1513E+02  0.7854E+02
      7.371  0.9754E+01  0.7955E+02
      7.475  0.5651E+01  0.8014E+02
      7.579  0.4262E+01  0.8058E+02
      7.683  0.6544E+01  0.8126E+02
      7.787  0.1068E+02  0.8238E+02
      7.891  0.1188E+02  0.8361E+02
      7.996  0.1339E+02  0.8501E+02
      8.100  0.1160E+02  0.8621E+02
      8.204  0.9133E+01  0.8716E+02
      8.308  0.1034E+02  0.8824E+02
      8.412  0.1014E+02  0.8929E+02
      8.516  0.8433E+01  0.9017E+02
      8.620  0.1017E+02  0.9123E+02
      8.724  0.9403E+01  0.9221E+02
      8.828  0.9656E+01  0.9321E+02
      8.932  0.7810E+01  0.9403E+02
      9.036  0.5630E+01  0.9461E+02
      9.140  0.5961E+01  0.9523E+02
      9.244  0.3920E+01  0.9564E+02
      9.348  0.1699E+01  0.9582E+02
      9.452  0.1206E+01  0.9594E+02
      9.556  0.4802E+00  0.9599E+02
      9.660  0.7903E-01  0.9600E+02
      9.764  0.2298E-02  0.9600E+02
      9.868  0.5502E-07  0.9600E+02
      9.973  0.3168E-15  0.9600E+02
     10.077  0.0000E+00  0.9600E+02
     10.181  0.0000E+00  0.9600E+02
     10.285  0.0000E+00  0.9600E+02
     10.389  0.0000E+00  0.9600E+02
     10.493  0.0000E+00  0.9600E+02
     10.597  0.0000E+00  0.9600E+02
     10.701  0.0000E+00  0.9600E+02
     10.805  0.0000E+00  0.9600E+02
     10.909  0.0000E+00  0.9600E+02
     11.013  0.0000E+00  0.9600E+02
