       N       E                     dE             d eps       ncg     rms          rms(c)
DAV:   1    -0.146692767852E+02   -0.14669E+02   -0.11573E-05 13776   0.125E-02    0.773E-03
DAV:   2    -0.146692766262E+02    0.15903E-06   -0.11647E-06 13008   0.379E-03
   1 F= -.14669277E+02 E0= -.14669277E+02  d E =-.788626E-11
       N       E                     dE             ncg
DAV:   1    -0.207133473268E+05   -0.13868E+06    12000
DAV:   2    -0.547741716797E+05   -0.34061E+05    20448
DAV:   3    -0.556826892442E+05   -0.90852E+03    12048
DAV:   4    -0.556910849635E+05   -0.83957E+01    24000
DAV:   5    -0.556910856819E+05   -0.71841E-03    20496
DAV:   6    -0.556910856826E+05   -0.69843E-06    24000
       N       E                     dE             ncg
DAV:   1     0.110260625350E+06   -0.10529E+05     2112
DAV:   2     0.104116792288E+06   -0.61438E+04     3312
DAV:   3     0.103929782928E+06   -0.18701E+03     2112
DAV:   4     0.103928096163E+06   -0.16868E+01     4224
DAV:   5     0.103928096020E+06   -0.14337E-03     3408
DAV:   6     0.103928096020E+06   -0.13883E-06     4224
