Mo                                      
   1.00000000000000     
     3.169300    0.000000    0.000000
     0.000000    3.169300    0.000000
     0.000000    0.000000    3.169300
   Mo
     2
Direct
  0.000000  0.000000  0.000000
  0.500000  0.500000  0.500000
 
   28   28   28
  238.89      237.96      231.15      210.77      174.19      127.78      82.966      48.727      27.513      16.565    
  11.493      9.1855      8.1826      7.7487      7.6195      7.7487      8.1826      9.1855      11.493      16.565    
  27.513      48.727      82.966      127.78      174.19      210.77      231.15      237.96      237.96      236.47    
  228.36      206.83      169.91      124.09      80.377      47.233      26.811      16.304      11.410      9.1701    
  8.1905      7.7648      7.6379      7.7648      8.1905      9.1701      11.410      16.304      26.811      47.233    
  80.377      124.09      169.91      206.83      228.36      236.47      231.15      228.36      217.35      193.52    
  156.57      113.07      72.840      42.965      24.837      15.573      11.174      9.1242      8.2117      7.8100    
  7.6900      7.8100      8.2117      9.1242      11.174      15.573      24.837      42.965      72.840      113.07    
  156.57      193.52      217.35      228.36      210.77      206.83      193.52      168.76      133.99      95.494    
  61.301      36.638      21.988      14.513      10.817      9.0493      8.2392      7.8754      7.7661      7.8754    
  8.2392      9.0493      10.817      14.513      21.988      36.638      61.301      95.494      133.99      168.76    
  193.52      206.83      174.19      169.91      156.57      133.99      104.63      73.908      47.743      29.478    
  18.847      13.288      10.385      8.9489      8.2636      7.9474      7.8519      7.9474      8.2636      8.9489    
  10.385      13.288      18.847      29.478      47.743      73.908      104.63      133.99      156.57      169.91    
  127.78      124.09      113.07      95.494      73.908      52.389      34.786      22.874      15.951      12.063    
  9.9336      8.8294      8.2751      8.0107      7.9302      8.0107      8.2751      8.8294      9.9336      12.063    
  15.951      22.874      34.786      52.389      73.908      95.494      113.07      124.09      82.966      80.377    
  72.840      61.301      47.743      34.786      24.564      17.742      13.529      10.973      9.5060      8.6978    
  8.2659      8.0511      7.9849      8.0511      8.2659      8.6978      9.5060      10.973      13.529      17.742    
  24.564      34.786      47.743      61.301      72.840      80.377      48.727      47.233      42.965      36.638    
  29.478      22.874      17.742      14.119      11.657      10.088      9.1290      8.5594      8.2310      8.0588    
  8.0045      8.0588      8.2310      8.5594      9.1290      10.088      11.657      14.119      17.742      22.874    
  29.478      36.638      42.965      47.233      27.513      26.811      24.837      21.988      18.847      15.951    
  13.529      11.657      10.320      9.4112      8.8095      8.4170      8.1691      8.0301      7.9849      8.0301    
  8.1691      8.4170      8.8095      9.4112      10.320      11.657      13.529      15.951      18.847      21.988    
  24.837      26.811      16.565      16.304      15.573      14.513      13.288      12.063      10.973      10.088    
  9.4112      8.9100      8.5413      8.2718      8.0829      7.9687      7.9302      7.9687      8.0829      8.2718    
  8.5413      8.9100      9.4112      10.088      10.973      12.063      13.288      14.513      15.573      16.304    
  11.493      11.410      11.174      10.817      10.385      9.9336      9.5060      9.1290      8.8095      8.5413    
  8.3151      8.1267      7.9800      7.8850      7.8519      7.8850      7.9800      8.1267      8.3151      8.5413    
  8.8095      9.1290      9.5060      9.9336      10.385      10.817      11.174      11.410      9.1855      9.1701    
  9.1242      9.0493      8.9489      8.8294      8.6978      8.5594      8.4170      8.2718      8.1267      7.9894    
  7.8731      7.7942      7.7661      7.7942      7.8731      7.9894      8.1267      8.2718      8.4170      8.5594    
  8.6978      8.8294      8.9489      9.0493      9.1242      9.1701      8.1826      8.1905      8.2117      8.2392    
  8.2636      8.2751      8.2659      8.2310      8.1691      8.0829      7.9800      7.8731      7.7786      7.7133    
  7.6900      7.7133      7.7786      7.8731      7.9800      8.0829      8.1691      8.2310      8.2659      8.2751    
  8.2636      8.2392      8.2117      8.1905      7.7487      7.7648      7.8100      7.8754      7.9474      8.0107    
  8.0511      8.0588      8.0301      7.9687      7.8850      7.7942      7.7133      7.6577      7.6379      7.6577    
  7.7133      7.7942      7.8850      7.9687      8.0301      8.0588      8.0511      8.0107      7.9474      7.8754    
  7.8100      7.7648      7.6195      7.6379      7.6900      7.7661      7.8519      7.9302      7.9849      8.0045    
  7.9849      7.9302      7.8519      7.7661      7.6900      7.6379      7.6195      7.6379      7.6900      7.7661    
  7.8519      7.9302      7.9849      8.0045      7.9849      7.9302      7.8519      7.7661      7.6900      7.6379    
  7.7487      7.7648      7.8100      7.8754      7.9474      8.0107      8.0511      8.0588      8.0301      7.9687    
  7.8850      7.7942      7.7133      7.6577      7.6379      7.6577      7.7133      7.7942      7.8850      7.9687    
  8.0301      8.0588      8.0511      8.0107      7.9474      7.8754      7.8100      7.7648      8.1826      8.1905    
  8.2117      8.2392      8.2636      8.2751      8.2659      8.2310      8.1691      8.0829      7.9800      7.8731    
  7.7786      7.7133      7.6900      7.7133      7.7786      7.8731      7.9800      8.0829      8.1691      8.2310    
  8.2659      8.2751      8.2636      8.2392      8.2117      8.1905      9.1855      9.1701      9.1242      9.0493    
  8.9489      8.8294      8.6978      8.5594      8.4170      8.2718      8.1267      7.9894      7.8731      7.7942    
  7.7661      7.7942      7.8731      7.9894      8.1267      8.2718      8.4170      8.5594      8.6978      8.8294    
  8.9489      9.0493      9.1242      9.1701      11.493      11.410      11.174      10.817      10.385      9.9336    
  9.5060      9.1290      8.8095      8.5413      8.3151      8.1267      7.9800      7.8850      7.8519      7.8850    
  7.9800      8.1267      8.3151      8.5413      8.8095      9.1290      9.5060      9.9336      10.385      10.817    
  11.174      11.410      16.565      16.304      15.573      14.513      13.288      12.063      10.973      10.088    
  9.4112      8.9100      8.5413      8.2718      8.0829      7.9687      7.9302      7.9687      8.0829      8.2718    
  8.5413      8.9100      9.4112      10.088      10.973      12.063      13.288      14.513      15.573      16.304    
  27.513      26.811      24.837      21.988      18.847      15.951      13.529      11.657      10.320      9.4112    
  8.8095      8.4170      8.1691      8.0301      7.9849      8.0301      8.1691      8.4170      8.8095      9.4112    
  10.320      11.657      13.529      15.951      18.847      21.988      24.837      26.811      48.727      47.233    
  42.965      36.638      29.478      22.874      17.742      14.119      11.657      10.088      9.1290      8.5594    
  8.2310      8.0588      8.0045      8.0588      8.2310      8.5594      9.1290      10.088      11.657      14.119    
  17.742      22.874      29.478      36.638      42.965      47.233      82.966      80.377      72.840      61.301    
  47.743      34.786      24.564      17.742      13.529      10.973      9.5060      8.6978      8.2659      8.0511    
  7.9849      8.0511      8.2659      8.6978      9.5060      10.973      13.529      17.742      24.564      34.786    
  47.743      61.301      72.840      80.377      127.78      124.09      113.07      95.494      73.908      52.389    
  34.786      22.874      15.951      12.063      9.9336      8.8294      8.2751      8.0107      7.9302      8.0107    
  8.2751      8.8294      9.9336      12.063      15.951      22.874      34.786      52.389      73.908      95.494    
  113.07      124.09      174.19      169.91      156.57      133.99      104.63      73.908      47.743      29.478    
  18.847      13.288      10.385      8.9489      8.2636      7.9474      7.8519      7.9474      8.2636      8.9489    
  10.385      13.288      18.847      29.478      47.743      73.908      104.63      133.99      156.57      169.91    
  210.77      206.83      193.52      168.76      133.99      95.494      61.301      36.638      21.988      14.513    
  10.817      9.0493      8.2392      7.8754      7.7661      7.8754      8.2392      9.0493      10.817      14.513    
  21.988      36.638      61.301      95.494      133.99      168.76      193.52      206.83      231.15      228.36    
  217.35      193.52      156.57      113.07      72.840      42.965      24.837      15.573      11.174      9.1242    
  8.2117      7.8100      7.6900      7.8100      8.2117      9.1242      11.174      15.573      24.837      42.965    
  72.840      113.07      156.57      193.52      217.35      228.36      237.96      236.47      228.36      206.83    
  169.91      124.09      80.377      47.233      26.811      16.304      11.410      9.1701      8.1905      7.7648    
  7.6379      7.7648      8.1905      9.1701      11.410      16.304      26.811      47.233      80.377      124.09    
  169.91      206.83      228.36      236.47      237.96      236.47      228.36      206.83      169.91      124.09    
  80.377      47.233      26.811      16.304      11.410      9.1701      8.1905      7.7648      7.6379      7.7648    
  8.1905      9.1701      11.410      16.304      26.811      47.233      80.377      124.09      169.91      206.83    
  228.36      236.47      236.47      234.48      225.22      202.70      165.59      120.44      77.843      45.784    
  26.137      16.055      11.333      9.1572      8.2001      7.7824      7.6577      7.7824      8.2001      9.1572    
  11.333      16.055      26.137      45.784      77.843      120.44      165.59      202.70      225.22      234.48    
  228.36      225.22      213.45      189.07      152.25      109.58      70.488      41.654      24.244      15.360    
  11.110      9.1179      8.2257      7.8313      7.7133      7.8313      8.2257      9.1179      11.110      15.360    
  24.244      41.654      70.488      109.58      152.25      189.07      213.45      225.22      206.83      202.70    
  189.07      164.24      129.93      92.382      59.288      35.557      21.519      14.349      10.771      9.0521    
  8.2593      7.9016      7.7942      7.9016      8.2593      9.0521      10.771      14.349      21.519      35.557    
  59.288      92.382      129.93      164.24      189.07      202.70      169.91      165.59      152.25      129.93    
  101.22      71.419      46.204      28.691      18.522      13.174      10.361      8.9620      8.2903      7.9790    
  7.8850      7.9790      8.2903      8.9620      10.361      13.174      18.522      28.691      46.204      71.419    
  101.22      129.93      152.25      165.59      124.09      120.44      109.58      92.382      71.419      50.658    
  33.768      22.382      15.753      11.996      9.9303      8.8528      8.3087      8.0481      7.9687      8.0481    
  8.3087      8.8528      9.9303      11.996      15.753      22.382      33.768      50.658      71.419      92.382    
  109.58      120.44      80.377      77.843      70.488      59.288      46.204      33.768      23.999      17.481    
  13.422      10.948      9.5216      8.7316      8.3072      8.0954      8.0301      8.0954      8.3072      8.7316    
  9.5216      10.948      13.422      17.481      23.999      33.768      46.204      59.288      70.488      77.843    
  47.233      45.784      41.654      35.557      28.691      22.382      17.481      13.994      11.615      10.095    
  9.1614      8.6044      8.2819      8.1122      8.0588      8.1122      8.2819      8.6044      9.1614      10.095    
  11.615      13.994      17.481      22.382      28.691      35.557      41.654      45.784      26.811      26.137    
  24.244      21.519      18.522      15.753      13.422      11.615      10.323      9.4420      8.8569      8.4741    
  8.2317      8.0954      8.0511      8.0954      8.2317      8.4741      8.8569      9.4420      10.323      11.615    
  13.422      15.753      18.522      21.519      24.244      26.137      16.304      16.055      15.360      14.349    
  13.174      11.996      10.948      10.095      9.4420      8.9581      8.6022      8.3417      8.1589      8.0481    
  8.0107      8.0481      8.1589      8.3417      8.6022      8.9581      9.4420      10.095      10.948      11.996    
  13.174      14.349      15.360      16.055      11.410      11.333      11.110      10.771      10.361      9.9303    
  9.5216      9.1614      8.8569      8.6022      8.3879      8.2092      8.0697      7.9790      7.9474      7.9790    
  8.0697      8.2092      8.3879      8.6022      8.8569      9.1614      9.5216      9.9303      10.361      10.771    
  11.110      11.333      9.1701      9.1572      9.1179      9.0521      8.9620      8.8528      8.7316      8.6044    
  8.4741      8.3417      8.2092      8.0830      7.9753      7.9016      7.8754      7.9016      7.9753      8.0830    
  8.2092      8.3417      8.4741      8.6044      8.7316      8.8528      8.9620      9.0521      9.1179      9.1572    
  8.1905      8.2001      8.2257      8.2593      8.2903      8.3087      8.3072      8.2819      8.2317      8.1589    
  8.0697      7.9753      7.8905      7.8313      7.8100      7.8313      7.8905      7.9753      8.0697      8.1589    
  8.2317      8.2819      8.3072      8.3087      8.2903      8.2593      8.2257      8.2001      7.7648      7.7824    
  7.8313      7.9016      7.9790      8.0481      8.0954      8.1122      8.0954      8.0481      7.9790      7.9016    
  7.8313      7.7824      7.7648      7.7824      7.8313      7.9016      7.9790      8.0481      8.0954      8.1122    
  8.0954      8.0481      7.9790      7.9016      7.8313      7.7824      7.6379      7.6577      7.7133      7.7942    
  7.8850      7.9687      8.0301      8.0588      8.0511      8.0107      7.9474      7.8754      7.8100      7.7648    
  7.7487      7.7648      7.8100      7.8754      7.9474      8.0107      8.0511      8.0588      8.0301      7.9687    
  7.8850      7.7942      7.7133      7.6577      7.7648      7.7824      7.8313      7.9016      7.9790      8.0481    
  8.0954      8.1122      8.0954      8.0481      7.9790      7.9016      7.8313      7.7824      7.7648      7.7824    
  7.8313      7.9016      7.9790      8.0481      8.0954      8.1122      8.0954      8.0481      7.9790      7.9016    
  7.8313      7.7824      8.1905      8.2001      8.2257      8.2593      8.2903      8.3087      8.3072      8.2819    
  8.2317      8.1589      8.0697      7.9753      7.8905      7.8313      7.8100      7.8313      7.8905      7.9753    
  8.0697      8.1589      8.2317      8.2819      8.3072      8.3087      8.2903      8.2593      8.2257      8.2001    
  9.1701      9.1572      9.1179      9.0521      8.9620      8.8528      8.7316      8.6044      8.4741      8.3417    
  8.2092      8.0830      7.9753      7.9016      7.8754      7.9016      7.9753      8.0830      8.2092      8.3417    
  8.4741      8.6044      8.7316      8.8528      8.9620      9.0521      9.1179      9.1572      11.410      11.333    
  11.110      10.771      10.361      9.9303      9.5216      9.1614      8.8569      8.6022      8.3879      8.2092    
  8.0697      7.9790      7.9474      7.9790      8.0697      8.2092      8.3879      8.6022      8.8569      9.1614    
  9.5216      9.9303      10.361      10.771      11.110      11.333      16.304      16.055      15.360      14.349    
  13.174      11.996      10.948      10.095      9.4420      8.9581      8.6022      8.3417      8.1589      8.0481    
  8.0107      8.0481      8.1589      8.3417      8.6022      8.9581      9.4420      10.095      10.948      11.996    
  13.174      14.349      15.360      16.055      26.811      26.137      24.244      21.519      18.522      15.753    
  13.422      11.615      10.323      9.4420      8.8569      8.4741      8.2317      8.0954      8.0511      8.0954    
  8.2317      8.4741      8.8569      9.4420      10.323      11.615      13.422      15.753      18.522      21.519    
  24.244      26.137      47.233      45.784      41.654      35.557      28.691      22.382      17.481      13.994    
  11.615      10.095      9.1614      8.6044      8.2819      8.1122      8.0588      8.1122      8.2819      8.6044    
  9.1614      10.095      11.615      13.994      17.481      22.382      28.691      35.557      41.654      45.784    
  80.377      77.843      70.488      59.288      46.204      33.768      23.999      17.481      13.422      10.948    
  9.5216      8.7316      8.3072      8.0954      8.0301      8.0954      8.3072      8.7316      9.5216      10.948    
  13.422      17.481      23.999      33.768      46.204      59.288      70.488      77.843      124.09      120.44    
  109.58      92.382      71.419      50.658      33.768      22.382      15.753      11.996      9.9303      8.8528    
  8.3087      8.0481      7.9687      8.0481      8.3087      8.8528      9.9303      11.996      15.753      22.382    
  33.768      50.658      71.419      92.382      109.58      120.44      169.91      165.59      152.25      129.93    
  101.22      71.419      46.204      28.691      18.522      13.174      10.361      8.9620      8.2903      7.9790    
  7.8850      7.9790      8.2903      8.9620      10.361      13.174      18.522      28.691      46.204      71.419    
  101.22      129.93      152.25      165.59      206.83      202.70      189.07      164.24      129.93      92.382    
  59.288      35.557      21.519      14.349      10.771      9.0521      8.2593      7.9016      7.7942      7.9016    
  8.2593      9.0521      10.771      14.349      21.519      35.557      59.288      92.382      129.93      164.24    
  189.07      202.70      228.36      225.22      213.45      189.07      152.25      109.58      70.488      41.654    
  24.244      15.360      11.110      9.1179      8.2257      7.8313      7.7133      7.8313      8.2257      9.1179    
  11.110      15.360      24.244      41.654      70.488      109.58      152.25      189.07      213.45      225.22    
  236.47      234.48      225.22      202.70      165.59      120.44      77.843      45.784      26.137      16.055    
  11.333      9.1572      8.2001      7.7824      7.6577      7.7824      8.2001      9.1572      11.333      16.055    
  26.137      45.784      77.843      120.44      165.59      202.70      225.22      234.48      231.15      228.36    
  217.35      193.52      156.57      113.07      72.840      42.965      24.837      15.573      11.174      9.1242    
  8.2117      7.8100      7.6900      7.8100      8.2117      9.1242      11.174      15.573      24.837      42.965    
  72.840      113.07      156.57      193.52      217.35      228.36      228.36      225.22      213.45      189.07    
  152.25      109.58      70.488      41.654      24.244      15.360      11.110      9.1179      8.2257      7.8313    
  7.7133      7.8313      8.2257      9.1179      11.110      15.360      24.244      41.654      70.488      109.58    
  152.25      189.07      213.45      225.22      217.35      213.45      200.12      174.94      139.18      99.317    
  63.721      37.943      22.587      14.762      10.924      9.0969      8.2636      7.8905      7.7786      7.8905    
  8.2636      9.0969      10.924      14.762      22.587      37.943      63.721      99.317      139.18      174.94    
  200.12      213.45      193.52      189.07      174.94      150.45      117.94      83.378      53.560      32.527    
  20.218      13.880      10.639      9.0573      8.3145      7.9753      7.8731      7.9753      8.3145      9.0573    
  10.639      13.880      20.218      32.527      53.560      83.378      117.94      150.45      174.94      189.07    
  156.57      152.25      139.18      117.94      91.330      64.324      41.877      26.505      17.622      12.847    
  10.291      8.9977      8.3659      8.0697      7.9800      8.0697      8.3659      8.9977      10.291      12.847    
  17.622      26.505      41.877      64.324      91.330      117.94      139.18      152.25      113.07      109.58    
  99.317      83.378      64.324      45.789      30.940      21.024      15.195      11.808      9.9215      8.9213    
  8.4076      8.1589      8.0829      8.1589      8.4076      8.9213      9.9215      11.808      15.195      21.024    
  30.940      45.789      64.324      83.378      99.317      109.58      72.840      70.488      63.721      53.560    
  41.877      30.940      22.440      16.753      13.119      10.879      9.5711      8.8351      8.4339      8.2317    
  8.1691      8.2317      8.4339      8.8351      9.5711      10.879      13.119      16.753      22.440      30.940    
  41.877      53.560      63.721      70.488      42.965      41.654      37.943      32.527      26.505      21.024    
  16.753      13.643      11.503      10.122      9.2644      8.7462      8.4427      8.2819      8.2310      8.2819    
  8.4427      8.7462      9.2644      10.122      11.503      13.643      16.753      21.024      26.505      32.527    
  37.943      41.654      24.837      24.244      22.587      20.218      17.622      15.195      13.119      11.503    
  10.340      9.5423      9.0091      8.6579      8.4339      8.3072      8.2659      8.3072      8.4339      8.6579    
  9.0091      9.5423      10.340      11.503      13.119      15.195      17.622      20.218      22.587      24.244    
  15.573      15.360      14.762      13.880      12.847      11.808      10.879      10.122      9.5423      9.1139    
  8.7997      8.5698      8.4076      8.3087      8.2751      8.3087      8.4076      8.5698      8.7997      9.1139    
  9.5423      10.122      10.879      11.808      12.847      13.880      14.762      15.360      11.174      11.110    
  10.924      10.639      10.291      9.9215      9.5711      9.2644      9.0091      8.7997      8.6257      8.4806    
  8.3659      8.2903      8.2636      8.2903      8.3659      8.4806      8.6257      8.7997      9.0091      9.2644    
  9.5711      9.9215      10.291      10.639      10.924      11.110      9.1242      9.1179      9.0969      9.0573    
  8.9977      8.9213      8.8351      8.7462      8.6579      8.5698      8.4806      8.3926      8.3145      8.2593    
  8.2392      8.2593      8.3145      8.3926      8.4806      8.5698      8.6579      8.7462      8.8351      8.9213    
  8.9977      9.0573      9.0969      9.1179      8.2117      8.2257      8.2636      8.3145      8.3659      8.4076    
  8.4339      8.4427      8.4339      8.4076      8.3659      8.3145      8.2636      8.2257      8.2117      8.2257    
  8.2636      8.3145      8.3659      8.4076      8.4339      8.4427      8.4339      8.4076      8.3659      8.3145    
  8.2636      8.2257      7.8100      7.8313      7.8905      7.9753      8.0697      8.1589      8.2317      8.2819    
  8.3072      8.3087      8.2903      8.2593      8.2257      8.2001      8.1905      8.2001      8.2257      8.2593    
  8.2903      8.3087      8.3072      8.2819      8.2317      8.1589      8.0697      7.9753      7.8905      7.8313    
  7.6900      7.7133      7.7786      7.8731      7.9800      8.0829      8.1691      8.2310      8.2659      8.2751    
  8.2636      8.2392      8.2117      8.1905      8.1826      8.1905      8.2117      8.2392      8.2636      8.2751    
  8.2659      8.2310      8.1691      8.0829      7.9800      7.8731      7.7786      7.7133      7.8100      7.8313    
  7.8905      7.9753      8.0697      8.1589      8.2317      8.2819      8.3072      8.3087      8.2903      8.2593    
  8.2257      8.2001      8.1905      8.2001      8.2257      8.2593      8.2903      8.3087      8.3072      8.2819    
  8.2317      8.1589      8.0697      7.9753      7.8905      7.8313      8.2117      8.2257      8.2636      8.3145    
  8.3659      8.4076      8.4339      8.4427      8.4339      8.4076      8.3659      8.3145      8.2636      8.2257    
  8.2117      8.2257      8.2636      8.3145      8.3659      8.4076      8.4339      8.4427      8.4339      8.4076    
  8.3659      8.3145      8.2636      8.2257      9.1242      9.1179      9.0969      9.0573      8.9977      8.9213    
  8.8351      8.7462      8.6579      8.5698      8.4806      8.3926      8.3145      8.2593      8.2392      8.2593    
  8.3145      8.3926      8.4806      8.5698      8.6579      8.7462      8.8351      8.9213      8.9977      9.0573    
  9.0969      9.1179      11.174      11.110      10.924      10.639      10.291      9.9215      9.5711      9.2644    
  9.0091      8.7997      8.6257      8.4806      8.3659      8.2903      8.2636      8.2903      8.3659      8.4806    
  8.6257      8.7997      9.0091      9.2644      9.5711      9.9215      10.291      10.639      10.924      11.110    
  15.573      15.360      14.762      13.880      12.847      11.808      10.879      10.122      9.5423      9.1139    
  8.7997      8.5698      8.4076      8.3087      8.2751      8.3087      8.4076      8.5698      8.7997      9.1139    
  9.5423      10.122      10.879      11.808      12.847      13.880      14.762      15.360      24.837      24.244    
  22.587      20.218      17.622      15.195      13.119      11.503      10.340      9.5423      9.0091      8.6579    
  8.4339      8.3072      8.2659      8.3072      8.4339      8.6579      9.0091      9.5423      10.340      11.503    
  13.119      15.195      17.622      20.218      22.587      24.244      42.965      41.654      37.943      32.527    
  26.505      21.024      16.753      13.643      11.503      10.122      9.2644      8.7462      8.4427      8.2819    
  8.2310      8.2819      8.4427      8.7462      9.2644      10.122      11.503      13.643      16.753      21.024    
  26.505      32.527      37.943      41.654      72.840      70.488      63.721      53.560      41.877      30.940    
  22.440      16.753      13.119      10.879      9.5711      8.8351      8.4339      8.2317      8.1691      8.2317    
  8.4339      8.8351      9.5711      10.879      13.119      16.753      22.440      30.940      41.877      53.560    
  63.721      70.488      113.07      109.58      99.317      83.378      64.324      45.789      30.940      21.024    
  15.195      11.808      9.9215      8.9213      8.4076      8.1589      8.0829      8.1589      8.4076      8.9213    
  9.9215      11.808      15.195      21.024      30.940      45.789      64.324      83.378      99.317      109.58    
  156.57      152.25      139.18      117.94      91.330      64.324      41.877      26.505      17.622      12.847    
  10.291      8.9977      8.3659      8.0697      7.9800      8.0697      8.3659      8.9977      10.291      12.847    
  17.622      26.505      41.877      64.324      91.330      117.94      139.18      152.25      193.52      189.07    
  174.94      150.45      117.94      83.378      53.560      32.527      20.218      13.880      10.639      9.0573    
  8.3145      7.9753      7.8731      7.9753      8.3145      9.0573      10.639      13.880      20.218      32.527    
  53.560      83.378      117.94      150.45      174.94      189.07      217.35      213.45      200.12      174.94    
  139.18      99.317      63.721      37.943      22.587      14.762      10.924      9.0969      8.2636      7.8905    
  7.7786      7.8905      8.2636      9.0969      10.924      14.762      22.587      37.943      63.721      99.317    
  139.18      174.94      200.12      213.45      228.36      225.22      213.45      189.07      152.25      109.58    
  70.488      41.654      24.244      15.360      11.110      9.1179      8.2257      7.8313      7.7133      7.8313    
  8.2257      9.1179      11.110      15.360      24.244      41.654      70.488      109.58      152.25      189.07    
  213.45      225.22      210.77      206.83      193.52      168.76      133.99      95.494      61.301      36.638    
  21.988      14.513      10.817      9.0493      8.2392      7.8754      7.7661      7.8754      8.2392      9.0493    
  10.817      14.513      21.988      36.638      61.301      95.494      133.99      168.76      193.52      206.83    
  206.83      202.70      189.07      164.24      129.93      92.382      59.288      35.557      21.519      14.349    
  10.771      9.0521      8.2593      7.9016      7.7942      7.9016      8.2593      9.0521      10.771      14.349    
  21.519      35.557      59.288      92.382      129.93      164.24      189.07      202.70      193.52      189.07    
  174.94      150.45      117.94      83.378      53.560      32.527      20.218      13.880      10.639      9.0573    
  8.3145      7.9753      7.8731      7.9753      8.3145      9.0573      10.639      13.880      20.218      32.527    
  53.560      83.378      117.94      150.45      174.94      189.07      168.76      164.24      150.45      127.78    
  99.095      69.722      45.123      28.173      18.369      13.181      10.434      9.0579      8.3926      8.0830    