Mo                                      
   1.00000000000000     
     3.169300    0.000000    0.000000
     0.000000    3.169300    0.000000
     0.000000    0.000000    3.169300
   Mo
     2
Direct
  0.000000  0.000000  0.000000
  0.500000  0.500000  0.500000
 
   28   28   28
 0.23889063034E+03 0.23796320341E+03 0.23114687647E+03 0.21077456675E+03 0.17418587757E+03
 0.12777719903E+03 0.82965536598E+02 0.48726700601E+02 0.27513393669E+02 0.16565048377E+02
 0.11492887344E+02 0.91854996777E+01 0.81826102973E+01 0.77487437594E+01 0.76195086307E+01
 0.77487437594E+01 0.81826102973E+01 0.91854996777E+01 0.11492887344E+02 0.16565048377E+02
 0.27513393669E+02 0.48726700601E+02 0.82965536598E+02 0.12777719903E+03 0.17418587757E+03
 0.21077456675E+03 0.23114687647E+03 0.23796320341E+03 0.23796320341E+03 0.23647118211E+03
 0.22835694397E+03 0.20682501086E+03 0.16990696558E+03 0.12408975124E+03 0.80377063900E+02
 0.47232788617E+02 0.26811117456E+02 0.16303833702E+02 0.11410499862E+02 0.91701248852E+01
 0.81905205910E+01 0.77648492634E+01 0.76379400688E+01 0.77648492634E+01 0.81905205910E+01
 0.91701248852E+01 0.11410499862E+02 0.16303833702E+02 0.26811117456E+02 0.47232788617E+02
 0.80377063900E+02 0.12408975124E+03 0.16990696558E+03 0.20682501086E+03 0.22835694397E+03
 0.23647118211E+03 0.23114687647E+03 0.22835694397E+03 0.21735181876E+03 0.19352141048E+03
 0.15656804322E+03 0.11306915431E+03 0.72840078976E+02 0.42965086334E+02 0.24837029283E+02
 0.15573265142E+02 0.11174440495E+02 0.91242450669E+01 0.82117069576E+01 0.78100405515E+01
 0.76899739718E+01 0.78100405515E+01 0.82117069576E+01 0.91242450669E+01 0.11174440495E+02
 0.15573265142E+02 0.24837029283E+02 0.42965086334E+02 0.72840078976E+02 0.11306915431E+03
 0.15656804322E+03 0.19352141048E+03 0.21735181876E+03 0.22835694397E+03 0.21077456675E+03
 0.20682501086E+03 0.19352141048E+03 0.16876286504E+03 0.13398862680E+03 0.95494394049E+02
 0.61301224003E+02 0.36637829800E+02 0.21987677949E+02 0.14513322948E+02 0.10816788886E+02
 0.90492640612E+01 0.82392312141E+01 0.78753523959E+01 0.77661317192E+01 0.78753523959E+01
 0.82392312141E+01 0.90492640612E+01 0.10816788886E+02 0.14513322948E+02 0.21987677949E+02
 0.36637829800E+02 0.61301224003E+02 0.95494394049E+02 0.13398862680E+03 0.16876286504E+03
 0.19352141048E+03 0.20682501086E+03 0.17418587757E+03 0.16990696558E+03 0.15656804322E+03
 0.13398862680E+03 0.10462808071E+03 0.73908320507E+02 0.47743098425E+02 0.29478423856E+02
 0.18847005503E+02 0.13288428244E+02 0.10385465116E+02 0.89489291220E+01 0.82636082522E+01
 0.79473622084E+01 0.78518995240E+01 0.79473622084E+01 0.82636082522E+01 0.89489291220E+01
 0.10385465116E+02 0.13288428244E+02 0.18847005503E+02 0.29478423856E+02 0.47743098425E+02
 0.73908320507E+02 0.10462808071E+03 0.13398862680E+03 0.15656804322E+03 0.16990696558E+03
 0.12777719903E+03 0.12408975124E+03 0.11306915431E+03 0.95494394049E+02 0.73908320507E+02
 0.52388992097E+02 0.34786413163E+02 0.22874499836E+02 0.15951428787E+02 0.12062793202E+02
 0.99335905309E+01 0.88294327727E+01 0.82751408692E+01 0.80106742485E+01 0.79301913164E+01
 0.80106742485E+01 0.82751408692E+01 0.88294327727E+01 0.99335905309E+01 0.12062793202E+02
 0.15951428787E+02 0.22874499836E+02 0.34786413163E+02 0.52388992097E+02 0.73908320507E+02
 0.95494394049E+02 0.11306915431E+03 0.12408975124E+03 0.82965536598E+02 0.80377063900E+02
 0.72840078976E+02 0.61301224003E+02 0.47743098425E+02 0.34786413163E+02 0.24563922754E+02
 0.17742225861E+02 0.13529382161E+02 0.10972880575E+02 0.95059500480E+01 0.86977691022E+01
 0.82659222900E+01 0.80511122975E+01 0.79848863300E+01 0.80511122975E+01 0.82659222900E+01
 0.86977691022E+01 0.95059500480E+01 0.10972880575E+02 0.13529382161E+02 0.17742225861E+02
 0.24563922754E+02 0.34786413163E+02 0.47743098425E+02 0.61301224003E+02 0.72840078976E+02
 0.80377063900E+02 0.48726700601E+02 0.47232788617E+02 0.42965086334E+02 0.36637829800E+02
 0.29478423856E+02 0.22874499836E+02 0.17742225861E+02 0.14118804047E+02 0.11656673302E+02
 0.10087585863E+02 0.91290064324E+01 0.85593805368E+01 0.82310282770E+01 0.80587591054E+01
 0.80045020737E+01 0.80587591054E+01 0.82310282770E+01 0.85593805368E+01 0.91290064324E+01
 0.10087585863E+02 0.11656673302E+02 0.14118804047E+02 0.17742225861E+02 0.22874499836E+02
 0.29478423856E+02 0.36637829800E+02 0.42965086334E+02 0.47232788617E+02 0.27513393669E+02
 0.26811117456E+02 0.24837029283E+02 0.21987677949E+02 0.18847005503E+02 0.15951428787E+02
 0.13529382161E+02 0.11656673302E+02 0.10319505103E+02 0.94112041381E+01 0.88095214264E+01
 0.84169884066E+01 0.81690991152E+01 0.80300663155E+01 0.79848863300E+01 0.80300663155E+01
 0.81690991152E+01 0.84169884066E+01 0.88095214264E+01 0.94112041381E+01 0.10319505103E+02
 0.11656673302E+02 0.13529382161E+02 0.15951428787E+02 0.18847005503E+02 0.21987677949E+02
 0.24837029283E+02 0.26811117456E+02 0.16565048377E+02 0.16303833702E+02 0.15573265142E+02
 0.14513322948E+02 0.13288428244E+02 0.12062793202E+02 0.10972880575E+02 0.10087585863E+02
 0.94112041381E+01 0.89099611074E+01 0.85412929748E+01 0.82718090254E+01 0.80828946328E+01
 0.79686928807E+01 0.79301913164E+01 0.79686928807E+01 0.80828946328E+01 0.82718090254E+01
 0.85412929748E+01 0.89099611074E+01 0.94112041381E+01 0.10087585863E+02 0.10972880575E+02
 0.12062793202E+02 0.13288428244E+02 0.14513322948E+02 0.15573265142E+02 0.16303833702E+02
 0.11492887344E+02 0.11410499862E+02 0.11174440495E+02 0.10816788886E+02 0.10385465116E+02
 0.99335905309E+01 0.95059500480E+01 0.91290064324E+01 0.88095214264E+01 0.85412929748E+01
 0.83151035471E+01 0.81267075159E+01 0.79800136379E+01 0.78850015020E+01 0.78518995240E+01
 0.78850015020E+01 0.79800136379E+01 0.81267075159E+01 0.83151035471E+01 0.85412929748E+01
 0.88095214264E+01 0.91290064324E+01 0.95059500480E+01 0.99335905309E+01 0.10385465116E+02
 0.10816788886E+02 0.11174440495E+02 0.11410499862E+02 0.91854996777E+01 0.91701248852E+01
 0.91242450669E+01 0.90492640612E+01 0.89489291220E+01 0.88294327727E+01 0.86977691022E+01
 0.85593805368E+01 0.84169884066E+01 0.82718090254E+01 0.81267075159E+01 0.79893642489E+01
 0.78731201770E+01 0.77941995588E+01 0.77661317192E+01 0.77941995588E+01 0.78731201770E+01
 0.79893642489E+01 0.81267075159E+01 0.82718090254E+01 0.84169884066E+01 0.85593805368E+01
 0.86977691022E+01 0.88294327727E+01 0.89489291220E+01 0.90492640612E+01 0.91242450669E+01
 0.91701248852E+01 0.81826102973E+01 0.81905205910E+01 0.82117069576E+01 0.82392312141E+01
 0.82636082522E+01 0.82751408692E+01 0.82659222900E+01 0.82310282770E+01 0.81690991152E+01
 0.80828946328E+01 0.79800136379E+01 0.78731201770E+01 0.77786173553E+01 0.77133239818E+01
 0.76899739718E+01 0.77133239818E+01 0.77786173553E+01 0.78731201770E+01 0.79800136379E+01
 0.80828946328E+01 0.81690991152E+01 0.82310282770E+01 0.82659222900E+01 0.82751408692E+01
 0.82636082522E+01 0.82392312141E+01 0.82117069576E+01 0.81905205910E+01 0.77487437594E+01
 0.77648492634E+01 0.78100405515E+01 0.78753523959E+01 0.79473622084E+01 0.80106742485E+01
 0.80511122975E+01 0.80587591054E+01 0.80300663155E+01 0.79686928807E+01 0.78850015020E+01
 0.77941995588E+01 0.77133239818E+01 0.76577213182E+01 0.76379400688E+01 0.76577213182E+01
 0.77133239818E+01 0.77941995588E+01 0.78850015020E+01 0.79686928807E+01 0.80300663155E+01
 0.80587591054E+01 0.80511122975E+01 0.80106742485E+01 0.79473622084E+01 0.78753523959E+01
 0.78100405515E+01 0.77648492634E+01 0.76195086307E+01 0.76379400688E+01 0.76899739718E+01
 0.77661317192E+01 0.78518995240E+01 0.79301913164E+01 0.79848863300E+01 0.80045020737E+01
 0.79848863300E+01 0.79301913164E+01 0.78518995240E+01 0.77661317192E+01 0.76899739718E+01
 0.76379400688E+01 0.76195086307E+01 0.76379400688E+01 0.76899739718E+01 0.77661317192E+01
 0.78518995240E+01 0.79301913164E+01 0.79848863300E+01 0.80045020737E+01 0.79848863300E+01
 0.79301913164E+01 0.78518995240E+01 0.77661317192E+01 0.76899739718E+01 0.76379400688E+01
 0.77487437594E+01 0.77648492634E+01 0.78100405515E+01 0.78753523959E+01 0.79473622084E+01
 0.80106742485E+01 0.80511122975E+01 0.80587591054E+01 0.80300663155E+01 0.79686928807E+01
 0.78850015020E+01 0.77941995588E+01 0.77133239818E+01 0.76577213182E+01 0.76379400688E+01
 0.76577213182E+01 0.77133239818E+01 0.77941995588E+01 0.78850015020E+01 0.79686928807E+01
 0.80300663155E+01 0.80587591054E+01 0.80511122975E+01 0.80106742485E+01 0.79473622084E+01
 0.78753523959E+01 0.78100405515E+01 0.77648492634E+01 0.81826102973E+01 0.81905205910E+01
 0.82117069576E+01 0.82392312141E+01 0.82636082522E+01 0.82751408692E+01 0.82659222900E+01
 0.82310282770E+01 0.81690991152E+01 0.80828946328E+01 0.79800136379E+01 0.78731201770E+01
 0.77786173553E+01 0.77133239818E+01 0.76899739718E+01 0.77133239818E+01 0.77786173553E+01
 0.78731201770E+01 0.79800136379E+01 0.80828946328E+01 0.81690991152E+01 0.82310282770E+01
 0.82659222900E+01 0.82751408692E+01 0.82636082522E+01 0.82392312141E+01 0.82117069576E+01
 0.81905205910E+01 0.91854996777E+01 0.91701248852E+01 0.91242450669E+01 0.90492640612E+01
 0.89489291220E+01 0.88294327727E+01 0.86977691022E+01 0.85593805368E+01 0.84169884066E+01
 0.82718090254E+01 0.81267075159E+01 0.79893642489E+01 0.78731201770E+01 0.77941995588E+01
 0.77661317192E+01 0.77941995588E+01 0.78731201770E+01 0.79893642489E+01 0.81267075159E+01
 0.82718090254E+01 0.84169884066E+01 0.85593805368E+01 0.86977691022E+01 0.88294327727E+01
 0.89489291220E+01 0.90492640612E+01 0.91242450669E+01 0.91701248852E+01 0.11492887344E+02
 0.11410499862E+02 0.11174440495E+02 0.10816788886E+02 0.10385465116E+02 0.99335905309E+01
 0.95059500480E+01 0.91290064324E+01 0.88095214264E+01 0.85412929748E+01 0.83151035471E+01
 0.81267075159E+01 0.79800136379E+01 0.78850015020E+01 0.78518995240E+01 0.78850015020E+01
 0.79800136379E+01 0.81267075159E+01 0.83151035471E+01 0.85412929748E+01 0.88095214264E+01
 0.91290064324E+01 0.95059500480E+01 0.99335905309E+01 0.10385465116E+02 0.10816788886E+02
 0.11174440495E+02 0.11410499862E+02 0.16565048377E+02 0.16303833702E+02 0.15573265142E+02
 0.14513322948E+02 0.13288428244E+02 0.12062793202E+02 0.10972880575E+02 0.10087585863E+02
 0.94112041381E+01 0.89099611074E+01 0.85412929748E+01 0.82718090254E+01 0.80828946328E+01
 0.79686928807E+01 0.79301913164E+01 0.79686928807E+01 0.80828946328E+01 0.82718090254E+01
 0.85412929748E+01 0.89099611074E+01 0.94112041381E+01 0.10087585863E+02 0.10972880575E+02
 0.12062793202E+02 0.13288428244E+02 0.14513322948E+02 0.15573265142E+02 0.16303833702E+02
 0.27513393669E+02 0.26811117456E+02 0.24837029283E+02 0.21987677949E+02 0.18847005503E+02
 0.15951428787E+02 0.13529382161E+02 0.11656673302E+02 0.10319505103E+02 0.94112041381E+01
 0.88095214264E+01 0.84169884066E+01 0.81690991152E+01 0.80300663155E+01 0.79848863300E+01
 0.80300663155E+01 0.81690991152E+01 0.84169884066E+01 0.88095214264E+01 0.94112041381E+01
 0.10319505103E+02 0.11656673302E+02 0.13529382161E+02 0.15951428787E+02 0.18847005503E+02
 0.21987677949E+02 0.24837029283E+02 0.26811117456E+02 0.48726700601E+02 0.47232788617E+02
 0.42965086334E+02 0.36637829800E+02 0.29478423856E+02 0.22874499836E+02 0.17742225861E+02
 0.14118804047E+02 0.11656673302E+02 0.10087585863E+02 0.91290064324E+01 0.85593805368E+01
 0.82310282770E+01 0.80587591054E+01 0.80045020737E+01 0.80587591054E+01 0.82310282770E+01
 0.85593805368E+01 0.91290064324E+01 0.10087585863E+02 0.11656673302E+02 0.14118804047E+02
 0.17742225861E+02 0.22874499836E+02 0.29478423856E+02 0.36637829800E+02 0.42965086334E+02
 0.47232788617E+02 0.82965536598E+02 0.80377063900E+02 0.72840078976E+02 0.61301224003E+02
 0.47743098425E+02 0.34786413163E+02 0.24563922754E+02 0.17742225861E+02 0.13529382161E+02
 0.10972880575E+02 0.95059500480E+01 0.86977691022E+01 0.82659222900E+01 0.80511122975E+01
 0.79848863300E+01 0.80511122975E+01 0.82659222900E+01 0.86977691022E+01 0.95059500480E+01
 0.10972880575E+02 0.13529382161E+02 0.17742225861E+02 0.24563922754E+02 0.34786413163E+02
 0.47743098425E+02 0.61301224003E+02 0.72840078976E+02 0.80377063900E+02 0.12777719903E+03
 0.12408975124E+03 0.11306915431E+03 0.95494394049E+02 0.73908320507E+02 0.52388992097E+02
 0.34786413163E+02 0.22874499836E+02 0.15951428787E+02 0.12062793202E+02 0.99335905309E+01
 0.88294327727E+01 0.82751408692E+01 0.80106742485E+01 0.79301913164E+01 0.80106742485E+01
 0.82751408692E+01 0.88294327727E+01 0.99335905309E+01 0.12062793202E+02 0.15951428787E+02
 0.22874499836E+02 0.34786413163E+02 0.52388992097E+02 0.73908320507E+02 0.95494394049E+02
 0.11306915431E+03 0.12408975124E+03 0.17418587757E+03 0.16990696558E+03 0.15656804322E+03
 0.13398862680E+03 0.10462808071E+03 0.73908320507E+02 0.47743098425E+02 0.29478423856E+02
 0.18847005503E+02 0.13288428244E+02 0.10385465116E+02 0.89489291220E+01 0.82636082522E+01
 0.79473622084E+01 0.78518995240E+01 0.79473622084E+01 0.82636082522E+01 0.89489291220E+01
 0.10385465116E+02 0.13288428244E+02 0.18847005503E+02 0.29478423856E+02 0.47743098425E+02
 0.73908320507E+02 0.10462808071E+03 0.13398862680E+03 0.15656804322E+03 0.16990696558E+03
 0.21077456675E+03 0.20682501086E+03 0.19352141048E+03 0.16876286504E+03 0.13398862680E+03
 0.95494394049E+02 0.61301224003E+02 0.36637829800E+02 0.21987677949E+02 0.14513322948E+02
 0.10816788886E+02 0.90492640612E+01 0.82392312141E+01 0.78753523959E+01 0.77661317192E+01
 0.78753523959E+01 0.82392312141E+01 0.90492640612E+01 0.10816788886E+02 0.14513322948E+02
 0.21987677949E+02 0.36637829800E+02 0.61301224003E+02 0.95494394049E+02 0.13398862680E+03
 0.16876286504E+03 0.19352141048E+03 0.20682501086E+03 0.23114687647E+03 0.22835694397E+03
 0.21735181876E+03 0.19352141048E+03 0.15656804322E+03 0.11306915431E+03 0.72840078976E+02
 0.42965086334E+02 0.24837029283E+02 0.15573265142E+02 0.11174440495E+02 0.91242450669E+01
 0.82117069576E+01 0.78100405515E+01 0.76899739718E+01 0.78100405515E+01 0.82117069576E+01
 0.91242450669E+01 0.11174440495E+02 0.15573265142E+02 0.24837029283E+02 0.42965086334E+02
 0.72840078976E+02 0.11306915431E+03 0.15656804322E+03 0.19352141048E+03 0.21735181876E+03
 0.22835694397E+03 0.23796320341E+03 0.23647118211E+03 0.22835694397E+03 0.20682501086E+03
 0.16990696558E+03 0.12408975124E+03 0.80377063900E+02 0.47232788617E+02 0.26811117456E+02
 0.16303833702E+02 0.11410499862E+02 0.91701248852E+01 0.81905205910E+01 0.77648492634E+01
 0.76379400688E+01 0.77648492634E+01 0.81905205910E+01 0.91701248852E+01 0.11410499862E+02
 0.16303833702E+02 0.26811117456E+02 0.47232788617E+02 0.80377063900E+02 0.12408975124E+03
 0.16990696558E+03 0.20682501086E+03 0.22835694397E+03 0.23647118211E+03 0.23796320341E+03
 0.23647118211E+03 0.22835694397E+03 0.20682501086E+03 0.16990696558E+03 0.12408975124E+03
 0.80377063900E+02 0.47232788617E+02 0.26811117456E+02 0.16303833702E+02 0.11410499862E+02
 0.91701248852E+01 0.81905205910E+01 0.77648492634E+01 0.76379400688E+01 0.77648492634E+01
 0.81905205910E+01 0.91701248852E+01 0.11410499862E+02 0.16303833702E+02 0.26811117456E+02
 0.47232788617E+02 0.80377063900E+02 0.12408975124E+03 0.16990696558E+03 0.20682501086E+03
 0.22835694397E+03 0.23647118211E+03 0.23647118211E+03 0.23447524736E+03 0.22521569918E+03
 0.20270071642E+03 0.16559100235E+03 0.12043797341E+03 0.77842834764E+02 0.45783532605E+02
 0.26136523274E+02 0.16055462412E+02 0.11332884036E+02 0.91571683543E+01 0.82000895987E+01
 0.77823711597E+01 0.76577213182E+01 0.77823711597E+01 0.82000895987E+01 0.91571683543E+01
 0.11332884036E+02 0.16055462412E+02 0.26136523274E+02 0.45783532605E+02 0.77842834764E+02
 0.12043797341E+03 0.16559100235E+03 0.20270071642E+03 0.22521569918E+03 0.23447524736E+03
 0.22835694397E+03 0.22521569918E+03 0.21344679536E+03 0.18906853108E+03 0.15225227180E+03
 0.10957696359E+03 0.70488076500E+02 0.41653923022E+02 0.24243733588E+02 0.15360340384E+02
 0.11110071316E+02 0.91178875420E+01 0.82257268668E+01 0.78313222781E+01 0.77133239818E+01
 0.78313222781E+01 0.82257268668E+01 0.91178875420E+01 0.11110071316E+02 0.15360340384E+02
 0.24243733588E+02 0.41653923022E+02 0.70488076500E+02 0.10957696359E+03 0.15225227180E+03
 0.18906853108E+03 0.21344679536E+03 0.22521569918E+03 0.20682501086E+03 0.20270071642E+03
 0.18906853108E+03 0.16424079991E+03 0.12993488052E+03 0.92382407880E+02 0.59287547124E+02
 0.35557204717E+02 0.21519367947E+02 0.14348603296E+02 0.10771375887E+02 0.90521106873E+01
 0.82592923794E+01 0.79016413004E+01 0.77941995588E+01 0.79016413004E+01 0.82592923794E+01
 0.90521106873E+01 0.10771375887E+02 0.14348603296E+02 0.21519367947E+02 0.35557204717E+02
 0.59287547124E+02 0.92382407880E+02 0.12993488052E+03 0.16424079991E+03 0.18906853108E+03
 0.20270071642E+03 0.16990696558E+03 0.16559100235E+03 0.15225227180E+03 0.12993488052E+03
 0.10121758083E+03 0.71419171289E+02 0.46203589805E+02 0.28691211566E+02 0.18522464486E+02
 0.13173736699E+02 0.10361348160E+02 0.89619776949E+01 0.82902521167E+01 0.79790277170E+01
 0.78850015020E+01 0.79790277170E+01 0.82902521167E+01 0.89619776949E+01 0.10361348160E+02
 0.13173736699E+02 0.18522464486E+02 0.28691211566E+02 0.46203589805E+02 0.71419171289E+02
 0.10121758083E+03 0.12993488052E+03 0.15225227180E+03 0.16559100235E+03 0.12408975124E+03
 0.12043797341E+03 0.10957696359E+03 0.92382407880E+02 0.71419171289E+02 0.50657619581E+02
 0.33768422523E+02 0.22382346800E+02 0.15753395578E+02 0.11996390826E+02 0.99303261760E+01
 0.88528049680E+01 0.83086692032E+01 0.80480700793E+01 0.79686928807E+01 0.80480700793E+01
 0.83086692032E+01 0.88528049680E+01 0.99303261760E+01 0.11996390826E+02 0.15753395578E+02
 0.22382346800E+02 0.33768422523E+02 0.50657619581E+02 0.71419171289E+02 0.92382407880E+02
 0.10957696359E+03 0.12043797341E+03 0.80377063900E+02 0.77842834764E+02 0.70488076500E+02
 0.59287547124E+02 0.46203589805E+02 0.33768422523E+02 0.23998680623E+02 0.17480503131E+02
 0.13421781805E+02 0.10947690782E+02 0.95216068397E+01 0.87316144099E+01 0.83072336041E+01
 0.80954292287E+01 0.80300663155E+01 0.80954292287E+01 0.83072336041E+01 0.87316144099E+01
 0.95216068397E+01 0.10947690782E+02 0.13421781805E+02 0.17480503131E+02 0.23998680623E+02
 0.33768422523E+02 0.46203589805E+02 0.59287547124E+02 0.70488076500E+02 0.77842834764E+02
 0.47232788617E+02 0.45783532605E+02 0.41653923022E+02 0.35557204717E+02 0.28691211566E+02
 0.22382346800E+02 0.17480503131E+02 0.13993908387E+02 0.11615469486E+02 0.10094520645E+02
 0.91614142108E+01 0.86043567003E+01 0.82818870313E+01 0.81122426322E+01 0.80587591054E+01
 0.81122426322E+01 0.82818870313E+01 0.86043567003E+01 0.91614142108E+01 0.10094520645E+02
 0.11615469486E+02 0.13993908387E+02 0.17480503131E+02 0.22382346800E+02 0.28691211566E+02
 0.35557204717E+02 0.41653923022E+02 0.45783532605E+02 0.26811117456E+02 0.26136523274E+02
 0.24243733588E+02 0.21519367947E+02 0.18522464486E+02 0.15753395578E+02 0.13421781805E+02
 0.11615469486E+02 0.10322599464E+02 0.94419523629E+01 0.88568992714E+01 0.84740891774E+01
 0.82316710399E+01 0.80954292287E+01 0.80511122975E+01 0.80954292287E+01 0.82316710399E+01
 0.84740891774E+01 0.88568992714E+01 0.94419523629E+01 0.10322599464E+02 0.11615469486E+02
 0.13421781805E+02 0.15753395578E+02 0.18522464486E+02 0.21519367947E+02 0.24243733588E+02
 0.26136523274E+02 0.16303833702E+02 0.16055462412E+02 0.15360340384E+02 0.14348603296E+02
 0.13173736699E+02 0.11996390826E+02 0.10947690782E+02 0.10094520645E+02 0.94419523629E+01
 0.89581239022E+01 0.86021645994E+01 0.83417384186E+01 0.81588500690E+01 0.80480700793E+01
 0.80106742485E+01 0.80480700793E+01 0.81588500690E+01 0.83417384186E+01 0.86021645994E+01
 0.89581239022E+01 0.94419523629E+01 0.10094520645E+02 0.10947690782E+02 0.11996390826E+02
 0.13173736699E+02 0.14348603296E+02 0.15360340384E+02 0.16055462412E+02 0.11410499862E+02
 0.11332884036E+02 0.11110071316E+02 0.10771375887E+02 0.10361348160E+02 0.99303261760E+01
 0.95216068397E+01 0.91614142108E+01 0.88568992714E+01 0.86021645994E+01 0.83878510840E+01
 0.82092280608E+01 0.80697129811E+01 0.79790277170E+01 0.79473622084E+01 0.79790277170E+01
 0.80697129811E+01 0.82092280608E+01 0.83878510840E+01 0.86021645994E+01 0.88568992714E+01
 0.91614142108E+01 0.95216068397E+01 0.99303261760E+01 0.10361348160E+02 0.10771375887E+02
 0.11110071316E+02 0.11332884036E+02 0.91701248852E+01 0.91571683543E+01 0.91178875420E+01
 0.90521106873E+01 0.89619776949E+01 0.88528049680E+01 0.87316144099E+01 0.86043567003E+01
 0.84740891774E+01 0.83417384186E+01 0.82092280608E+01 0.80829919924E+01 0.79752768958E+01
 0.79016413004E+01 0.78753523959E+01 0.79016413004E+01 0.79752768958E+01 0.80829919924E+01
 0.82092280608E+01 0.83417384186E+01 0.84740891774E+01 0.86043567003E+01 0.87316144099E+01
 0.88528049680E+01 0.89619776949E+01 0.90521106873E+01 0.91178875420E+01 0.91571683543E+01
 0.81905205910E+01 0.82000895987E+01 0.82257268668E+01 0.82592923794E+01 0.82902521167E+01
 0.83086692032E+01 0.83072336041E+01 0.82818870313E+01 0.82316710399E+01 0.81588500690E+01
 0.80697129811E+01 0.79752768958E+01 0.78905102757E+01 0.78313222781E+01 0.78100405515E+01
 0.78313222781E+01 0.78905102757E+01 0.79752768958E+01 0.80697129811E+01 0.81588500690E+01
 0.82316710399E+01 0.82818870313E+01 0.83072336041E+01 0.83086692032E+01 0.82902521167E+01
 0.82592923794E+01 0.82257268668E+01 0.82000895987E+01 0.77648492634E+01 0.77823711597E+01
 0.78313222781E+01 0.79016413004E+01 0.79790277170E+01 0.80480700793E+01 0.80954292287E+01
 0.81122426322E+01 0.80954292287E+01 0.80480700793E+01 0.79790277170E+01 0.79016413004E+01
 0.78313222781E+01 0.77823711597E+01 0.77648492634E+01 0.77823711597E+01 0.78313222781E+01
 0.79016413004E+01 0.79790277170E+01 0.80480700793E+01 0.80954292287E+01 0.81122426322E+01
 0.80954292287E+01 0.80480700793E+01 0.79790277170E+01 0.79016413004E+01 0.78313222781E+01
 0.77823711597E+01 0.76379400688E+01 0.76577213182E+01 0.77133239818E+01 0.77941995588E+01
 0.78850015020E+01 0.79686928807E+01 0.80300663155E+01 0.80587591054E+01 0.80511122975E+01
 0.80106742485E+01 0.79473622084E+01 0.78753523959E+01 0.78100405515E+01 0.77648492634E+01
 0.77487437594E+01 0.77648492634E+01 0.78100405515E+01 0.78753523959E+01 0.79473622084E+01
 0.80106742485E+01 0.80511122975E+01 0.80587591054E+01 0.80300663155E+01 0.79686928807E+01
 0.78850015020E+01 0.77941995588E+01 0.77133239818E+01 0.76577213182E+01 0.77648492634E+01
 0.77823711597E+01 0.78313222781E+01 0.79016413004E+01 0.79790277170E+01 0.80480700793E+01
 0.80954292287E+01 0.81122426322E+01 0.80954292287E+01 0.80480700793E+01 0.79790277170E+01
 0.79016413004E+01 0.78313222781E+01 0.77823711597E+01 0.77648492634E+01 0.77823711597E+01
 0.78313222781E+01 0.79016413004E+01 0.79790277170E+01 0.80480700793E+01 0.80954292287E+01
 0.81122426322E+01 0.80954292287E+01 0.80480700793E+01 0.79790277170E+01 0.79016413004E+01
 0.78313222781E+01 0.77823711597E+01 0.81905205910E+01 0.82000895987E+01 0.82257268668E+01
 0.82592923794E+01 0.82902521167E+01 0.83086692032E+01 0.83072336041E+01 0.82818870313E+01
 0.82316710399E+01 0.81588500690E+01 0.80697129811E+01 0.79752768958E+01 0.78905102757E+01
 0.78313222781E+01 0.78100405515E+01 0.78313222781E+01 0.78905102757E+01 0.79752768958E+01
 0.80697129811E+01 0.81588500690E+01 0.82316710399E+01 0.82818870313E+01 0.83072336041E+01
 0.83086692032E+01 0.82902521167E+01 0.82592923794E+01 0.82257268668E+01 0.82000895987E+01
 0.91701248852E+01 0.91571683543E+01 0.91178875420E+01 0.90521106873E+01 0.89619776949E+01
 0.88528049680E+01 0.87316144099E+01 0.86043567003E+01 0.84740891774E+01 0.83417384186E+01
 0.82092280608E+01 0.80829919924E+01 0.79752768958E+01 0.79016413004E+01 0.78753523959E+01
 0.79016413004E+01 0.79752768958E+01 0.80829919924E+01 0.82092280608E+01 0.83417384186E+01
 0.84740891774E+01 0.86043567003E+01 0.87316144099E+01 0.88528049680E+01 0.89619776949E+01
 0.90521106873E+01 0.91178875420E+01 0.91571683543E+01 0.11410499862E+02 0.11332884036E+02
 0.11110071316E+02 0.10771375887E+02 0.10361348160E+02 0.99303261760E+01 0.95216068397E+01
 0.91614142108E+01 0.88568992714E+01 0.86021645994E+01 0.83878510840E+01 0.82092280608E+01
 0.80697129811E+01 0.79790277170E+01 0.79473622084E+01 0.79790277170E+01 0.80697129811E+01
 0.82092280608E+01 0.83878510840E+01 0.86021645994E+01 0.88568992714E+01 0.91614142108E+01
 0.95216068397E+01 0.99303261760E+01 0.10361348160E+02 0.10771375887E+02 0.11110071316E+02
 0.11332884036E+02 0.16303833702E+02 0.16055462412E+02 0.15360340384E+02 0.14348603296E+02
 0.13173736699E+02 0.11996390826E+02 0.10947690782E+02 0.10094520645E+02 0.94419523629E+01
 0.89581239022E+01 0.86021645994E+01 0.83417384186E+01 0.81588500690E+01 0.80480700793E+01
 0.80106742485E+01 0.80480700793E+01 0.81588500690E+01 0.83417384186E+01 0.86021645994E+01
 0.89581239022E+01 0.94419523629E+01 0.10094520645E+02 0.10947690782E+02 0.11996390826E+02
 0.13173736699E+02 0.14348603296E+02 0.15360340384E+02 0.16055462412E+02 0.26811117456E+02
 0.26136523274E+02 0.24243733588E+02 0.21519367947E+02 0.18522464486E+02 0.15753395578E+02
 0.13421781805E+02 0.11615469486E+02 0.10322599464E+02 0.94419523629E+01 0.88568992714E+01
 0.84740891774E+01 0.82316710399E+01 0.80954292287E+01 0.80511122975E+01 0.80954292287E+01
 0.82316710399E+01 0.84740891774E+01 0.88568992714E+01 0.94419523629E+01 0.10322599464E+02
 0.11615469486E+02 0.13421781805E+02 0.15753395578E+02 0.18522464486E+02 0.21519367947E+02
 0.24243733588E+02 0.26136523274E+02 0.47232788617E+02 0.45783532605E+02 0.41653923022E+02
 0.35557204717E+02 0.28691211566E+02 0.22382346800E+02 0.17480503131E+02 0.13993908387E+02
 0.11615469486E+02 0.10094520645E+02 0.91614142108E+01 0.86043567003E+01 0.82818870313E+01
 0.81122426322E+01 0.80587591054E+01 0.81122426322E+01 0.82818870313E+01 0.86043567003E+01
 0.91614142108E+01 0.10094520645E+02 0.11615469486E+02 0.13993908387E+02 0.17480503131E+02
 0.22382346800E+02 0.28691211566E+02 0.35557204717E+02 0.41653923022E+02 0.45783532605E+02
 0.80377063900E+02 0.77842834764E+02 0.70488076500E+02 0.59287547124E+02 0.46203589805E+02
 0.33768422523E+02 0.23998680623E+02 0.17480503131E+02 0.13421781805E+02 0.10947690782E+02
 0.95216068397E+01 0.87316144099E+01 0.83072336041E+01 0.80954292287E+01 0.80300663155E+01
 0.80954292287E+01 0.83072336041E+01 0.87316144099E+01 0.95216068397E+01 0.10947690782E+02
 0.13421781805E+02 0.17480503131E+02 0.23998680623E+02 0.33768422523E+02 0.46203589805E+02
 0.59287547124E+02 0.70488076500E+02 0.77842834764E+02 0.12408975124E+03 0.12043797341E+03
 0.10957696359E+03 0.92382407880E+02 0.71419171289E+02 0.50657619581E+02 0.33768422523E+02
 0.22382346800E+02 0.15753395578E+02 0.11996390826E+02 0.99303261760E+01 0.88528049680E+01
 0.83086692032E+01 0.80480700793E+01 0.79686928807E+01 0.80480700793E+01 0.83086692032E+01
 0.88528049680E+01 0.99303261760E+01 0.11996390826E+02 0.15753395578E+02 0.22382346800E+02
 0.33768422523E+02 0.50657619581E+02 0.71419171289E+02 0.92382407880E+02 0.10957696359E+03
 0.12043797341E+03 0.16990696558E+03 0.16559100235E+03 0.15225227180E+03 0.12993488052E+03
 0.10121758083E+03 0.71419171289E+02 0.46203589805E+02 0.28691211566E+02 0.18522464486E+02
 0.13173736699E+02 0.10361348160E+02 0.89619776949E+01 0.82902521167E+01 0.79790277170E+01
 0.78850015020E+01 0.79790277170E+01 0.82902521167E+01 0.89619776949E+01 0.10361348160E+02
 0.13173736699E+02 0.18522464486E+02 0.28691211566E+02 0.46203589805E+02 0.71419171289E+02
 0.10121758083E+03 0.12993488052E+03 0.15225227180E+03 0.16559100235E+03 0.20682501086E+03
 0.20270071642E+03 0.18906853108E+03 0.16424079991E+03 0.12993488052E+03 0.92382407880E+02
 0.59287547124E+02 0.35557204717E+02 0.21519367947E+02 0.14348603296E+02 0.10771375887E+02
 0.90521106873E+01 0.82592923794E+01 0.79016413004E+01 0.77941995588E+01 0.79016413004E+01
 0.82592923794E+01 0.90521106873E+01 0.10771375887E+02 0.14348603296E+02 0.21519367947E+02
 0.35557204717E+02 0.59287547124E+02 0.92382407880E+02 0.12993488052E+03 0.16424079991E+03
 0.18906853108E+03 0.20270071642E+03 0.22835694397E+03 0.22521569918E+03 0.21344679536E+03
 0.18906853108E+03 0.15225227180E+03 0.10957696359E+03 0.70488076500E+02 0.41653923022E+02
 0.24243733588E+02 0.15360340384E+02 0.11110071316E+02 0.91178875420E+01 0.82257268668E+01
 0.78313222781E+01 0.77133239818E+01 0.78313222781E+01 0.82257268668E+01 0.91178875420E+01
 0.11110071316E+02 0.15360340384E+02 0.24243733588E+02 0.41653923022E+02 0.70488076500E+02
 0.10957696359E+03 0.15225227180E+03 0.18906853108E+03 0.21344679536E+03 0.22521569918E+03
 0.23647118211E+03 0.23447524736E+03 0.22521569918E+03 0.20270071642E+03 0.16559100235E+03
 0.12043797341E+03 0.77842834764E+02 0.45783532605E+02 0.26136523274E+02 0.16055462412E+02
 0.11332884036E+02 0.91571683543E+01 0.82000895987E+01 0.77823711597E+01 0.76577213182E+01
 0.77823711597E+01 0.82000895987E+01 0.91571683543E+01 0.11332884036E+02 0.16055462412E+02
 0.26136523274E+02 0.45783532605E+02 0.77842834764E+02 0.12043797341E+03 0.16559100235E+03
 0.20270071642E+03 0.22521569918E+03 0.23447524736E+03 0.23114687647E+03 0.22835694397E+03
 0.21735181876E+03 0.19352141048E+03 0.15656804322E+03 0.11306915431E+03 0.72840078976E+02
 0.42965086334E+02 0.24837029283E+02 0.15573265142E+02 0.11174440495E+02 0.91242450669E+01
 0.82117069576E+01 0.78100405515E+01 0.76899739718E+01 0.78100405515E+01 0.82117069576E+01
 0.91242450669E+01 0.11174440495E+02 0.15573265142E+02 0.24837029283E+02 0.42965086334E+02
 0.72840078976E+02 0.11306915431E+03 0.15656804322E+03 0.19352141048E+03 0.21735181876E+03
 0.22835694397E+03 0.22835694397E+03 0.22521569918E+03 0.21344679536E+03 0.18906853108E+03
 0.15225227180E+03 0.10957696359E+03 0.70488076500E+02 0.41653923022E+02 0.24243733588E+02
 0.15360340384E+02 0.11110071316E+02 0.91178875420E+01 0.82257268668E+01 0.78313222781E+01
 0.77133239818E+01 0.78313222781E+01 0.82257268668E+01 0.91178875420E+01 0.11110071316E+02
 0.15360340384E+02 0.24243733588E+02 0.41653923022E+02 0.70488076500E+02 0.10957696359E+03
 0.15225227180E+03 0.18906853108E+03 0.21344679536E+03 0.22521569918E+03 0.21735181876E+03
 0.21344679536E+03 0.20011592910E+03 0.17493665396E+03 0.13918489027E+03 0.99317303874E+02