   2   2   0   0
  0.1591696E+02  0.3169300E-09  0.3169300E-09  0.3169300E-09  0.5000000E-15
  1.000000000000000E-004
  CAR 
 Mo                                      
     67.70196320    -54.50732808  301     12.38452845      1.00000000
    -54.507  0.0000E+00  0.0000E+00
    -54.100  0.0000E+00  0.0000E+00
    -53.693  0.0000E+00  0.0000E+00
    -53.285  0.0000E+00  0.0000E+00
    -52.878  0.0000E+00  0.0000E+00
    -52.471  0.0000E+00  0.0000E+00
    -52.063  0.0000E+00  0.0000E+00
    -51.656  0.0000E+00  0.0000E+00
    -51.248  0.0000E+00  0.0000E+00
    -50.841  0.0000E+00  0.0000E+00
    -50.434  0.0000E+00  0.0000E+00
    -50.026  0.0000E+00  0.0000E+00
    -49.619  0.0000E+00  0.0000E+00
    -49.212  0.7832E-15  0.3191E-15
    -48.804  0.1397E+01  0.5690E+00
    -48.397  0.8177E+01  0.4000E+01
    -47.989  0.0000E+00  0.4000E+01
    -47.582  0.0000E+00  0.4000E+01
    -47.175  0.0000E+00  0.4000E+01
    -46.767  0.0000E+00  0.4000E+01
    -46.360  0.0000E+00  0.4000E+01
    -45.953  0.0000E+00  0.4000E+01
    -45.545  0.0000E+00  0.4000E+01
    -45.138  0.0000E+00  0.4000E+01
    -44.731  0.0000E+00  0.4000E+01
    -44.323  0.0000E+00  0.4000E+01
    -43.916  0.0000E+00  0.4000E+01
    -43.508  0.0000E+00  0.4000E+01
    -43.101  0.0000E+00  0.4000E+01
    -42.694  0.0000E+00  0.4000E+01
    -42.286  0.0000E+00  0.4000E+01
    -41.879  0.0000E+00  0.4000E+01
    -41.472  0.0000E+00  0.4000E+01
    -41.064  0.0000E+00  0.4000E+01
    -40.657  0.0000E+00  0.4000E+01
    -40.250  0.0000E+00  0.4000E+01
    -39.842  0.0000E+00  0.4000E+01
    -39.435  0.0000E+00  0.4000E+01
    -39.027  0.0000E+00  0.4000E+01
    -38.620  0.0000E+00  0.4000E+01
    -38.213  0.0000E+00  0.4000E+01
    -37.805  0.0000E+00  0.4000E+01
    -37.398  0.0000E+00  0.4000E+01
    -36.991  0.0000E+00  0.4000E+01
    -36.583  0.0000E+00  0.4000E+01
    -36.176  0.0000E+00  0.4000E+01
    -35.769  0.0000E+00  0.4000E+01
    -35.361  0.0000E+00  0.4000E+01
    -34.954  0.0000E+00  0.4000E+01
    -34.546  0.0000E+00  0.4000E+01
    -34.139  0.0000E+00  0.4000E+01
    -33.732  0.0000E+00  0.4000E+01
    -33.324  0.0000E+00  0.4000E+01
    -32.917  0.0000E+00  0.4000E+01
    -32.510  0.0000E+00  0.4000E+01
    -32.102  0.0000E+00  0.4000E+01
    -31.695  0.0000E+00  0.4000E+01
    -31.288  0.0000E+00  0.4000E+01
    -30.880  0.0000E+00  0.4000E+01
    -30.473  0.0000E+00  0.4000E+01
    -30.065  0.0000E+00  0.4000E+01
    -29.658  0.0000E+00  0.4000E+01
    -29.251  0.0000E+00  0.4000E+01
    -28.843  0.0000E+00  0.4000E+01
    -28.436  0.0000E+00  0.4000E+01
    -28.029  0.0000E+00  0.4000E+01
    -27.621  0.0000E+00  0.4000E+01
    -27.214  0.0000E+00  0.4000E+01
    -26.807  0.0000E+00  0.4000E+01
    -26.399  0.0000E+00  0.4000E+01
    -25.992  0.0000E+00  0.4000E+01
    -25.584  0.0000E+00  0.4000E+01
    -25.177  0.0000E+00  0.4000E+01
    -24.770  0.0000E+00  0.4000E+01
    -24.362  0.0000E+00  0.4000E+01
    -23.955  0.0000E+00  0.4000E+01
    -23.548  0.2891E+00  0.4118E+01
    -23.140  0.7656E+01  0.7291E+01
    -22.733  0.7644E+01  0.1052E+02
    -22.326  0.1139E+02  0.1532E+02
    -21.918  0.1198E+01  0.1600E+02
    -21.511  0.0000E+00  0.1600E+02
    -21.103  0.0000E+00  0.1600E+02
    -20.696  0.0000E+00  0.1600E+02
    -20.289  0.0000E+00  0.1600E+02
    -19.881  0.0000E+00  0.1600E+02
    -19.474  0.0000E+00  0.1600E+02
    -19.067  0.0000E+00  0.1600E+02
    -18.659  0.0000E+00  0.1600E+02
    -18.252  0.0000E+00  0.1600E+02
    -17.845  0.0000E+00  0.1600E+02
    -17.437  0.0000E+00  0.1600E+02
    -17.030  0.0000E+00  0.1600E+02
    -16.622  0.0000E+00  0.1600E+02
    -16.215  0.0000E+00  0.1600E+02
    -15.808  0.0000E+00  0.1600E+02
    -15.400  0.0000E+00  0.1600E+02
    -14.993  0.0000E+00  0.1600E+02
    -14.586  0.0000E+00  0.1600E+02
    -14.178  0.0000E+00  0.1600E+02
    -13.771  0.0000E+00  0.1600E+02
    -13.364  0.0000E+00  0.1600E+02
    -12.956  0.0000E+00  0.1600E+02
    -12.549  0.0000E+00  0.1600E+02
    -12.141  0.0000E+00  0.1600E+02
    -11.734  0.0000E+00  0.1600E+02
    -11.327  0.0000E+00  0.1600E+02
    -10.919  0.0000E+00  0.1600E+02
    -10.512  0.0000E+00  0.1600E+02
    -10.105  0.0000E+00  0.1600E+02
     -9.697  0.0000E+00  0.1600E+02
     -9.290  0.0000E+00  0.1600E+02
     -8.883  0.0000E+00  0.1600E+02
     -8.475  0.0000E+00  0.1600E+02
     -8.068  0.0000E+00  0.1600E+02
     -7.660  0.0000E+00  0.1600E+02
     -7.253  0.0000E+00  0.1600E+02
     -6.846  0.0000E+00  0.1600E+02
     -6.438  0.0000E+00  0.1600E+02
     -6.031  0.0000E+00  0.1600E+02
     -5.624  0.0000E+00  0.1600E+02
     -5.216  0.0000E+00  0.1600E+02
     -4.809  0.0000E+00  0.1600E+02
     -4.402  0.0000E+00  0.1600E+02
     -3.994  0.0000E+00  0.1600E+02
     -3.587  0.0000E+00  0.1600E+02
     -3.179  0.0000E+00  0.1600E+02
     -2.772  0.0000E+00  0.1600E+02
     -2.365  0.0000E+00  0.1600E+02
     -1.957  0.0000E+00  0.1600E+02
     -1.550  0.0000E+00  0.1600E+02
     -1.143  0.0000E+00  0.1600E+02
     -0.735  0.0000E+00  0.1600E+02
     -0.328  0.0000E+00  0.1600E+02
      0.079  0.0000E+00  0.1600E+02
      0.487  0.0000E+00  0.1600E+02
      0.894  0.0000E+00  0.1600E+02
      1.302  0.0000E+00  0.1600E+02
      1.709  0.0000E+00  0.1600E+02
      2.116  0.0000E+00  0.1600E+02
      2.524  0.0000E+00  0.1600E+02
      2.931  0.0000E+00  0.1600E+02
      3.338  0.0000E+00  0.1600E+02
      3.746  0.0000E+00  0.1600E+02
      4.153  0.0000E+00  0.1600E+02
      4.560  0.0000E+00  0.1600E+02
      4.968  0.7861E-08  0.1600E+02
      5.375  0.2227E-01  0.1601E+02
      5.783  0.7296E-01  0.1604E+02
      6.190  0.1416E+00  0.1610E+02
      6.597  0.2153E+00  0.1618E+02
      7.005  0.2309E+00  0.1629E+02
      7.412  0.1162E+01  0.1677E+02
      7.819  0.1987E+01  0.1759E+02
      8.227  0.2575E+01  0.1868E+02
      8.634  0.2876E+01  0.1992E+02
      9.042  0.1278E+01  0.2053E+02
      9.449  0.3521E+01  0.2201E+02
      9.856  0.2829E+01  0.2324E+02
     10.264  0.2118E+01  0.2414E+02
     10.671  0.3006E+01  0.2541E+02
     11.078  0.2720E+01  0.2656E+02
     11.486  0.1229E+01  0.2709E+02
     11.893  0.1125E+01  0.2756E+02
     12.300  0.8688E+00  0.2794E+02
     12.708  0.1731E+01  0.2865E+02
     13.115  0.1989E+01  0.2947E+02
     13.523  0.2402E+01  0.3048E+02
     13.930  0.2553E+01  0.3161E+02
     14.337  0.3029E+01  0.3290E+02
     14.745  0.4255E+01  0.3474E+02
     15.152  0.2032E+01  0.3562E+02
     15.559  0.1551E+01  0.3628E+02
     15.967  0.1305E+01  0.3683E+02
     16.374  0.1192E+01  0.3732E+02
     16.781  0.6515E+00  0.3761E+02
     17.189  0.5322E+00  0.3784E+02
     17.596  0.6309E+00  0.3810E+02
     18.004  0.5079E+00  0.3831E+02
     18.411  0.5215E+00  0.3853E+02
     18.818  0.5026E+00  0.3874E+02
     19.226  0.6454E+00  0.3900E+02
     19.633  0.2734E+00  0.3913E+02
     20.040  0.2996E+00  0.3925E+02
     20.448  0.7862E+00  0.3957E+02
     20.855  0.1598E+00  0.3964E+02
     21.262  0.4241E+00  0.3981E+02
     21.670  0.2892E+00  0.3995E+02
     22.077  0.1645E+00  0.4002E+02
     22.485  0.5682E+00  0.4026E+02
     22.892  0.9039E+00  0.4067E+02
     23.299  0.9742E+00  0.4109E+02
     23.707  0.1164E+01  0.4158E+02
     24.114  0.9287E+00  0.4199E+02
     24.521  0.1070E+01  0.4244E+02
     24.929  0.1398E+01  0.4301E+02
     25.336  0.1732E+01  0.4375E+02
     25.743  0.1667E+01  0.4445E+02
     26.151  0.1389E+01  0.4503E+02
     26.558  0.1076E+01  0.4550E+02
     26.966  0.1365E+01  0.4605E+02
     27.373  0.1366E+01  0.4664E+02
     27.780  0.1475E+01  0.4726E+02
     28.188  0.8849E+00  0.4762E+02
     28.595  0.1855E+01  0.4840E+02
     29.002  0.1907E+01  0.4918E+02
     29.410  0.1129E+01  0.4967E+02
     29.817  0.1369E+01  0.5025E+02
     30.224  0.1030E+01  0.5069E+02
     30.632  0.8070E+00  0.5103E+02
     31.039  0.9263E+00  0.5142E+02
     31.447  0.1212E+01  0.5191E+02
     31.854  0.1900E+01  0.5276E+02
     32.261  0.1414E+01  0.5339E+02
     32.669  0.1153E+01  0.5389E+02
     33.076  0.9019E+00  0.5426E+02
     33.483  0.1234E+01  0.5478E+02
     33.891  0.7088E+00  0.5507E+02
     34.298  0.8964E+00  0.5544E+02
     34.705  0.1495E+01  0.5606E+02
     35.113  0.7092E+00  0.5636E+02
     35.520  0.9364E+00  0.5677E+02
     35.928  0.1656E+01  0.5746E+02
     36.335  0.1244E+01  0.5797E+02
     36.742  0.1630E+01  0.5864E+02
     37.150  0.1543E+01  0.5929E+02
     37.557  0.1360E+01  0.5987E+02
     37.964  0.1001E+01  0.6030E+02
     38.372  0.1286E+01  0.6084E+02
     38.779  0.1312E+01  0.6139E+02
     39.186  0.1324E+01  0.6194E+02
     39.594  0.1825E+01  0.6271E+02
     40.001  0.1841E+01  0.6348E+02
     40.409  0.1358E+01  0.6406E+02
     40.816  0.1312E+01  0.6463E+02
     41.223  0.1589E+01  0.6531E+02
     41.631  0.1801E+01  0.6606E+02
     42.038  0.1865E+01  0.6685E+02
     42.445  0.1510E+01  0.6751E+02
     42.853  0.1259E+01  0.6803E+02
     43.260  0.9990E+00  0.6847E+02
     43.667  0.1533E+01  0.6913E+02
     44.075  0.1867E+01  0.6990E+02
     44.482  0.1598E+01  0.7058E+02
     44.890  0.2212E+01  0.7150E+02
     45.297  0.1519E+01  0.7214E+02
     45.704  0.9550E+00  0.7256E+02
     46.112  0.1357E+01  0.7315E+02
     46.519  0.1259E+01  0.7366E+02
     46.926  0.1235E+01  0.7422E+02
     47.334  0.1380E+01  0.7480E+02
     47.741  0.2430E+01  0.7584E+02
     48.148  0.1745E+01  0.7657E+02
     48.556  0.2079E+01  0.7744E+02
     48.963  0.1800E+01  0.7820E+02
     49.371  0.1531E+01  0.7886E+02
     49.778  0.1716E+01  0.7958E+02
     50.185  0.1311E+01  0.8016E+02
     50.593  0.1238E+01  0.8070E+02
     51.000  0.2134E+01  0.8162E+02
     51.407  0.1706E+01  0.8232E+02
     51.815  0.1755E+01  0.8304E+02
     52.222  0.2362E+01  0.8402E+02
     52.629  0.1512E+01  0.8465E+02
     53.037  0.1799E+01  0.8543E+02
     53.444  0.1507E+01  0.8604E+02
     53.852  0.1691E+01  0.8676E+02
     54.259  0.1101E+01  0.8726E+02
     54.666  0.1304E+01  0.8780E+02
     55.074  0.1313E+01  0.8838E+02
     55.481  0.1525E+01  0.8902E+02
     55.888  0.1392E+01  0.8960E+02
     56.296  0.9694E+00  0.9004E+02
     56.703  0.1100E+01  0.9050E+02
     57.110  0.1712E+01  0.9122E+02
     57.518  0.2036E+01  0.9207E+02
     57.925  0.2105E+01  0.9295E+02
     58.333  0.1335E+01  0.9353E+02
     58.740  0.1755E+01  0.9426E+02
     59.147  0.1438E+01  0.9488E+02
     59.555  0.4713E+00  0.9511E+02
     59.962  0.6679E+00  0.9539E+02
     60.369  0.5573E+00  0.9562E+02
     60.777  0.4080E+00  0.9579E+02
     61.184  0.1810E+00  0.9586E+02
     61.591  0.2926E+00  0.9598E+02
     61.999  0.1705E-01  0.9599E+02
     62.406  0.3409E-01  0.9600E+02
     62.814  0.0000E+00  0.9600E+02
     63.221  0.0000E+00  0.9600E+02
     63.628  0.0000E+00  0.9600E+02
     64.036  0.0000E+00  0.9600E+02
     64.443  0.0000E+00  0.9600E+02
     64.850  0.0000E+00  0.9600E+02
     65.258  0.0000E+00  0.9600E+02
     65.665  0.0000E+00  0.9600E+02
     66.073  0.0000E+00  0.9600E+02
     66.480  0.0000E+00  0.9600E+02
     66.887  0.0000E+00  0.9600E+02
     67.295  0.0000E+00  0.9600E+02
     67.702  0.0000E+00  0.9600E+02
