    2    2    1    1
  0.1591696E+02  0.3169300E-09  0.3169300E-09  0.3169300E-09  0.5000000E-15
  1.000000000000000E-004
  CAR 
 Mo                                      
     28     84     48
 
  0.0000000E+00  0.0000000E+00  0.0000000E+00  0.5787037E-03
      1        -48.952360   1.000000
      2        -48.533018   1.000000
      3        -23.190278   1.000000
      4        -23.190278   1.000000
      5        -23.190278   1.000000
      6        -22.272472   1.000000
      7        -22.272472   1.000000
      8        -22.272472   1.000000
      9          5.128496   1.000000
     10          7.002560   1.000000
     11          7.002560   1.000000
     12         10.979449   1.000000
     13         10.979449   1.000000
     14         10.979449   1.000000
     15         13.933048   0.000000
     16         13.933048   0.000000
     17         16.186967   0.000000
     18         16.186967   0.000000
     19         16.186967   0.000000
     20         21.233620   0.000000
     21         21.233620   0.000000
     22         21.233620   0.000000
     23         27.109641   0.000000
     24         27.109641   0.000000
     25         27.109641   0.000000
     26         31.648220   0.000000
     27         32.772670   0.000000
     28         32.772670   0.000000
     29         35.604583   0.000000
     30         38.424076   0.000000
     31         38.424076   0.000000
     32         41.813961   0.000000
     33         41.813961   0.000000
     34         41.813961   0.000000
     35         48.101983   0.000000
     36         48.101983   0.000000
     37         48.101983   0.000000
     38         48.792944   0.000000
     39         48.792944   0.000000
     40         48.792944   0.000000
     41         52.131212   0.000000
     42         54.364100   0.000000
     43         54.364100   0.000000
     44         54.364100   0.000000
     45         56.935760   0.000000
     46         56.935760   0.000000
     47         56.935760   0.000000
     48         58.459255   0.000000
 
  0.8333333E-01 -0.7771482E-34  0.0000000E+00  0.3472222E-02
      1        -48.944129   1.000000
      2        -48.538067   1.000000
      3        -23.190064   1.000000
      4        -23.173201   1.000000
      5        -23.173201   1.000000
      6        -22.305907   1.000000
      7        -22.287474   1.000000
      8        -22.287474   1.000000
      9          5.280182   1.000000
     10          7.083387   1.000000
     11          7.133763   1.000000
     12         10.969356   1.000000
     13         10.969356   1.000000
     14         11.045562   1.000000
     15         13.734081   0.000000
     16         14.002462   0.000000
     17         15.763613   0.000000
     18         15.763613   0.000000
     19         16.060163   0.000000
     20         20.806689   0.000000
     21         21.825974   0.000000
     22         21.825974   0.000000
     23         27.273390   0.000000
     24         27.363302   0.000000
     25         27.363302   0.000000
     26         31.852513   0.000000
     27         32.690595   0.000000
     28         32.770538   0.000000
     29         35.814920   0.000000
     30         36.702319   0.000000
     31         38.701217   0.000000
     32         41.620351   0.000000
     33         41.620351   0.000000
     34         43.210968   0.000000
     35         47.671193   0.000000
     36         47.671193   0.000000
     37         47.795351   0.000000
     38         48.318334   0.000000
     39         48.318334   0.000000
     40         48.909899   0.000000
     41         52.599329   0.000000
     42         53.244327   0.000000
     43         53.244327   0.000000
     44         54.560089   0.000000
     45         56.876240   0.000000
     46         58.209028   0.000000
     47         58.232063   0.000000
     48         58.232063   0.000000
 
  0.1666667E+00  0.3956292E-32  0.0000000E+00  0.3472222E-02
      1        -48.920398   1.000000
      2        -48.556099   1.000000
      3        -23.189327   1.000000
      4        -23.125974   1.000000
      5        -23.125974   1.000000
      6        -22.399717   1.000000
      7        -22.331854   1.000000
      8        -22.331854   1.000000
      9          5.717744   1.000000
     10          7.321861   1.000000
     11          7.497291   1.000000
     12         10.954774   1.000000
     13         10.954774   1.000000
     14         11.241765   1.000000
     15         13.186919   0.000000
     16         14.201516   0.000000
     17         14.856670   0.000000
     18         14.856670   0.000000
     19         15.699981   0.000000
     20         19.755947   0.000000
     21         23.228564   0.000000
     22         23.228564   0.000000
     23         27.714865   0.000000
     24         28.094743   0.000000
     25         28.094743   0.000000
     26         31.067771   0.000000
     27         32.450087   0.000000
     28         34.005496   0.000000
     29         34.090702   0.000000
     30         36.416810   0.000000
     31         39.529721   0.000000
     32         40.929464   0.000000
     33         40.929464   0.000000
     34         44.940634   0.000000
     35         46.832610   0.000000
     36         46.832610   0.000000
     37         46.897803   0.000000
     38         46.897803   0.000000
     39         46.948139   0.000000
     40         49.135544   0.000000
     41         51.837453   0.000000
     42         51.837453   0.000000
     43         53.350790   0.000000
     44         55.124912   0.000000
     45         56.497084   0.000000
     46         58.185863   0.000000
     47         60.078995   0.000000
     48         60.078995   0.000000
 
  0.2500000E+00  0.6960065E-32  0.0000000E+00  0.3472222E-02
      1        -48.883214   1.000000
      2        -48.585411   1.000000
      3        -23.178371   1.000000
      4        -23.051202   1.000000
      5        -23.051202   1.000000
      6        -22.536900   1.000000
      7        -22.402634   1.000000
      8        -22.402634   1.000000
      9          6.388318   1.000000
     10          7.714597   1.000000
     11          8.007575   1.000000
     12         10.976365   1.000000
     13         10.976365   1.000000
     14         11.563391   1.000000
     15         12.405735   0.274318
     16         13.878855   0.000000
     17         13.878855   0.000000
     18         14.499707   0.000000
     19         15.163597   0.000000
     20         18.476226   0.000000
     21         25.012975   0.000000
     22         25.012975   0.000000
     23         28.325645   0.000000
     24         29.208522   0.000000
     25         29.208522   0.000000
     26         29.775654   0.000000
     27         31.463173   0.000000
     28         32.071359   0.000000
     29         36.225743   0.000000
     30         37.347840   0.000000
     31         39.640927   0.000000
     32         39.640927   0.000000
     33         40.892193   0.000000
     34         44.586619   0.000000
     35         44.586619   0.000000
     36         45.740936   0.000000
     37         46.122132   0.000000
     38         46.508472   0.000000
     39         46.508472   0.000000
     40         49.283973   0.000000
     41         50.746873   0.000000
     42         50.746873   0.000000
     43         52.504227   0.000000
     44         55.368844   0.000000
     45         56.064748   0.000000
     46         60.125315   0.000000
     47         61.196841   0.000000
     48         61.196841   0.000000
 
  0.3333333E+00  0.4964740E-32  0.0000000E+00  0.3472222E-02
      1        -48.835414   1.000000
      2        -48.624511   1.000000
      3        -23.145462   1.000000
      4        -22.954063   1.000000
      5        -22.954063   1.000000
      6        -22.694333   1.000000
      7        -22.495176   1.000000
      8        -22.495176   1.000000
      9          7.198493   1.000000
     10          8.254017   1.000000
     11          8.505717   1.000000
     12         11.082281   1.000000
     13         11.082281   1.000000
     14         11.509645   1.000000
     15         12.001630   1.000000
     16         12.994547   0.000000
     17         12.994547   0.000000
     18         14.520606   0.000000
     19         14.850048   0.000000
     20         17.254221   0.000000
     21         26.974775   0.000000
     22         26.974775   0.000000
     23         28.523023   0.000000
     24         29.007689   0.000000
     25         29.381131   0.000000
     26         30.486284   0.000000
     27         30.486284   0.000000
     28         31.581045   0.000000
     29         38.069069   0.000000
     30         38.069069   0.000000
     31         38.529856   0.000000
     32         38.738183   0.000000
     33         42.067105   0.000000
     34         42.067105   0.000000
     35         42.748527   0.000000
     36         44.337560   0.000000
     37         46.644062   0.000000
     38         46.644062   0.000000
     39         46.857439   0.000000
     40         49.248858   0.000000
     41         49.759633   0.000000
     42         49.759633   0.000000
     43         50.407488   0.000000
     44         53.205549   0.000000
     45         57.374043   0.000000
     46         61.434214   0.000000
     47         61.527253   0.000000
     48         61.527253   0.000000
 
  0.4166667E+00 -0.1797553E-32  0.0000000E+00  0.3472222E-02
      1        -48.781631   1.000000
      2        -48.672415   1.000000
      3        -23.081672   1.000000
      4        -22.848801   1.000000
      5        -22.841884   1.000000
      6        -22.841884   1.000000
      7        -22.604337   1.000000
      8        -22.604337   1.000000
      9          8.001357   1.000000
     10          8.763411   1.000000
     11          8.927495   1.000000
     12         10.591341   1.000000
     13         11.314057   1.000000
     14         11.314057   1.000000
     15         12.262384   0.999725
     16         12.262384   0.999725
     17         12.541683   0.000004
     18         13.835980   0.000000
     19         15.215256   0.000000
     20         16.283004   0.000000
     21         27.639282   0.000000
     22         27.976628   0.000000
     23         28.958247   0.000000
     24         28.958247   0.000000
     25         29.700377   0.000000
     26         31.006899   0.000000
     27         31.306185   0.000000
     28         31.306185   0.000000
     29         37.045831   0.000000
     30         37.045831   0.000000
     31         39.637570   0.000000
     32         39.637570   0.000000
     33         39.881520   0.000000
     34         41.460145   0.000000
     35         42.842984   0.000000
     36         45.031278   0.000000
     37         46.599335   0.000000
     38         47.149542   0.000000
     39         47.149542   0.000000
     40         48.633500   0.000000
     41         48.792932   0.000000
     42         48.792932   0.000000
     43         49.020702   0.000000
     44         50.460412   0.000000
     45         59.022587   0.000000
     46         61.439711   0.000000
     47         62.146995   0.000000
     48         62.146995   0.000000
 
  0.5000000E+00  0.1392013E-31  0.0000000E+00  0.1736111E-02
      1        -48.725747   1.000000
      2        -48.725747   1.000000
      3        -22.981474   1.000000
      4        -22.981474   1.000000
      5        -22.722496   1.000000
      6        -22.722496   1.000000
      7        -22.722496   1.000000
      8        -22.722496   1.000000
      9          8.590104   1.000000
     10          8.590104   1.000000
     11          9.716199   1.000000
     12          9.716199   1.000000
     13         11.702457   1.000000
     14         11.702457   1.000000
     15         11.702457   1.000000
     16         11.702457   1.000000
     17         13.162929   0.000000
     18         13.162929   0.000000
     19         15.639570   0.000000
     20         15.639570   0.000000
     21         27.397997   0.000000
     22         27.397997   0.000000
     23         30.373510   0.000000
     24         30.373510   0.000000
     25         30.663962   0.000000
     26         30.663962   0.000000
     27         30.663962   0.000000
     28         30.663962   0.000000
     29         37.692483   0.000000
     30         37.692483   0.000000
     31         37.692483   0.000000
     32         37.692483   0.000000
     33         41.338623   0.000000
     34         41.338623   0.000000
     35         44.245182   0.000000
     36         44.245182   0.000000
     37         47.650757   0.000000
     38         47.650757   0.000000
     39         47.897953   0.000000
     40         47.897953   0.000000
     41         47.897953   0.000000
     42         47.897953   0.000000
     43         48.676275   0.000000
     44         48.676275   0.000000
     45         60.953287   0.000000
     46         60.953287   0.000000
     47         61.840329   0.000000
     48         61.840329   0.000000
 
  0.8333333E-01  0.8333333E-01  0.0000000E+00  0.6944444E-02
      1        -48.936216   1.000000
      2        -48.543893   1.000000
      3        -23.217499   1.000000
      4        -23.157506   1.000000
      5        -23.131268   1.000000
      6        -22.367409   1.000000
      7        -22.301910   1.000000
      8        -22.273122   1.000000
      9          5.426940   1.000000
     10          7.183968   1.000000
     11          7.241049   1.000000
     12         10.813742   1.000000
     13         10.948018   1.000000
     14         11.259633   1.000000
     15         13.703287   0.000000
     16         13.938728   0.000000
     17         15.170035   0.000000
     18         15.365477   0.000000
     19         16.234200   0.000000
     20         21.122644   0.000000
     21         21.619600   0.000000
     22         22.279713   0.000000
     23         27.320922   0.000000
     24         27.613502   0.000000
     25         27.663545   0.000000
     26         32.113933   0.000000
     27         32.444442   0.000000
     28         32.902974   0.000000
     29         36.020278   0.000000
     30         36.422213   0.000000
     31         37.633639   0.000000
     32         41.368831   0.000000
     33         41.733619   0.000000
     34         44.419415   0.000000
     35         46.934850   0.000000
     36         47.049466   0.000000
     37         47.384502   0.000000
     38         48.014171   0.000000
     39         48.037469   0.000000
     40         49.688306   0.000000
     41         52.346973   0.000000
     42         52.617406   0.000000
     43         53.280165   0.000000
     44         54.735876   0.000000
     45         56.602630   0.000000
     46         58.354471   0.000000
     47         59.019464   0.000000
     48         59.052291   0.000000
 
  0.1666667E+00  0.8333333E-01  0.0000000E+00  0.1388889E-01
      1        -48.913005   1.000000
      2        -48.561306   1.000000
      3        -23.238455   1.000000
      4        -23.111853   1.000000
      5        -23.065192   1.000000
      6        -22.480623   1.000000
      7        -22.344383   1.000000
      8        -22.293418   1.000000
      9          5.848641   1.000000
     10          7.420397   1.000000
     11          7.597403   1.000000
     12         10.685702   1.000000
     13         10.903541   1.000000
     14         11.576206   1.000000
     15         13.280869   0.000000
     16         14.105565   0.000000
     17         14.251305   0.000000
     18         14.511548   0.000000
     19         16.085686   0.000000
     20         20.188429   0.000000
     21         22.782579   0.000000
     22         23.467635   0.000000
     23         27.644387   0.000000
     24         28.291266   0.000000
     25         28.336114   0.000000
     26         31.289362   0.000000
     27         32.261675   0.000000
     28         34.246226   0.000000
     29         34.272195   0.000000
     30         36.607594   0.000000
     31         37.872190   0.000000
     32         40.533010   0.000000
     33         41.523325   0.000000
     34         45.648440   0.000000
     35         45.969658   0.000000
     36         46.185317   0.000000
     37         46.669568   0.000000
     38         46.841530   0.000000
     39         47.633149   0.000000
     40         50.158271   0.000000
     41         51.131059   0.000000
     42         51.594929   0.000000
     43         54.314475   0.000000
     44         54.926227   0.000000
     45         56.226879   0.000000
     46         58.274810   0.000000
     47         60.227870   0.000000
     48         60.435536   0.000000
 
  0.2500000E+00  0.8333333E-01  0.0000000E+00  0.1388889E-01
      1        -48.876621   1.000000
      2        -48.589127   1.000000
      3        -23.241339   1.000000
      4        -23.039084   1.000000
      5        -22.980159   1.000000
      6        -22.626574   1.000000
      7        -22.412096   1.000000
      8        -22.348809   1.000000
      9          6.488864   1.000000
     10          7.793784   1.000000
     11          8.106651   1.000000
     12         10.636034   1.000000
     13         10.866603   1.000000
     14         11.976548   1.000000
     15         12.625082   0.000000
     16         13.315292   0.000000
     17         13.610738   0.000000
     18         14.420503   0.000000
     19         15.642226   0.000000
     20         18.850477   0.000000
     21         24.426981   0.000000
     22         25.098581   0.000000
     23         28.150667   0.000000
     24         28.970049   0.000000
     25         29.438963   0.000000
     26         30.064123   0.000000
     27         31.927741   0.000000
     28         32.119545   0.000000
     29         36.402892   0.000000
     30         37.494883   0.000000
     31         38.298554   0.000000
     32         39.126434   0.000000
     33         41.287435   0.000000
     34         44.116363   0.000000
     35         44.779339   0.000000
     36         45.227216   0.000000
     37         45.666950   0.000000
     38         46.898322   0.000000
     39         48.031486   0.000000
     40         49.449217   0.000000
     41         50.314282   0.000000
     42         51.321461   0.000000
     43         53.432074   0.000000
     44         55.320318   0.000000
     45         55.442608   0.000000
     46         59.007935   0.000000
     47         60.088434   0.000000
     48         61.269346   0.000000
 
  0.3333333E+00  0.8333333E-01  0.0000000E+00  0.1388889E-01
      1        -48.830504   1.000000
      2        -48.626889   1.000000
      3        -23.218570   1.000000
      4        -22.944939   1.000000
      5        -22.878632   1.000000
      6        -22.786396   1.000000
      7        -22.501377   1.000000
      8        -22.431796   1.000000
      9          7.250599   1.000000
     10          8.286363   1.000000
     11          8.605180   1.000000
     12         10.695024   1.000000
     13         10.787295   1.000000
     14         11.988910   1.000000
     15         12.464988   0.011431
     16         12.473782   0.005793
     17         12.851769   0.000000
     18         14.788773   0.000000
     19         15.034692   0.000000
     20         17.534506   0.000000
     21         26.048132   0.000000
     22         26.964801   0.000000
     23         28.453131   0.000000
     24         28.935486   0.000000
     25         29.070248   0.000000
     26         30.699746   0.000000
     27         31.504818   0.000000
     28         31.526450   0.000000
     29         37.527300   0.000000
     30         37.657554   0.000000
     31         38.512270   0.000000
     32         38.864932   0.000000
     33         41.922743   0.000000
     34         42.154454   0.000000
     35         42.455156   0.000000
     36         44.711497   0.000000
     37         45.357805   0.000000
     38         46.740642   0.000000
     39         48.421014   0.000000
     40         49.113174   0.000000
     41         49.556846   0.000000
     42         51.011375   0.000000
     43         51.237965   0.000000
     44         53.747648   0.000000
     45         56.143301   0.000000
     46         58.539705   0.000000
     47         61.303555   0.000000
     48         61.496485   0.000000
 
  0.4166667E+00  0.8333333E-01  0.0000000E+00  0.1388889E-01
      1        -48.778290   1.000000
      2        -48.672906   1.000000
      3        -23.162058   1.000000
      4        -22.939012   1.000000
      5        -22.836226   1.000000
      6        -22.765862   1.000000
      7        -22.606653   1.000000
      8        -22.534208   1.000000
      9          7.994368   1.000000
     10          8.699410   1.000000
     11          9.038295   1.000000
     12         10.386101   1.000000
     13         10.892314   1.000000
     14         11.767888   1.000000
     15         11.778203   1.000000
     16         12.311917   0.980000
     17         13.037042   0.000000
     18         14.358025   0.000000
     19         15.182070   0.000000
     20         16.438084   0.000000
     21         26.853249   0.000000
     22         27.534487   0.000000
     23         28.903915   0.000000
     24         29.170392   0.000000
     25         29.377860   0.000000
     26         31.121138   0.000000
     27         31.440533   0.000000
     28         31.841298   0.000000
     29         36.574593   0.000000
     30         37.014471   0.000000
     31         38.777860   0.000000
     32         39.673222   0.000000
     33         41.091343   0.000000
     34         41.449554   0.000000
     35         43.348780   0.000000
     36         43.591939   0.000000
     37         45.918853   0.000000
     38         47.186045   0.000000
     39         47.438465   0.000000
     40         48.724972   0.000000
     41         48.957252   0.000000
     42         50.018694   0.000000
     43         50.054295   0.000000
     44         51.888126   0.000000
     45         57.436230   0.000000
     46         58.762568   0.000000
     47         60.514638   0.000000
     48         61.007205   0.000000
 
  0.5000000E+00  0.8333333E-01  0.0000000E+00  0.6944444E-02
      1        -48.724427   1.000000
      2        -48.724427   1.000000
      3        -23.067748   1.000000
      4        -23.067748   1.000000
      5        -22.720773   1.000000
      6        -22.720773   1.000000
      7        -22.648394   1.000000
      8        -22.648394   1.000000
      9          8.545762   1.000000
     10          8.545762   1.000000
     11          9.701084   1.000000
     12          9.701084   1.000000
     13         11.250002   1.000000
     14         11.250002   1.000000
     15         11.957941   1.000000
     16         11.957941   1.000000
     17         13.677554   0.000000
     18         13.677554   0.000000
     19         15.674876   0.000000
     20         15.674876   0.000000
     21         26.976312   0.000000
     22         26.976312   0.000000
     23         29.710428   0.000000
     24         29.710428   0.000000
     25         30.646784   0.000000
     26         30.646784   0.000000
     27         31.326944   0.000000
     28         31.326944   0.000000
     29         37.315748   0.000000
     30         37.315748   0.000000
     31         37.807386   0.000000
     32         37.807386   0.000000
     33         41.967483   0.000000
     34         41.967483   0.000000
     35         43.590709   0.000000
     36         43.590709   0.000000
     37         46.599403   0.000000
     38         46.599403   0.000000
     39         47.896007   0.000000
     40         47.896007   0.000000
     41         48.519297   0.000000
     42         48.519297   0.000000
     43         50.824680   0.000000
     44         50.824680   0.000000
     45         59.115537   0.000000
     46         59.115537   0.000000
     47         59.464192   0.000000
     48         59.464192   0.000000
 
  0.1666667E+00  0.1666667E+00  0.0000000E+00  0.6944444E-02
      1        -48.891659   1.000000
      2        -48.576137   1.000000
      3        -23.293929   1.000000
      4        -23.069822   1.000000
      5        -22.971355   1.000000
      6        -22.620864   1.000000
      7        -22.381457   1.000000
      8        -22.274671   1.000000
      9          6.217693   1.000000
     10          7.643114   1.000000
     11          7.937759   1.000000
     12         10.392347   1.000000
     13         10.802000   1.000000
     14         12.074341   1.000000
     15         13.317893   0.000000
     16         13.378948   0.000000
     17         13.780308   0.000000
     18         13.978244   0.000000
     19         16.363372   0.000000
     20         20.675063   0.000000
     21         22.256604   0.000000
     22         24.206105   0.000000
     23         27.605684   0.000000
     24         28.631909   0.000000
     25         29.036555   0.000000
     26         31.147067   0.000000
     27         31.886802   0.000000
     28         34.408316   0.000000
     29         35.276500   0.000000
     30         36.203768   0.000000
     31         37.140625   0.000000
     32         39.415553   0.000000
     33         41.499130   0.000000
     34         44.647145   0.000000
     35         44.965805   0.000000
     36         45.803699   0.000000
     37         46.592543   0.000000
     38         47.823388   0.000000
     39         48.497039   0.000000
     40         49.735086   0.000000
     41         50.666197   0.000000
     42         51.891456   0.000000
     43         54.525860   0.000000
     44         55.407743   0.000000
     45         56.321316   0.000000
     46         57.973161   0.000000
     47         58.231432   0.000000
     48         60.878667   0.000000
 
  0.2500000E+00  0.1666667E+00  0.0000000E+00  0.1388889E-01
      1        -48.858310   1.000000
      2        -48.600636   1.000000
      3        -23.328786   1.000000
      4        -23.003710   1.000000
      5        -22.866503   1.000000
      6        -22.783996   1.000000
      7        -22.441011   1.000000
      8        -22.294617   1.000000
      9          6.754089   1.000000
     10          7.931032   1.000000
     11          8.465137   1.000000
     12         10.201731   1.000000
     13         10.729557   1.000000
     14         12.412882   0.211287
     15         12.631933   0.000000
     16         13.063554   0.000000
     17         13.078493   0.000000
     18         14.217584   0.000000
     19         16.251524   0.000000
     20         19.597930   0.000000
     21         23.287714   0.000000
     22         25.420603   0.000000
     23         27.615697   0.000000
     24         28.742458   0.000000
     25         30.113176   0.000000
     26         30.135098   0.000000
     27         31.733910   0.000000
     28         33.385272   0.000000
     29         36.616699   0.000000
     30         37.120563   0.000000
     31         37.844280   0.000000
     32         37.886786   0.000000
     33         40.797973   0.000000
     34         43.236019   0.000000
     35         44.763589   0.000000
     36         45.303207   0.000000
     37         45.744079   0.000000
     38         47.389473   0.000000
     39         49.027838   0.000000
     40         49.480504   0.000000
     41         50.377641   0.000000
     42         52.700784   0.000000
     43         54.196100   0.000000
     44         54.475862   0.000000
     45         55.525636   0.000000
     46         57.230183   0.000000
     47         59.430954   0.000000
     48         60.797154   0.000000
 
  0.3333333E+00  0.1666667E+00  0.0000000E+00  0.1388889E-01
      1        -48.816288   1.000000
      2        -48.633767   1.000000
      3        -23.332511   1.000000
      4        -22.950117   1.000000
      5        -22.918081   1.000000
      6        -22.754656   1.000000
      7        -22.520143   1.000000
      8        -22.348799   1.000000
      9          7.347539   1.000000
     10          8.231150   1.000000
     11          9.025754   1.000000
     12         10.146134   1.000000
     13         10.667648   1.000000
     14         11.622951   1.000000
     15         12.595367   0.000000
     16         12.687828   0.000000
     17         13.241366   0.000000
     18         14.615908   0.000000
     19         15.833980   0.000000
     20         18.143489   0.000000
     21         24.626472   0.000000
     22         26.993332   0.000000
     23         27.376480   0.000000
     24         28.469474   0.000000
     25         29.119076   0.000000
     26         31.330327   0.000000
     27         31.623107   0.000000
     28         33.064199   0.000000
     29         36.243233   0.000000
     30         37.001572   0.000000
     31         38.530850   0.000000
     32         39.272372   0.000000
     33         40.539727   0.000000
     34         41.656840   0.000000
     35         43.476764   0.000000
     36         45.384830   0.000000
     37         45.458595   0.000000
     38         46.956971   0.000000
     39         48.042615   0.000000
     40         48.842715   0.000000
     41         51.539774   0.000000
     42         52.318998   0.000000
     43         53.272364   0.000000
     44         53.935541   0.000000
     45         54.334033   0.000000
     46         56.762934   0.000000
     47         59.319532   0.000000
     48         60.271860   0.000000
 
  0.4166667E+00  0.1666667E+00  0.0000000E+00  0.1388889E-01
      1        -48.769079   1.000000
      2        -48.674813   1.000000
      3        -23.297596   1.000000
      4        -23.100190   1.000000
      5        -22.819938   1.000000
      6        -22.640604   1.000000
      7        -22.613745   1.000000
      8        -22.429759   1.000000