Mo                                      
           1
     3.169300    0.000000    0.000000
     0.000000    3.169300    0.000000
     0.000000    0.000000    3.169300
   Mo
     2
Direct configuration=     1
   0.00000000  0.00000000  0.00000000
   0.50000000  0.50000000  0.50000000
