 DBCSR| CPU Multiplication driver                                           BLAS (U)
 DBCSR| Multrec recursion limit                                              512 (U)
 DBCSR| Multiplication stack size                                           1000 (D)
 DBCSR| Maximum elements for images                                    UNLIMITED (U)
 DBCSR| Multiplicative factor virtual images                                   1 (U)
 DBCSR| Use multiplication densification                                       T (D)
 DBCSR| Multiplication size stacks                                             3 (U)
 DBCSR| Use memory pool for CPU allocation                                     F (U)
 DBCSR| Number of 3D layers                                               SINGLE (U)
 DBCSR| Use MPI memory allocation                                              F (U)
 DBCSR| Use RMA algorithm                                                      F (U)
 DBCSR| Use Communication thread                                               T (U)
 DBCSR| Communication thread load                                             45 (D)
 DBCSR| MPI: My process id                                                     0
 DBCSR| MPI: Number of processes                                               8
 DBCSR| OMP: Current number of threads                                        12
 DBCSR| OMP: Max number of threads                                            12
 DBCSR| Split modifier for TAS multiplication algorithm                  1.0E+00 (U)


  **** **** ******  **  PROGRAM STARTED AT               2025-08-03 17:04:50.970
 ***** ** ***  *** **   PROGRAM STARTED ON                          i06r04c01s11
 **    ****   ******    PROGRAM STARTED BY                               di38fab
 ***** **    ** ** **   PROGRAM PROCESS ID                               3149025
  **** **  *******  **  PROGRAM STARTED IN /hppfs/scratch/04/di38fab/09_GTH/Delt
                                           a_Set/Zn/DZVP-MOLOPT-PBE-GTH/8x8x8

 CP2K| version string:                 CP2K version 2025.1 (Development Version)
 CP2K| source code revision number:                                  git:3130539
 CP2K| cp2kflags: omp libint fftw3 libxc parallel scalapack max_contr=4         
 CP2K| is freely available from                            https://www.cp2k.org/
 CP2K| Program compiled at                         Tue Jun  3 16:14:32 CEST 2025
 CP2K| Program compiled on                                               login01
 CP2K| Program compiled for                                        Supermuc-foss
 CP2K| Data directory path                  /hppfs/work/pn36zo/di38fab/cp2k/data
 CP2K| Input file name                                                    GW.inp

 GLOBAL| Force Environment number                                              1
 GLOBAL| Basis set file name            /hppfs/scratch/04/di38fab/09_GTH/BASIS_A
 GLOBAL| Potential file name            /hppfs/work/pn36zo/di38fab/cp2k/data/GTH
 GLOBAL| MM Potential file name                                     MM_POTENTIAL
 GLOBAL| Coordinate file name                                             Zn.cif
 GLOBAL| Method name                                                        CP2K
 GLOBAL| Project name                                                       WSe2
 GLOBAL| Run type                                                         ENERGY
 GLOBAL| FFT library                                                       FFTW3
 GLOBAL| Diagonalization library                                       ScaLAPACK
 GLOBAL| Cholesky decomposition library                                ScaLAPACK
 GLOBAL| DGEMM library                                                      BLAS
 GLOBAL| Orthonormality check for eigenvectors                          DISABLED
 GLOBAL| Matrix multiplication library                                 ScaLAPACK
 GLOBAL| All-to-all communication in single precision                          F
 GLOBAL| FFTs using library dependent lengths                                  F
 GLOBAL| Grid backend                                                       AUTO
 GLOBAL| Global print level                                               MEDIUM
 GLOBAL| MPI I/O enabled                                                       T
 GLOBAL| Total number of message passing processes                             8
 GLOBAL| Number of threads for this process                                   12
 GLOBAL| This output is from process                                           0
 GLOBAL| OpenMP stack size per thread (OMP_STACKSIZE)                    default
 GLOBAL| CPU model name             Intel(R) Xeon(R) Platinum 8174 CPU @ 3.10GHz

 MEMORY| system memory details [Kb]
 MEMORY|                        rank 0           min           max       average
 MEMORY| MemTotal             98436664      98436664      98436664      98436664
 MEMORY| MemFree              84636372      84242360      84636372      84439366
 MEMORY| Buffers                     0             0             0             0
 MEMORY| Cached                2353528       2353528       2355448       2354488
 MEMORY| Slab                  1263892       1263892       1278700       1271296
 MEMORY| SReclaimable           274100        274100        278044        276072
 MEMORY| MemLikelyFree        87264000      86875852      87264000      87069926


 *** Fundamental physical constants (SI units) ***

 *** Literature: B. J. Mohr and B. N. Taylor,
 ***             CODATA recommended values of the fundamental physical
 ***             constants: 2006, Web Version 5.1
 ***             http://physics.nist.gov/constants

 Speed of light in vacuum [m/s]                             2.99792458000000E+08
 Magnetic constant or permeability of vacuum [N/A**2]       1.25663706143592E-06
 Electric constant or permittivity of vacuum [F/m]          8.85418781762039E-12
 Planck constant (h) [J*s]                                  6.62606896000000E-34
 Planck constant (h-bar) [J*s]                              1.05457162825177E-34
 Elementary charge [C]                                      1.60217648700000E-19
 Electron mass [kg]                                         9.10938215000000E-31
 Electron g factor [ ]                                     -2.00231930436220E+00
 Proton mass [kg]                                           1.67262163700000E-27
 Fine-structure constant                                    7.29735253760000E-03
 Rydberg constant [1/m]                                     1.09737315685270E+07
 Avogadro constant [1/mol]                                  6.02214179000000E+23
 Boltzmann constant [J/K]                                   1.38065040000000E-23
 Atomic mass unit [kg]                                      1.66053878200000E-27
 Bohr radius [m]                                            5.29177208590000E-11

 *** Conversion factors ***

 [u] -> [a.u.]                                              1.82288848426455E+03
 [Angstrom] -> [Bohr] = [a.u.]                              1.88972613288564E+00
 [a.u.] = [Bohr] -> [Angstrom]                              5.29177208590000E-01
 [a.u.] -> [s]                                              2.41888432650478E-17
 [a.u.] -> [fs]                                             2.41888432650478E-02
 [a.u.] -> [J]                                              4.35974393937059E-18
 [a.u.] -> [N]                                              8.23872205491840E-08
 [a.u.] -> [K]                                              3.15774647902944E+05
 [a.u.] -> [kJ/mol]                                         2.62549961709828E+03
 [a.u.] -> [kcal/mol]                                       6.27509468713739E+02
 [a.u.] -> [Pa]                                             2.94210107994716E+13
 [a.u.] -> [bar]                                            2.94210107994716E+08
 [a.u.] -> [atm]                                            2.90362800883016E+08
 [a.u.] -> [eV]                                             2.72113838565563E+01
 [a.u.] -> [Hz]                                             6.57968392072181E+15
 [a.u.] -> [1/cm] (wave numbers)                            2.19474631370540E+05
 [a.u./Bohr**2] -> [1/cm]                                   5.14048714338585E+03
 

 CELL_TOP| Volume [angstrom^3]:                                        30.701548
 CELL_TOP| Vector a [angstrom     2.662     0.000     0.000   |a| =     2.661690
 CELL_TOP| Vector b [angstrom     1.331     2.305     0.000   |b| =     2.661690
 CELL_TOP| Vector c [angstrom     0.000     0.000     5.004   |c| =     5.003970
 CELL_TOP| Angle (b,c), alpha [degree]:                                90.000000
 CELL_TOP| Angle (a,c), beta  [degree]:                                90.000000
 CELL_TOP| Angle (a,b), gamma [degree]:                                60.000000
 CELL_TOP| Numerically orthorhombic:                                          NO
 CELL_TOP| Periodicity                                                       XYZ

 CELL_CIF| Volume [angstrom^3]:                                        30.701548
 CELL_CIF| Vector a [angstrom     2.662     0.000     0.000   |a| =     2.661690
 CELL_CIF| Vector b [angstrom     1.331     2.305     0.000   |b| =     2.661690
 CELL_CIF| Vector c [angstrom     0.000     0.000     5.004   |c| =     5.003970
 CELL_CIF| Angle (b,c), alpha [degree]:                                90.000000
 CELL_CIF| Angle (a,c), beta  [degree]:                                90.000000
 CELL_CIF| Angle (a,b), gamma [degree]:                                60.000000
 CELL_CIF| Numerically orthorhombic:                                          NO
 CELL_CIF| Periodicity                                                       XYZ

 GENERATE|  Preliminary Number of Bonds generated:                             0
 GENERATE|  Achieved consistency in connectivity generation.

 CELL| Volume [angstrom^3]:                                            30.701548
 CELL| Vector a [angstrom]:       2.662     0.000     0.000   |a| =     2.661690
 CELL| Vector b [angstrom]:       1.331     2.305     0.000   |b| =     2.661690
 CELL| Vector c [angstrom]:       0.000     0.000     5.004   |c| =     5.003970
 CELL| Angle (b,c), alpha [degree]:                                    90.000000
 CELL| Angle (a,c), beta  [degree]:                                    90.000000
 CELL| Angle (a,b), gamma [degree]:                                    60.000000
 CELL| Numerically orthorhombic:                                              NO
 CELL| Periodicity                                                           XYZ

 CELL_REF| Volume [angstrom^3]:                                        30.701548
 CELL_REF| Vector a [angstrom     2.662     0.000     0.000   |a| =     2.661690
 CELL_REF| Vector b [angstrom     1.331     2.305     0.000   |b| =     2.661690
 CELL_REF| Vector c [angstrom     0.000     0.000     5.004   |c| =     5.003970
 CELL_REF| Angle (b,c), alpha [degree]:                                90.000000
 CELL_REF| Angle (a,c), beta  [degree]:                                90.000000
 CELL_REF| Angle (a,b), gamma [degree]:                                60.000000
 CELL_REF| Numerically orthorhombic:                                          NO
 CELL_REF| Periodicity                                                       XYZ

 *** WARNING in cryssym.F:180 :: Symmetry library SPGLIB not available ***


 *******************************************************************************
                                    Kpoints
 *******************************************************************************
 BRILLOUIN| K-point scheme                                        Monkhorst-Pack
 BRILLOUIN| K-Point grid                                             8    8    8
 BRILLOUIN| Accuracy in Symmetry determination                      0.100000E-05
 BRILLOUIN| K-Point point group symmetrization                               OFF
 BRILLOUIN| Wavefunction type                                            COMPLEX
 BRILLOUIN| List of Kpoints [2 Pi/Bohr]                                      256
 BRILLOUIN| Number           Weight            X              Y              Z
 BRILLOUIN|     1           0.00391       -0.43750       -0.43750       -0.43750
 BRILLOUIN|     2           0.00391       -0.43750       -0.43750       -0.31250
 BRILLOUIN|     3           0.00391       -0.43750       -0.43750       -0.18750
 BRILLOUIN|     4           0.00391       -0.43750       -0.43750       -0.06250
 BRILLOUIN|     5           0.00391       -0.43750       -0.43750        0.06250
 BRILLOUIN|     6           0.00391       -0.43750       -0.43750        0.18750
 BRILLOUIN|     7           0.00391       -0.43750       -0.43750        0.31250
 BRILLOUIN|     8           0.00391       -0.43750       -0.43750        0.43750
 BRILLOUIN|     9           0.00391       -0.43750       -0.31250       -0.43750
 BRILLOUIN|    10           0.00391       -0.43750       -0.31250       -0.31250
 BRILLOUIN|    11           0.00391       -0.43750       -0.31250       -0.18750
 BRILLOUIN|    12           0.00391       -0.43750       -0.31250       -0.06250
 BRILLOUIN|    13           0.00391       -0.43750       -0.31250        0.06250
 BRILLOUIN|    14           0.00391       -0.43750       -0.31250        0.18750
 BRILLOUIN|    15           0.00391       -0.43750       -0.31250        0.31250
 BRILLOUIN|    16           0.00391       -0.43750       -0.31250        0.43750
 BRILLOUIN|    17           0.00391       -0.43750       -0.18750       -0.43750
 BRILLOUIN|    18           0.00391       -0.43750       -0.18750       -0.31250
 BRILLOUIN|    19           0.00391       -0.43750       -0.18750       -0.18750
 BRILLOUIN|    20           0.00391       -0.43750       -0.18750       -0.06250
 BRILLOUIN|    21           0.00391       -0.43750       -0.18750        0.06250
 BRILLOUIN|    22           0.00391       -0.43750       -0.18750        0.18750
 BRILLOUIN|    23           0.00391       -0.43750       -0.18750        0.31250
 BRILLOUIN|    24           0.00391       -0.43750       -0.18750        0.43750
 BRILLOUIN|    25           0.00391       -0.43750       -0.06250       -0.43750
 BRILLOUIN|    26           0.00391       -0.43750       -0.06250       -0.31250
 BRILLOUIN|    27           0.00391       -0.43750       -0.06250       -0.18750
 BRILLOUIN|    28           0.00391       -0.43750       -0.06250       -0.06250
 BRILLOUIN|    29           0.00391       -0.43750       -0.06250        0.06250
 BRILLOUIN|    30           0.00391       -0.43750       -0.06250        0.18750
 BRILLOUIN|    31           0.00391       -0.43750       -0.06250        0.31250
 BRILLOUIN|    32           0.00391       -0.43750       -0.06250        0.43750
 BRILLOUIN|    33           0.00391       -0.43750        0.06250       -0.43750
 BRILLOUIN|    34           0.00391       -0.43750        0.06250       -0.31250
 BRILLOUIN|    35           0.00391       -0.43750        0.06250       -0.18750
 BRILLOUIN|    36           0.00391       -0.43750        0.06250       -0.06250
 BRILLOUIN|    37           0.00391       -0.43750        0.06250        0.06250
 BRILLOUIN|    38           0.00391       -0.43750        0.06250        0.18750
 BRILLOUIN|    39           0.00391       -0.43750        0.06250        0.31250
 BRILLOUIN|    40           0.00391       -0.43750        0.06250        0.43750
 BRILLOUIN|    41           0.00391       -0.43750        0.18750       -0.43750
 BRILLOUIN|    42           0.00391       -0.43750        0.18750       -0.31250
 BRILLOUIN|    43           0.00391       -0.43750        0.18750       -0.18750
 BRILLOUIN|    44           0.00391       -0.43750        0.18750       -0.06250
 BRILLOUIN|    45           0.00391       -0.43750        0.18750        0.06250
 BRILLOUIN|    46           0.00391       -0.43750        0.18750        0.18750
 BRILLOUIN|    47           0.00391       -0.43750        0.18750        0.31250
 BRILLOUIN|    48           0.00391       -0.43750        0.18750        0.43750
 BRILLOUIN|    49           0.00391       -0.43750        0.31250       -0.43750
 BRILLOUIN|    50           0.00391       -0.43750        0.31250       -0.31250
 BRILLOUIN|    51           0.00391       -0.43750        0.31250       -0.18750
 BRILLOUIN|    52           0.00391       -0.43750        0.31250       -0.06250
 BRILLOUIN|    53           0.00391       -0.43750        0.31250        0.06250
 BRILLOUIN|    54           0.00391       -0.43750        0.31250        0.18750
 BRILLOUIN|    55           0.00391       -0.43750        0.31250        0.31250
 BRILLOUIN|    56           0.00391       -0.43750        0.31250        0.43750
 BRILLOUIN|    57           0.00391       -0.43750        0.43750       -0.43750
 BRILLOUIN|    58           0.00391       -0.43750        0.43750       -0.31250
 BRILLOUIN|    59           0.00391       -0.43750        0.43750       -0.18750
 BRILLOUIN|    60           0.00391       -0.43750        0.43750       -0.06250
 BRILLOUIN|    61           0.00391       -0.43750        0.43750        0.06250
 BRILLOUIN|    62           0.00391       -0.43750        0.43750        0.18750
 BRILLOUIN|    63           0.00391       -0.43750        0.43750        0.31250
 BRILLOUIN|    64           0.00391       -0.43750        0.43750        0.43750
 BRILLOUIN|    65           0.00391       -0.31250       -0.43750       -0.43750
 BRILLOUIN|    66           0.00391       -0.31250       -0.43750       -0.31250
 BRILLOUIN|    67           0.00391       -0.31250       -0.43750       -0.18750
 BRILLOUIN|    68           0.00391       -0.31250       -0.43750       -0.06250
 BRILLOUIN|    69           0.00391       -0.31250       -0.43750        0.06250
 BRILLOUIN|    70           0.00391       -0.31250       -0.43750        0.18750
 BRILLOUIN|    71           0.00391       -0.31250       -0.43750        0.31250
 BRILLOUIN|    72           0.00391       -0.31250       -0.43750        0.43750
 BRILLOUIN|    73           0.00391       -0.31250       -0.31250       -0.43750
 BRILLOUIN|    74           0.00391       -0.31250       -0.31250       -0.31250
 BRILLOUIN|    75           0.00391       -0.31250       -0.31250       -0.18750
 BRILLOUIN|    76           0.00391       -0.31250       -0.31250       -0.06250
 BRILLOUIN|    77           0.00391       -0.31250       -0.31250        0.06250
 BRILLOUIN|    78           0.00391       -0.31250       -0.31250        0.18750
 BRILLOUIN|    79           0.00391       -0.31250       -0.31250        0.31250
 BRILLOUIN|    80           0.00391       -0.31250       -0.31250        0.43750
 BRILLOUIN|    81           0.00391       -0.31250       -0.18750       -0.43750
 BRILLOUIN|    82           0.00391       -0.31250       -0.18750       -0.31250
 BRILLOUIN|    83           0.00391       -0.31250       -0.18750       -0.18750
 BRILLOUIN|    84           0.00391       -0.31250       -0.18750       -0.06250
 BRILLOUIN|    85           0.00391       -0.31250       -0.18750        0.06250
 BRILLOUIN|    86           0.00391       -0.31250       -0.18750        0.18750
 BRILLOUIN|    87           0.00391       -0.31250       -0.18750        0.31250
 BRILLOUIN|    88           0.00391       -0.31250       -0.18750        0.43750
 BRILLOUIN|    89           0.00391       -0.31250       -0.06250       -0.43750
 BRILLOUIN|    90           0.00391       -0.31250       -0.06250       -0.31250
 BRILLOUIN|    91           0.00391       -0.31250       -0.06250       -0.18750
 BRILLOUIN|    92           0.00391       -0.31250       -0.06250       -0.06250
 BRILLOUIN|    93           0.00391       -0.31250       -0.06250        0.06250
 BRILLOUIN|    94           0.00391       -0.31250       -0.06250        0.18750
 BRILLOUIN|    95           0.00391       -0.31250       -0.06250        0.31250
 BRILLOUIN|    96           0.00391       -0.31250       -0.06250        0.43750
 BRILLOUIN|    97           0.00391       -0.31250        0.06250       -0.43750
 BRILLOUIN|    98           0.00391       -0.31250        0.06250       -0.31250
 BRILLOUIN|    99           0.00391       -0.31250        0.06250       -0.18750
 BRILLOUIN|   100           0.00391       -0.31250        0.06250       -0.06250
 BRILLOUIN|   101           0.00391       -0.31250        0.06250        0.06250
 BRILLOUIN|   102           0.00391       -0.31250        0.06250        0.18750
 BRILLOUIN|   103           0.00391       -0.31250        0.06250        0.31250
 BRILLOUIN|   104           0.00391       -0.31250        0.06250        0.43750
 BRILLOUIN|   105           0.00391       -0.31250        0.18750       -0.43750
 BRILLOUIN|   106           0.00391       -0.31250        0.18750       -0.31250
 BRILLOUIN|   107           0.00391       -0.31250        0.18750       -0.18750
 BRILLOUIN|   108           0.00391       -0.31250        0.18750       -0.06250
 BRILLOUIN|   109           0.00391       -0.31250        0.18750        0.06250
 BRILLOUIN|   110           0.00391       -0.31250        0.18750        0.18750
 BRILLOUIN|   111           0.00391       -0.31250        0.18750        0.31250
 BRILLOUIN|   112           0.00391       -0.31250        0.18750        0.43750
 BRILLOUIN|   113           0.00391       -0.31250        0.31250       -0.43750
 BRILLOUIN|   114           0.00391       -0.31250        0.31250       -0.31250
 BRILLOUIN|   115           0.00391       -0.31250        0.31250       -0.18750
 BRILLOUIN|   116           0.00391       -0.31250        0.31250       -0.06250
 BRILLOUIN|   117           0.00391       -0.31250        0.31250        0.06250
 BRILLOUIN|   118           0.00391       -0.31250        0.31250        0.18750
 BRILLOUIN|   119           0.00391       -0.31250        0.31250        0.31250
 BRILLOUIN|   120           0.00391       -0.31250        0.31250        0.43750
 BRILLOUIN|   121           0.00391       -0.31250        0.43750       -0.43750
 BRILLOUIN|   122           0.00391       -0.31250        0.43750       -0.31250
 BRILLOUIN|   123           0.00391       -0.31250        0.43750       -0.18750
 BRILLOUIN|   124           0.00391       -0.31250        0.43750       -0.06250
 BRILLOUIN|   125           0.00391       -0.31250        0.43750        0.06250
 BRILLOUIN|   126           0.00391       -0.31250        0.43750        0.18750
 BRILLOUIN|   127           0.00391       -0.31250        0.43750        0.31250
 BRILLOUIN|   128           0.00391       -0.31250        0.43750        0.43750
 BRILLOUIN|   129           0.00391       -0.18750       -0.43750       -0.43750
 BRILLOUIN|   130           0.00391       -0.18750       -0.43750       -0.31250
 BRILLOUIN|   131           0.00391       -0.18750       -0.43750       -0.18750
 BRILLOUIN|   132           0.00391       -0.18750       -0.43750       -0.06250
 BRILLOUIN|   133           0.00391       -0.18750       -0.43750        0.06250
 BRILLOUIN|   134           0.00391       -0.18750       -0.43750        0.18750
 BRILLOUIN|   135           0.00391       -0.18750       -0.43750        0.31250
 BRILLOUIN|   136           0.00391       -0.18750       -0.43750        0.43750
 BRILLOUIN|   137           0.00391       -0.18750       -0.31250       -0.43750
 BRILLOUIN|   138           0.00391       -0.18750       -0.31250       -0.31250
 BRILLOUIN|   139           0.00391       -0.18750       -0.31250       -0.18750
 BRILLOUIN|   140           0.00391       -0.18750       -0.31250       -0.06250
 BRILLOUIN|   141           0.00391       -0.18750       -0.31250        0.06250
 BRILLOUIN|   142           0.00391       -0.18750       -0.31250        0.18750
 BRILLOUIN|   143           0.00391       -0.18750       -0.31250        0.31250
 BRILLOUIN|   144           0.00391       -0.18750       -0.31250        0.43750
 BRILLOUIN|   145           0.00391       -0.18750       -0.18750       -0.43750
 BRILLOUIN|   146           0.00391       -0.18750       -0.18750       -0.31250
 BRILLOUIN|   147           0.00391       -0.18750       -0.18750       -0.18750
 BRILLOUIN|   148           0.00391       -0.18750       -0.18750       -0.06250
 BRILLOUIN|   149           0.00391       -0.18750       -0.18750        0.06250
 BRILLOUIN|   150           0.00391       -0.18750       -0.18750        0.18750
 BRILLOUIN|   151           0.00391       -0.18750       -0.18750        0.31250
 BRILLOUIN|   152           0.00391       -0.18750       -0.18750        0.43750
 BRILLOUIN|   153           0.00391       -0.18750       -0.06250       -0.43750
 BRILLOUIN|   154           0.00391       -0.18750       -0.06250       -0.31250
 BRILLOUIN|   155           0.00391       -0.18750       -0.06250       -0.18750
 BRILLOUIN|   156           0.00391       -0.18750       -0.06250       -0.06250
 BRILLOUIN|   157           0.00391       -0.18750       -0.06250        0.06250
 BRILLOUIN|   158           0.00391       -0.18750       -0.06250        0.18750
 BRILLOUIN|   159           0.00391       -0.18750       -0.06250        0.31250
 BRILLOUIN|   160           0.00391       -0.18750       -0.06250        0.43750
 BRILLOUIN|   161           0.00391       -0.18750        0.06250       -0.43750
 BRILLOUIN|   162           0.00391       -0.18750        0.06250       -0.31250
 BRILLOUIN|   163           0.00391       -0.18750        0.06250       -0.18750
 BRILLOUIN|   164           0.00391       -0.18750        0.06250       -0.06250
 BRILLOUIN|   165           0.00391       -0.18750        0.06250        0.06250
 BRILLOUIN|   166           0.00391       -0.18750        0.06250        0.18750
 BRILLOUIN|   167           0.00391       -0.18750        0.06250        0.31250
 BRILLOUIN|   168           0.00391       -0.18750        0.06250        0.43750
 BRILLOUIN|   169           0.00391       -0.18750        0.18750       -0.43750
 BRILLOUIN|   170           0.00391       -0.18750        0.18750       -0.31250
 BRILLOUIN|   171           0.00391       -0.18750        0.18750       -0.18750
 BRILLOUIN|   172           0.00391       -0.18750        0.18750       -0.06250
 BRILLOUIN|   173           0.00391       -0.18750        0.18750        0.06250
 BRILLOUIN|   174           0.00391       -0.18750        0.18750        0.18750
 BRILLOUIN|   175           0.00391       -0.18750        0.18750        0.31250
 BRILLOUIN|   176           0.00391       -0.18750        0.18750        0.43750
 BRILLOUIN|   177           0.00391       -0.18750        0.31250       -0.43750
 BRILLOUIN|   178           0.00391       -0.18750        0.31250       -0.31250
 BRILLOUIN|   179           0.00391       -0.18750        0.31250       -0.18750
 BRILLOUIN|   180           0.00391       -0.18750        0.31250       -0.06250
 BRILLOUIN|   181           0.00391       -0.18750        0.31250        0.06250
 BRILLOUIN|   182           0.00391       -0.18750        0.31250        0.18750
 BRILLOUIN|   183           0.00391       -0.18750        0.31250        0.31250
 BRILLOUIN|   184           0.00391       -0.18750        0.31250        0.43750
 BRILLOUIN|   185           0.00391       -0.18750        0.43750       -0.43750
 BRILLOUIN|   186           0.00391       -0.18750        0.43750       -0.31250
 BRILLOUIN|   187           0.00391       -0.18750        0.43750       -0.18750
 BRILLOUIN|   188           0.00391       -0.18750        0.43750       -0.06250
 BRILLOUIN|   189           0.00391       -0.18750        0.43750        0.06250
 BRILLOUIN|   190           0.00391       -0.18750        0.43750        0.18750
 BRILLOUIN|   191           0.00391       -0.18750        0.43750        0.31250
 BRILLOUIN|   192           0.00391       -0.18750        0.43750        0.43750
 BRILLOUIN|   193           0.00391       -0.06250       -0.43750       -0.43750
 BRILLOUIN|   194           0.00391       -0.06250       -0.43750       -0.31250
 BRILLOUIN|   195           0.00391       -0.06250       -0.43750       -0.18750
 BRILLOUIN|   196           0.00391       -0.06250       -0.43750       -0.06250
 BRILLOUIN|   197           0.00391       -0.06250       -0.43750        0.06250
 BRILLOUIN|   198           0.00391       -0.06250       -0.43750        0.18750
 BRILLOUIN|   199           0.00391       -0.06250       -0.43750        0.31250
 BRILLOUIN|   200           0.00391       -0.06250       -0.43750        0.43750
 BRILLOUIN|   201           0.00391       -0.06250       -0.31250       -0.43750
 BRILLOUIN|   202           0.00391       -0.06250       -0.31250       -0.31250
 BRILLOUIN|   203           0.00391       -0.06250       -0.31250       -0.18750
 BRILLOUIN|   204           0.00391       -0.06250       -0.31250       -0.06250
 BRILLOUIN|   205           0.00391       -0.06250       -0.31250        0.06250
 BRILLOUIN|   206           0.00391       -0.06250       -0.31250        0.18750
 BRILLOUIN|   207           0.00391       -0.06250       -0.31250        0.31250
 BRILLOUIN|   208           0.00391       -0.06250       -0.31250        0.43750
 BRILLOUIN|   209           0.00391       -0.06250       -0.18750       -0.43750
 BRILLOUIN|   210           0.00391       -0.06250       -0.18750       -0.31250
 BRILLOUIN|   211           0.00391       -0.06250       -0.18750       -0.18750
 BRILLOUIN|   212           0.00391       -0.06250       -0.18750       -0.06250
 BRILLOUIN|   213           0.00391       -0.06250       -0.18750        0.06250
 BRILLOUIN|   214           0.00391       -0.06250       -0.18750        0.18750
 BRILLOUIN|   215           0.00391       -0.06250       -0.18750        0.31250
 BRILLOUIN|   216           0.00391       -0.06250       -0.18750        0.43750
 BRILLOUIN|   217           0.00391       -0.06250       -0.06250       -0.43750
 BRILLOUIN|   218           0.00391       -0.06250       -0.06250       -0.31250
 BRILLOUIN|   219           0.00391       -0.06250       -0.06250       -0.18750
 BRILLOUIN|   220           0.00391       -0.06250       -0.06250       -0.06250
 BRILLOUIN|   221           0.00391       -0.06250       -0.06250        0.06250
 BRILLOUIN|   222           0.00391       -0.06250       -0.06250        0.18750
 BRILLOUIN|   223           0.00391       -0.06250       -0.06250        0.31250
 BRILLOUIN|   224           0.00391       -0.06250       -0.06250        0.43750
 BRILLOUIN|   225           0.00391       -0.06250        0.06250       -0.43750
 BRILLOUIN|   226           0.00391       -0.06250        0.06250       -0.31250
 BRILLOUIN|   227           0.00391       -0.06250        0.06250       -0.18750
 BRILLOUIN|   228           0.00391       -0.06250        0.06250       -0.06250
 BRILLOUIN|   229           0.00391       -0.06250        0.06250        0.06250
 BRILLOUIN|   230           0.00391       -0.06250        0.06250        0.18750
 BRILLOUIN|   231           0.00391       -0.06250        0.06250        0.31250
 BRILLOUIN|   232           0.00391       -0.06250        0.06250        0.43750
 BRILLOUIN|   233           0.00391       -0.06250        0.18750       -0.43750
 BRILLOUIN|   234           0.00391       -0.06250        0.18750       -0.31250
 BRILLOUIN|   235           0.00391       -0.06250        0.18750       -0.18750
 BRILLOUIN|   236           0.00391       -0.06250        0.18750       -0.06250
 BRILLOUIN|   237           0.00391       -0.06250        0.18750        0.06250
 BRILLOUIN|   238           0.00391       -0.06250        0.18750        0.18750
 BRILLOUIN|   239           0.00391       -0.06250        0.18750        0.31250
 BRILLOUIN|   240           0.00391       -0.06250        0.18750        0.43750
 BRILLOUIN|   241           0.00391       -0.06250        0.31250       -0.43750
 BRILLOUIN|   242           0.00391       -0.06250        0.31250       -0.31250
 BRILLOUIN|   243           0.00391       -0.06250        0.31250       -0.18750
 BRILLOUIN|   244           0.00391       -0.06250        0.31250       -0.06250
 BRILLOUIN|   245           0.00391       -0.06250        0.31250        0.06250
 BRILLOUIN|   246           0.00391       -0.06250        0.31250        0.18750
 BRILLOUIN|   247           0.00391       -0.06250        0.31250        0.31250
 BRILLOUIN|   248           0.00391       -0.06250        0.31250        0.43750
 BRILLOUIN|   249           0.00391       -0.06250        0.43750       -0.43750
 BRILLOUIN|   250           0.00391       -0.06250        0.43750       -0.31250
 BRILLOUIN|   251           0.00391       -0.06250        0.43750       -0.18750
 BRILLOUIN|   252           0.00391       -0.06250        0.43750       -0.06250
 BRILLOUIN|   253           0.00391       -0.06250        0.43750        0.06250
 BRILLOUIN|   254           0.00391       -0.06250        0.43750        0.18750
 BRILLOUIN|   255           0.00391       -0.06250        0.43750        0.31250
 BRILLOUIN|   256           0.00391       -0.06250        0.43750        0.43750
 *******************************************************************************

 *******************************************************************************
 *******************************************************************************
 **                                                                           **
 **     #####                         ##              ##                      **
 **    ##   ##            ##          ##              ##                      **
 **   ##     ##                       ##            ######                    **
 **   ##     ##  ##   ##  ##   #####  ##  ##   ####   ##    #####    #####    **
 **   ##     ##  ##   ##  ##  ##      ## ##   ##      ##   ##   ##  ##   ##   **
 **   ##  ## ##  ##   ##  ##  ##      ####     ###    ##   ######   ######    **
 **    ##  ###   ##   ##  ##  ##      ## ##      ##   ##   ##       ##        **
 **     #######   #####   ##   #####  ##  ##  ####    ##    #####   ##        **
 **           ##                                                    ##        **
 **                                                                           **
 **                                                ... make the atoms dance   **
 **                                                                           **
 **            Copyright (C) by CP2K developers group (2000-2025)             **
 **                      J. Chem. Phys. 152, 194103 (2020)                    **
 **                                                                           **
 *******************************************************************************

 DFT| Spin restricted Kohn-Sham (RKS) calculation                            RKS
 DFT| Multiplicity                                                             1
 DFT| Number of spin states                                                    1
 DFT| Charge                                                                   0
 DFT| Self-interaction correction (SIC)                                       NO
 DFT| Cutoffs: density                                              1.000000E-10
 DFT|          gradient                                             1.000000E-10
 DFT|          tau                                                  1.000000E-10
 DFT|          cutoff_smoothing_range                               0.000000E+00
 DFT| XC density smoothing                                                  NONE
 DFT| XC derivatives                                                          PW

 FUNCTIONAL| PBE:
 FUNCTIONAL| J.P.Perdew, K.Burke, M.Ernzerhof, Phys. Rev. Letter, vol. 77, n 18,
 FUNCTIONAL|  pp. 3865-3868, (1996) {spin unpolarized}                          


 QS| Method:                                                                 GPW
 QS| Density plane wave grid type                        NON-SPHERICAL FULLSPACE
 QS| Number of grid levels:                                                    4
 QS| Density cutoff [a.u.]:                                                500.0
 QS| Multi grid cutoff [a.u.]: 1) grid level                               500.0
 QS|                           2) grid level                               166.7
 QS|                           3) grid level                                55.6
 QS|                           4) grid level                                18.5
 QS| Grid level progression factor:                                          3.0
 QS| Relative density cutoff [a.u.]:                                        50.0
 QS| Interaction thresholds: eps_pgf_orb:                                1.0E-16
 QS|                         eps_filter_matrix:                          0.0E+00
 QS|                         eps_core_charge:                            1.0E-18
 QS|                         eps_rho_gspace:                             1.0E-16
 QS|                         eps_rho_rspace:                             1.0E-16
 QS|                         eps_gvg_rspace:                             1.0E-08
 QS|                         eps_ppl:                                    1.0E-02
 QS|                         eps_ppnl:                                   1.0E-10


 ATOMIC KIND INFORMATION

  1. Atomic kind: Zn                                    Number of atoms:       2

     Orbital Basis Set                                   DZVP-MOLOPT-GGA-GTH-q12

       Number of orbital shell sets:                                           1
       Number of orbital shells:                                               7
       Number of primitive Cartesian functions:                                6
       Number of Cartesian basis functions:                                   30
       Number of spherical basis functions:                                   25
       Norm type:                                                              2

       Normalised Cartesian orbitals:

                        Set   Shell   Orbital            Exponent    Coefficient

                          1       1    2s                6.104275       0.016727
                                                         2.638267      -0.041030
                                                         1.000684       0.163207
                                                         0.376911      -0.022564
                                                         0.139193      -0.094463
                                                         0.047979      -0.036796

                          1       2    3s                6.104275      -0.056749
                                                         2.638267       0.294583
                                                         1.000684      -0.735265
                                                         0.376911       0.343050
                                                         0.139193       0.128448
                                                         0.047979      -0.111350

                          1       3    3px               6.104275       0.035386
                                                         2.638267      -0.103883
                                                         1.000684      -0.079217
                                                         0.376911       0.082133
                                                         0.139193      -0.002357
                                                         0.047979      -0.033041
                          1       3    3py               6.104275       0.035386
                                                         2.638267      -0.103883
                                                         1.000684      -0.079217
                                                         0.376911       0.082133
                                                         0.139193      -0.002357
                                                         0.047979      -0.033041
                          1       3    3pz               6.104275       0.035386
                                                         2.638267      -0.103883
                                                         1.000684      -0.079217
                                                         0.376911       0.082133
                                                         0.139193      -0.002357
                                                         0.047979      -0.033041

                          1       4    4px               6.104275       0.010515
                                                         2.638267      -0.061966
                                                         1.000684      -0.257607
                                                         0.376911       0.185414
                                                         0.139193       0.080547
                                                         0.047979       0.002583
                          1       4    4py               6.104275       0.010515
                                                         2.638267      -0.061966
                                                         1.000684      -0.257607
                                                         0.376911       0.185414
                                                         0.139193       0.080547
                                                         0.047979       0.002583
                          1       4    4pz               6.104275       0.010515
                                                         2.638267      -0.061966
                                                         1.000684      -0.257607
                                                         0.376911       0.185414
                                                         0.139193       0.080547
                                                         0.047979       0.002583

                          1       5    4dx2              6.104275      13.464067
                                                         2.638267       3.627180
                                                         1.000684       0.543951
                                                         0.376911       0.050447
                                                         0.139193       0.001869
                                                         0.047979      -0.000038
                          1       5    4dxy              6.104275      23.320448
                                                         2.638267       6.282459
                                                         1.000684       0.942151
                                                         0.376911       0.087377
                                                         0.139193       0.003237
                                                         0.047979      -0.000066
                          1       5    4dxz              6.104275      23.320448
                                                         2.638267       6.282459
                                                         1.000684       0.942151
                                                         0.376911       0.087377
                                                         0.139193       0.003237
                                                         0.047979      -0.000066
                          1       5    4dy2              6.104275      13.464067
                                                         2.638267       3.627180
                                                         1.000684       0.543951
                                                         0.376911       0.050447
                                                         0.139193       0.001869
                                                         0.047979      -0.000038
                          1       5    4dyz              6.104275      23.320448
                                                         2.638267       6.282459
                                                         1.000684       0.942151
                                                         0.376911       0.087377
                                                         0.139193       0.003237
                                                         0.047979      -0.000066
                          1       5    4dz2              6.104275      13.464067
                                                         2.638267       3.627180
                                                         1.000684       0.543951
                                                         0.376911       0.050447
                                                         0.139193       0.001869
                                                         0.047979      -0.000038

                          1       6    5dx2              6.104275      -2.364560
                                                         2.638267      -1.316924
                                                         1.000684      -0.199621
                                                         0.376911       0.183788
                                                         0.139193       0.024138
                                                         0.047979       0.001127
                          1       6    5dxy              6.104275      -4.095537
                                                         2.638267      -2.280980
                                                         1.000684      -0.345754
                                                         0.376911       0.318330
                                                         0.139193       0.041808
                                                         0.047979       0.001952
                          1       6    5dxz              6.104275      -4.095537
                                                         2.638267      -2.280980
                                                         1.000684      -0.345754
                                                         0.376911       0.318330
                                                         0.139193       0.041808
                                                         0.047979       0.001952
                          1       6    5dy2              6.104275      -2.364560
                                                         2.638267      -1.316924
                                                         1.000684      -0.199621
                                                         0.376911       0.183788
                                                         0.139193       0.024138
                                                         0.047979       0.001127
                          1       6    5dyz              6.104275      -4.095537
                                                         2.638267      -2.280980
                                                         1.000684      -0.345754
                                                         0.376911       0.318330
                                                         0.139193       0.041808
                                                         0.047979       0.001952
                          1       6    5dz2              6.104275      -2.364560
                                                         2.638267      -1.316924
                                                         1.000684      -0.199621
                                                         0.376911       0.183788
                                                         0.139193       0.024138
                                                         0.047979       0.001127

                          1       7    5fx3              6.104275      -0.134511
                                                         2.638267       0.062460
                                                         1.000684       0.131964
                                                         0.376911       0.071793
                                                         0.139193       0.009474
                                                         0.047979       0.000291
                          1       7    5fx2y             6.104275      -0.300775
                                                         2.638267       0.139664
                                                         1.000684       0.295081
                                                         0.376911       0.160535
                                                         0.139193       0.021185
                                                         0.047979       0.000650
                          1       7    5fx2z             6.104275      -0.300775
                                                         2.638267       0.139664
                                                         1.000684       0.295081
                                                         0.376911       0.160535
                                                         0.139193       0.021185
                                                         0.047979       0.000650
                          1       7    5fxy2             6.104275      -0.300775
                                                         2.638267       0.139664
                                                         1.000684       0.295081
                                                         0.376911       0.160535
                                                         0.139193       0.021185
                                                         0.047979       0.000650
                          1       7    5fxyz             6.104275      -0.520957
                                                         2.638267       0.241906
                                                         1.000684       0.511096
                                                         0.376911       0.278054
                                                         0.139193       0.036694
                                                         0.047979       0.001126
                          1       7    5fxz2             6.104275      -0.300775
                                                         2.638267       0.139664
                                                         1.000684       0.295081
                                                         0.376911       0.160535
                                                         0.139193       0.021185
                                                         0.047979       0.000650
                          1       7    5fy3              6.104275      -0.134511
                                                         2.638267       0.062460
                                                         1.000684       0.131964
                                                         0.376911       0.071793
                                                         0.139193       0.009474
                                                         0.047979       0.000291
                          1       7    5fy2z             6.104275      -0.300775
                                                         2.638267       0.139664
                                                         1.000684       0.295081
                                                         0.376911       0.160535
                                                         0.139193       0.021185
                                                         0.047979       0.000650
                          1       7    5fyz2             6.104275      -0.300775
                                                         2.638267       0.139664
                                                         1.000684       0.295081
                                                         0.376911       0.160535
                                                         0.139193       0.021185
                                                         0.047979       0.000650
                          1       7    5fz3              6.104275      -0.134511
                                                         2.638267       0.062460
                                                         1.000684       0.131964
                                                         0.376911       0.071793
                                                         0.139193       0.009474
                                                         0.047979       0.000291

       Atomic covalent radius [Angstrom]:                                  1.250

       Atomic van der Waals radius [Angstrom]:                             1.390

     GTH Potential information for                                   GTH-PBE-q12

       Description:                       Goedecker-Teter-Hutter pseudopotential
                                           Goedecker et al., PRB 54, 1703 (1996)
                                          Hartwigsen et al., PRB 58, 3641 (1998)
                                                      Krack, TCA 114, 145 (2005)

       Gaussian exponent of the core charge distribution:               1.922338
       Electronic configuration (s p d ...):                           2   0  10

       Parameters of the local part of the GTH pseudopotential:

                          rloc        C1          C2          C3          C4
                        0.510000

       Parameters of the non-local part of the GTH (SOC) pseudopotential:

                   l      r(l)      h(i,j,l)
                                    k(i,j,l)
                   0    0.400316   11.530041   -8.791898    3.145086
                                   -8.791898   16.465775   -8.120578
                                    3.145086   -8.120578    6.445509
                   1    0.543182    2.597195   -0.594263
                                   -0.594263    0.703141
                                    0.100174   -0.106933
                                   -0.106933    0.126525
                   2    0.250959  -14.466958
                                    0.012727


 MOLECULE KIND INFORMATION


 All atoms are their own molecule, skipping detailed information


 TOTAL NUMBERS AND MAXIMUM NUMBERS

  Total number of            - Atomic kinds:                                   1
                             - Atoms:                                          2
                             - Shell sets:                                     2
                             - Shells:                                        14
                             - Primitive Cartesian functions:                 12
                             - Cartesian basis functions:                     60
                             - Spherical basis functions:                     50

  Maximum angular momentum of the orbital basis functions:                     3


 MODULE QUICKSTEP: ATOMIC COORDINATES IN ANGSTROM

   Atom Kind Element         X             Y             Z       Z(eff)     Mass
      1    1 Zn   30      0.000000      0.000000      0.000000  12.0000  65.3800
      2    1 Zn   30      1.330832      0.768356      2.501985  12.0000  65.3800



 SCF PARAMETERS         Density guess:                                    ATOMIC
                        --------------------------------------------------------
                        max_scf:                                             500
                        max_scf_history:                                       0
                        max_diis:                                              4
                        --------------------------------------------------------
                        eps_scf:                                        1.00E-09
                        eps_scf_history:                                0.00E+00
                        eps_diis:                                       1.00E-01
                        eps_eigval:                                     1.00E-05
                        --------------------------------------------------------
                        level_shift [a.u.]:                             0.000000
                        added MOs                                        38    0
                        --------------------------------------------------------
                        Mixing method:                            BROYDEN_MIXING
                                                charge density mixing in g-space
                        --------------------------------------------------------
                        Smear method:                                FERMI_DIRAC
                        Electronic temperature [K]:                        300.0
                        Electronic temperature [a.u.]:                  9.50E-04
                        Accuracy threshold:                             1.00E-10
                        --------------------------------------------------------
                        No outer SCF

 PW_GRID| Information for grid number                                          1
 PW_GRID| Grid distributed over                                     8 processors
 PW_GRID| Real space group dimensions                                     8    1
 PW_GRID| the grid is blocked:                                                NO
 PW_GRID| Cutoff [a.u.]                                                    500.0
 PW_GRID| spherical cutoff:                                                   NO
 PW_GRID|   Bounds   1            -27      26                Points:          54
 PW_GRID|   Bounds   2            -27      26                Points:          54
 PW_GRID|   Bounds   3            -48      47                Points:          96
 PW_GRID| Volume element (a.u.^3)  0.7401E-03     Volume (a.u.^3)       207.1843
 PW_GRID| Grid span                                                    FULLSPACE
 PW_GRID|   Distribution                         Average         Max         Min
 PW_GRID|   G-Vectors                            34992.0       34992       34992
 PW_GRID|   G-Rays                                 648.0         648         648
 PW_GRID|   Real Space Points                    34992.0       36288       31104

 PW_GRID| Information for grid number                                          2
 PW_GRID| Number of the reference grid                                         1
 PW_GRID| Grid distributed over                                     8 processors
 PW_GRID| Real space group dimensions                                     8    1
 PW_GRID| the grid is blocked:                                                NO
 PW_GRID| Cutoff [a.u.]                                                    166.7
 PW_GRID| spherical cutoff:                                                   NO
 PW_GRID|   Bounds   1            -15      14                Points:          30
 PW_GRID|   Bounds   2            -15      14                Points:          30
 PW_GRID|   Bounds   3            -30      29                Points:          60
 PW_GRID| Volume element (a.u.^3)  0.3837E-02     Volume (a.u.^3)       207.1843
 PW_GRID| Grid span                                                    FULLSPACE
 PW_GRID|   Distribution                         Average         Max         Min
 PW_GRID|   G-Vectors                             6750.0        6810        6690
 PW_GRID|   G-Rays                                 225.0         227         223
 PW_GRID|   Real Space Points                     6750.0        7200        5400

 PW_GRID| Information for grid number                                          3
 PW_GRID| Number of the reference grid                                         1
 PW_GRID| Grid distributed over                                     8 processors
 PW_GRID| Real space group dimensions                                     8    1
 PW_GRID| the grid is blocked:                                                NO
 PW_GRID| Cutoff [a.u.]                                                     55.6
 PW_GRID| spherical cutoff:                                                   NO
 PW_GRID|   Bounds   1             -9       8                Points:          18
 PW_GRID|   Bounds   2             -9       8                Points:          18
 PW_GRID|   Bounds   3            -16      15                Points:          32
 PW_GRID| Volume element (a.u.^3)  0.1998E-01     Volume (a.u.^3)       207.1843
 PW_GRID| Grid span                                                    FULLSPACE
 PW_GRID|   Distribution                         Average         Max         Min
 PW_GRID|   G-Vectors                             1296.0        1332        1260
 PW_GRID|   G-Rays                                  72.0          74          70
 PW_GRID|   Real Space Points                     1296.0        1728        1152

 PW_GRID| Information for grid number                                          4
 PW_GRID| Number of the reference grid                                         1
 PW_GRID| Grid distributed over                                     8 processors
 PW_GRID| Real space group dimensions                                     8    1
 PW_GRID| the grid is blocked:                                                NO
 PW_GRID| Cutoff [a.u.]                                                     18.5
 PW_GRID| spherical cutoff:                                                   NO
 PW_GRID|   Bounds   1             -4       4                Points:           9
 PW_GRID|   Bounds   2             -4       4                Points:           9
 PW_GRID|   Bounds   3            -10       9                Points:          20
 PW_GRID| Volume element (a.u.^3)  0.1279         Volume (a.u.^3)       207.1843
 PW_GRID| Grid span                                                    FULLSPACE
 PW_GRID|   Distribution                         Average         Max         Min
 PW_GRID|   G-Vectors                              202.5         234         162
 PW_GRID|   G-Rays                                  22.5          26          18
 PW_GRID|   Real Space Points                      202.5         360         180

 POISSON| Solver                                                        PERIODIC
 POISSON| Periodicity                                                        XYZ

 RS_GRID| Information for grid number                                          1
 RS_GRID|   Bounds   1            -27      26                Points:          54
 RS_GRID|   Bounds   2            -27      26                Points:          54
 RS_GRID|   Bounds   3            -48      47                Points:          96
 RS_GRID| Real space fully replicated
 RS_GRID| Group size                                                           1

 RS_GRID| Information for grid number                                          2
 RS_GRID|   Bounds   1            -15      14                Points:          30
 RS_GRID|   Bounds   2            -15      14                Points:          30
 RS_GRID|   Bounds   3            -30      29                Points:          60
 RS_GRID| Real space fully replicated
 RS_GRID| Group size                                                           1

 RS_GRID| Information for grid number                                          3
 RS_GRID|   Bounds   1             -9       8                Points:          18
 RS_GRID|   Bounds   2             -9       8                Points:          18
 RS_GRID|   Bounds   3            -16      15                Points:          32
 RS_GRID| Real space fully replicated
 RS_GRID| Group size                                                           1

 RS_GRID| Information for grid number                                          4
 RS_GRID|   Bounds   1             -4       4                Points:           9
 RS_GRID|   Bounds   2             -4       4                Points:           9
 RS_GRID|   Bounds   3            -10       9                Points:          20
 RS_GRID| Real space fully replicated
 RS_GRID| Group size                                                           1

 Number of electrons:                                                         24
 Number of occupied orbitals:                                                 12
 Number of molecular orbitals:                                                50

 Number of orbital functions:                                                 50
 Number of independent orbital functions:                                     50

 Extrapolation method: initial_guess

 Atomic guess: The first density matrix is obtained in terms of atomic orbitals
               and electronic configurations assigned to each atomic kind

 Guess for atomic kind: Zn

 Electronic structure
    Total number of core electrons                                         18.00
    Total number of valence electrons                                      12.00
    Total number of electrons                                              30.00
    Multiplicity                                                   not specified
    S   [  2.00  2.00  2.00] 2.00
    P   [  6.00  6.00]
    D     10.00


 *******************************************************************************
                  Iteration          Convergence                     Energy [au]
 *******************************************************************************
                          1         16.5823                     -35.191216327326
                          2         2.77769                     -58.852792244773
                          3        0.275362                     -60.141608169601
                          4        0.136364                     -60.146344241529
                          5        0.111732                     -60.146651864677
                          6        0.980418E-01                 -60.146792434340
                          7        0.106537                     -60.146711899451
                          8        0.127635E-02                 -60.147271062532
                          9        0.227730E-04                 -60.147271142340
                         10        0.690979E-05                 -60.147271142363
                         11        0.287194E-05                 -60.147271142365
                         12        0.107404E-06                 -60.147271142365

 Energy components [Hartree]           Total Energy ::          -60.147271142365
                                        Band Energy ::           -3.897481914888
                                     Kinetic Energy ::           84.622406239979
                                   Potential Energy ::         -144.769677382345
                                      Virial (-V/T) ::            1.710772404318
                                        Core Energy ::         -110.462285023723
                                          XC Energy ::           -8.660428971422
                                     Coulomb Energy ::           58.975442852780
                       Total Pseudopotential Energy ::         -195.184893955438
                       Local Pseudopotential Energy ::         -135.887959142605
                    Nonlocal Pseudopotential Energy ::          -59.296934812833
                                        Confinement ::            1.002026917356

 Orbital energies  State     L     Occupation   Energy[a.u.]          Energy[eV]

                       1     0          2.000      -0.193723           -5.271479

                       1     2         10.000      -0.351004           -9.551292


 Total Electron Density at R=0:                                         0.000006
 Re-scaling the density matrix to get the right number of electrons
                  # Electrons              Trace(P)               Scaling factor
                           24                24.000                        1.000


 SCF WAVEFUNCTION OPTIMIZATION

  Step     Update method      Time    Convergence         Total energy    Change
  ------------------------------------------------------------------------------
     1 NoMix/Diag. 0.10E+00   19.8     1.95368036      -121.2817852010 -1.21E+02
     2 Broy./Diag. 0.10E+00   21.2     0.00440258      -121.6636802541 -3.82E-01
     3 Broy./Diag. 0.10E+00   21.2     0.02491998      -121.4039220905  2.60E-01
     4 Broy./Diag. 0.10E+00   21.3     0.00164505      -121.0636343181  3.40E-01
     5 Broy./Diag. 0.10E+00   21.2     0.00992684      -121.0392299739  2.44E-02
     6 Broy./Diag. 0.10E+00   21.4     0.00041823      -121.0453040097 -6.07E-03
     7 Broy./Diag. 0.10E+00   21.1     0.00101936      -121.0501994936 -4.90E-03
     8 Broy./Diag. 0.10E+00   21.0     0.00013578      -121.0502589247 -5.94E-05
     9 Broy./Diag. 0.10E+00   21.1     0.00031459      -121.0491821784  1.08E-03
    10 Broy./Diag. 0.10E+00   21.1     0.00003789      -121.0490931548  8.90E-05
    11 Broy./Diag. 0.10E+00   21.2     0.00002198      -121.0492947756 -2.02E-04
    12 Broy./Diag. 0.10E+00   21.1     0.00002787      -121.0492349763  5.98E-05
    13 Broy./Diag. 0.10E+00   21.2     0.00000091      -121.0491945785  4.04E-05
    14 Broy./Diag. 0.10E+00   21.1     0.00000814      -121.0491973866 -2.81E-06
    15 Broy./Diag. 0.10E+00   21.1     0.00000009      -121.0491982293 -8.43E-07
    16 Broy./Diag. 0.10E+00   21.2     0.00000092      -121.0491979720  2.57E-07
    17 Broy./Diag. 0.10E+00   21.2     0.00000001      -121.0491972263  7.46E-07
    18 Broy./Diag. 0.10E+00   21.1     0.00000013      -121.0491972722 -4.59E-08
    19 Broy./Diag. 0.10E+00   21.1     4.4321E-09      -121.0491973675 -9.53E-08
    20 Broy./Diag. 0.10E+00   21.2     0.00000001      -121.0491973164  5.11E-08
    21 Broy./Diag. 0.10E+00   21.2     4.9305E-10      -121.0491972614  5.49E-08

  *** SCF run converged in    21 steps ***


  Electronic density on regular grids:        -24.0000000000       -0.0000000000
  Core density on regular grids:               24.0000000000        0.0000000000
  Total charge density on r-space grids:       -0.0000000000
  Total charge density g-space grids:          -0.0000000000

  Overlap energy of the core charge distribution:               0.00000000053204
  Self energy of the core charge distribution:               -159.30058829583709
  Core Hamiltonian energy:                                     50.81588153637403
  Hartree energy:                                               5.43755820566056
  Exchange-correlation energy:                                -18.00199368321164
  Electronic entropic energy:                                  -0.00005502495666
  Fermi energy:                                                 0.21986024436580

  Total energy:                                              -121.04919726143876

 !-----------------------------------------------------------------------------!
                     Mulliken Population Analysis

 #  Atom  Element  Kind  Atomic population                           Net charge
       1     Zn       1         12.000000                              0.000000
       2     Zn       1         12.000000                             -0.000000
 # Total charge                             24.000000                 -0.000000

 !-----------------------------------------------------------------------------!

 !-----------------------------------------------------------------------------!
                           Hirshfeld Charges

  #Atom  Element  Kind  Ref Charge     Population                    Net charge
      1       Zn     1      12.000         12.000                         0.000
      2       Zn     1      12.000         12.000                        -0.000

  Total Charge                                                           -0.000
 !-----------------------------------------------------------------------------!

 KPOINTS| Band Structure Calculation
 KPOINTS| Number of k-point sets                                               1
 KPOINTS| Number of added MOs/bands                                           -1
 KPOINTS| Number of k-points in set    1                                     148
 KPOINTS| In units of b-vector [2pi/Bohr]
 KPOINTS| Special point     1 not specifi     0.000000     0.000000     0.000000
 KPOINTS| Special point     2 not specifi     0.500000     0.000000     0.000000
 KPOINTS| Special point     3 not specifi     0.333333     0.333333     0.000000
 KPOINTS| Special point     4 not specifi     0.000000     0.000000     0.000000
 KPOINTS| Time for k-point line                                            7.259

 ENERGY| Total FORCE_EVAL ( QS ) energy [hartree]           -121.049197261438763

 -------------------------------------------------------------------------------
 -                                                                             -
 -                                DBCSR STATISTICS                             -
 -                                                                             -
 -------------------------------------------------------------------------------
 COUNTER                                    TOTAL       BLAS       SMM       ACC
 flops inhomo. stacks                           0       0.0%      0.0%      0.0%
 flops total                         0.000000E+00       0.0%      0.0%      0.0%
 flops max/rank                      0.000000E+00       0.0%      0.0%      0.0%
 matmuls inhomo. stacks                         0       0.0%      0.0%      0.0%
 matmuls total                                  0       0.0%      0.0%      0.0%
 number of processed stacks                     0       0.0%      0.0%      0.0%
 average stack size                                     0.0       0.0       0.0
 marketing flops                     0.000000E+00
 -------------------------------------------------------------------------------
 -                                                                             -
 -                      DBCSR MESSAGE PASSING PERFORMANCE                      -
 -                                                                             -
 -------------------------------------------------------------------------------
 ROUTINE             CALLS      AVE VOLUME [Bytes]
 MP_Bcast                1                     12.
 MP_Allreduce           19                     21.
 MP_Alltoall        553304                   4018.
 -------------------------------------------------------------------------------

 -------------------------------------------------------------------------------
 -                                                                             -
 -                                DBM STATISTICS                               -
 -                                                                             -
 -------------------------------------------------------------------------------
    M  x    N  x    K                                          COUNT     PERCENT
 -------------------------------------------------------------------------------

 -------------------------------------------------------------------------------
 -                                                                             -
 -                                GRID STATISTICS                              -
 -                                                                             -
 -------------------------------------------------------------------------------
 LP    KERNEL             BACKEND                              COUNT     PERCENT
 6     collocate general  CPU                                 808280      51.16%
 6     integrate general  CPU                                 771540      48.84%
 0     collocate general  CPU                                      4       0.00%
 0     integrate general  CPU                                      2       0.00%
 -------------------------------------------------------------------------------

 MEMORY| Estimated peak process memory [MiB]                                 661

 -------------------------------------------------------------------------------
 ----                             MULTIGRID INFO                            ----
 -------------------------------------------------------------------------------
 count for grid        1:          27636          cutoff [a.u.]          500.00
 count for grid        2:          26000          cutoff [a.u.]          166.67
 count for grid        3:          27484          cutoff [a.u.]           55.56
 count for grid        4:          33430          cutoff [a.u.]           18.52
 total gridlevel count  :         114550

 -------------------------------------------------------------------------------
 -                                                                             -
 -                         MESSAGE PASSING PERFORMANCE                         -
 -                                                                             -
 -------------------------------------------------------------------------------

 ROUTINE             CALLS      AVE VOLUME [Bytes]
 MP_Group                6
 MP_Bcast           198180                  21860.
 MP_Allreduce       269833                     17.
 MP_Sync                 4
 MP_Alltoall           383                1572830.
 MP_SendRecv           630                  95578.
 MP_ISendRecv          595                  93495.
 MP_Wait            136167
 MP_comm_split           4
 MP_ISend           144524                    611.
 MP_IRecv           230528                    375.
 -------------------------------------------------------------------------------


 -------------------------------------------------------------------------------
 -                                                                             -
 -                           R E F E R E N C E S                               -
 -                                                                             -
 -------------------------------------------------------------------------------
 
 CP2K version 2025.1 (Development Version), the CP2K developers group (2025).
 CP2K is freely available from https://www.cp2k.org/ .
 
 T. D. Kuehne, M. Iannuzzi, M. Del Ben, V. V. Rybkin, P. Seewald, F. Stein, T. 
 Laino, R. Z. Khaliullin, O. Schuett, F. Schiffmann, D. Golze, J. Wilhelm, S. 
 Chulkov, M. H. Bani-Hashemian, V. Weber, U. Borstnik, M. Taillefumier, A. S. 
 Jakobovits, A. Lazzaro, H. Pabst, T. Mueller, R. Schade, M. Guidon, S. 
 Andermatt, N. Holmberg, G. K. Schenter, A. Hehn, A. Bussy, F. Belleflamme, G. 
 Tabacchi, A. Gloess, M. Lass, I. Bethune, C. J. Mundy, C. Plessl, M. Watkins, 
 J. VandeVondele, M. Krack, J. Hutter.
 J. Chem. Phys. 152, 194103 (2020).
 CP2K: An electronic structure and molecular dynamics software package - 
 Quickstep: Efficient and accurate electronic structure calculations.
 https://doi.org/10.1063/5.0007045

 O. Schuett, P. Messmer, J. Hutter, J. VandeVondele.
 Electronic Structure Calculations on Graphics Processing Units, 173-190 (2016).
 GPU-Accelerated Sparse Matrix-Matrix Multiplication for Linear Scaling Density 
 Functional Theory.
 https://doi.org/10.1002/9781118670712.ch8

 J. Hutter, M. Iannuzzi, F. Schiffmann, J. VandeVondele.
 WIREs Comput Mol Sci. 4, 15-25 (2014).
 CP2K: atomistic simulations of condensed matter systems.
 https://doi.org/10.1002/wcms.1159

 U. Borstnik, J. VandeVondele, V. Weber, J. Hutter.
 Parallel Comput. 40, 47-58 (2014).
 Sparse matrix multiplication: The distributed block-compressed sparse row 
 library.
 https://doi.org/10.1016/j.parco.2014.03.012

 J. VandeVondele, J. Hutter.
 J. Chem. Phys. 127, 114105 (2007).
 Gaussian basis sets for accurate calculations on molecular systems in gas and 
 condensed phases.
 https://doi.org/10.1063/1.2770708

 J. VandeVondele, M. Krack, F. Mohamed, M. Parrinello, T. Chassaing, J. Hutter.
 Comput. Phys. Commun. 167, 103-128 (2005).
 QUICKSTEP: Fast and accurate density functional calculations using a mixed 
 Gaussian and plane waves approach.
 https://doi.org/10.1016/j.cpc.2004.12.014

 M. Krack.
 Theor. Chem. Acc. 114, 145-152 (2005).
 Pseudopotentials for H to Kr optimized for gradient-corrected 
 exchange-correlation functionals.
 https://doi.org/10.1007/s00214-005-0655-y

 M. Frigo, S. G. Johnson.
 Proc. IEEE 93, 216-231 (2005).
 The design and implementation of FFTW3.
 https://doi.org/10.1109/JPROC.2004.840301

 C. Hartwigsen, S. Goedecker, J. Hutter.
 Phys. Rev. B 58, 3641-3662 (1998).
 Relativistic separable dual-space Gaussian pseudopotentials from H to Rn.
 https://doi.org/10.1103/PhysRevB.58.3641

 G. Lippert, J. Hutter, M. Parrinello.
 Mol. Phys. 92, 477-487 (1997).
 A hybrid Gaussian and plane wave density functional scheme.
 https://doi.org/10.1080/002689797170220

 S. Goedecker, M. Teter, J. Hutter.
 Phys. Rev. B 54, 1703-1710 (1996).
 Separable dual-space Gaussian pseudopotentials.
 https://doi.org/10.1103/PhysRevB.54.1703

 J. P. Perdew, K. Burke, M. Ernzerhof.
 Phys. Rev. Lett. 77, 3865-3868 (1996).
 Generalized gradient approximation made simple.
 https://doi.org/10.1103/PhysRevLett.77.3865


 -------------------------------------------------------------------------------
 -                                                                             -
 -                                T I M I N G                                  -
 -                                                                             -
 -------------------------------------------------------------------------------
 SUBROUTINE                       CALLS  ASD         SELF TIME        TOTAL TIME
                                MAXIMUM       AVERAGE  MAXIMUM  AVERAGE  MAXIMUM
 CP2K                                 1  1.0    0.030    0.033  473.538  473.538
 qs_energies                          1  2.0    0.016    0.036  472.328  472.343
 scf_env_do_scf                       1  3.0    0.000    0.000  450.283  450.283
 scf_env_do_scf_inner_loop           21  4.0    0.076    0.081  450.283  450.283
 do_general_diag_kp                  22  5.9    0.122    0.154  409.557  415.965
 qs_scf_new_mos_kp                   21  5.0    0.000    0.000  402.392  408.791
 mp_alltoall_i22                  94108  8.6  322.077  395.465  322.077  395.465
 dbcsr_desymmetrize_deep          52726  7.4    0.779    0.938  234.128  286.860
 rskp_transform                   11048  6.9   45.918  246.034   45.918  246.034
 dbcsr_complete_redistribute      41382  8.0    1.342    1.588  104.457  125.175
 kpoint_density_transform            21  7.0    0.096    0.112  117.166  117.536
 copy_fm_to_dbcsr                 10752  8.0    0.064    0.076   95.270  115.719
 transform_dmat                    5376  8.0   20.511  111.959   20.511  111.959
 qs_ks_update_qs_env                 21  5.0    0.000    0.000   10.454   38.638
 transfer_rs2pw                      90  8.0    0.001    0.001   30.153   37.123
 transfer_rs2pw_500                  24  8.9    0.026    0.029   30.130   37.097
 mp_sendrecv_dv                     630 10.0   30.119   37.090   30.119   37.090
 rebuild_ks_matrix                   21  6.0    0.000    0.000    7.739   35.923
 qs_ks_build_kohn_sham_matrix        21  7.0    0.148    0.152    7.739   35.922
 sum_up_and_integrate                21  8.0    0.000    0.000    6.641   34.772
 integrate_v_rspace                  21  9.0    0.064    0.336    6.640   34.771
 grid_integrate_task_list            21 10.0    6.417   34.329    6.417   34.329
 qs_rho_update_rho_low               22  5.0    0.000    0.000   30.092   30.137
 calculate_rho_elec                  22  6.0    0.013    0.040   30.092   30.137
 density_rs2pw                       22  7.0    0.001    0.001   24.475   30.091
 grid_collocate_task_list            22  7.0    5.602   29.856    5.602   29.856
 copy_dbcsr_to_fm                 30630  6.7    0.312    0.339   16.202   16.500
 cp_dbcsr_alloc_block_from_nbl    29997  5.0    1.880    9.706    1.968   10.041
 qs_energies_init_hamiltonians        1  3.0    0.000    0.000    8.934    8.934
 build_core_hamiltonian_matrix        1  4.0    0.015    0.016    1.565    7.292
 qs_env_update_s_mstruct              1  4.0    0.000    0.000    6.066    7.137
 calculate_rho_core                   1  5.0    0.001    0.002    5.736    7.093
 write_kpoints_restart               21  5.0    0.048    0.055    5.990    5.990
 mp_sum_d                        179797  9.0    4.848    5.774    4.848    5.774
 dbcsr_dot                       179215  8.0    0.773    1.206    4.895    5.432
 init_scf_run                         1  3.0    0.000    0.000    3.684    4.218
 scf_env_initial_rho_setup            1  4.0    0.000    0.000    3.684    4.218
 dbcsr_finalize                  162636  7.5    0.573    0.652    3.825    4.192
 dbcsr_create_new                344724  7.6    2.130    2.744    2.342    2.976
 mp_alltoall_d11v                282324  9.2    2.811    2.956    2.811    2.956
 mixing_allocate                      1  3.0    0.024    0.026    0.623    2.933
 cp_fm_start_copy_general         32848  7.3    0.460    0.697    2.867    2.929
 calculate_first_density_matrix       1  5.0    0.003    0.003    2.326    2.861
 calculate_atomic_block_dm            1  6.0    0.001    0.001    2.318    2.853
 evaluate_core_matrix_traces         21  6.0    0.000    0.000    2.715    2.715
 calculate_ptrace_kp                 42  7.0    0.134    0.138    2.715    2.715
 build_core_ppnl                      1  5.0    0.517    2.633    0.517    2.633
 dbcsr_merge_all                  41382 10.0    1.552    1.899    2.317    2.632
 mp_cart_sub                      61262  8.7    2.480    2.500    2.480    2.500
 cp_fm_write_unformatted           8534  6.0    1.630    1.999    1.650    2.086
 hybrid_alltoall_any              52726  8.4    0.209    0.230    1.851    1.963
 self_consistency_check              21  5.0    0.125    0.127    1.812    1.893
 dbcsr_copy                      194233  6.6    1.110    1.186    1.596    1.827
 cp_sm_mix                        89607  6.0    0.254    0.488    1.555    1.656
 mp_alltoall_i11v                176872  8.8    1.610    1.639    1.610    1.639
 build_overlap_matrix_low             1  5.0    0.043    0.106    0.338    1.547
 build_kinetic_matrix_low             1  5.0    0.042    0.105    0.337    1.547
 calculate_ecore_overlap              1  4.0    0.000    0.000    1.234    1.520
 qs_env_rebuild_rho                   1  5.0    0.000    0.000    0.311    1.462
 qs_rho_rebuild                       1  6.0    0.012    0.013    0.311    1.462
 mp_cart_create                   30637  8.7    1.405    1.460    1.405    1.460
 mp_sum_iv                           24  5.3    1.153    1.419    1.153    1.419
 qs_scf_ensure_work_matrices          1  3.0    0.000    0.000    1.152    1.419
 mp_allgather_i                   65696  8.3    1.214    1.341    1.214    1.341
 mp_max_d                         89609  7.0    1.086    1.241    1.086    1.241
 cp_cfm_geeig_canon                 709  6.8    0.004    0.004    1.129    1.136
 copy_fm_to_dbcsr_bc              10752  9.0    0.143    0.162    0.557    1.065
 cp_cfm_heevd                      1418  7.8    0.001    0.001    1.044    1.050
 cp_cfm_heevd_base                 1418  8.8    1.043    1.049    1.043    1.049
 dbcsr_iterator_start            532727  8.6    0.904    0.924    1.036    1.048
 create_qs_kind_set                   1  2.0    0.000    0.000    1.018    1.018
 read_qs_kind                         1  3.0    0.617    0.623    1.018    1.018
 dbcsr_work_create                94108  8.6    0.571    0.603    0.926    1.012
 mp_bcast_iv                     131546  8.3    0.819    0.930    0.819    0.930
 dbcsr_data_new                 1057221  9.4    0.630    0.735    0.630    0.735
 copy_dbcsr_to_fm_bc              30630  7.7    0.300    0.317    0.700    0.729
 dbcsr_iterator_stop             532727  8.6    0.580    0.592    0.689    0.702
 tree_to_linear_d                 41382 11.0    0.601    0.700    0.601    0.700
 dbcsr_work_destroy_all           94108  9.6    0.453    0.456    0.681    0.684
 dbcsr_set                       268379  7.1    0.231    0.246    0.370    0.591
 dbcsr_data_release             1695400  9.8    0.551    0.584    0.551    0.584
 dbcsr_destroy                   165510  7.1    0.262    0.286    0.465    0.514
 parser_read_line                134873  4.0    0.045    0.048    0.470    0.474
 parser_read_line_low               153  5.2    0.049    0.207    0.425    0.431
 broadcast_input_information        153  6.2    0.100    0.112    0.376    0.407
 fft_wrap_pw1pw2                    383 10.0    0.003    0.003    0.343    0.398
 dbcsr_reserve_blocks             40749  7.3    0.119    0.361    0.135    0.396
 kpoint_set_mo_occupation            21  7.0    0.347    0.349    0.369    0.380
 fft_wrap_pw1pw2_500                254 11.3    0.016    0.016    0.313    0.367
 fft3d_ps                           383 12.0    0.083    0.086    0.295    0.350
 dbcsr_zero                      268379  8.1    0.139    0.345    0.139    0.345
 dbcsr_copy_into_existing         15019  8.9    0.112    0.241    0.195    0.329
 quick_finalize                   52726  9.4    0.134    0.172    0.223    0.301
 mp_bcast_im                      65696  8.3    0.243    0.276    0.243    0.276
 mp_alltoall_z22v                   383 14.0    0.187    0.249    0.187    0.249
 mp_waitall_1                    136167  8.3    0.110    0.230    0.110    0.230
 mp_comm_free                     91935  8.7    0.206    0.226    0.206    0.226
 potential_pw2rs                     21 10.0    0.001    0.001    0.160    0.212
 qs_vxc_create                       21  8.0    0.000    0.000    0.192    0.193
 xc_vxc_pw_create                    21  9.0    0.007    0.007    0.192    0.192
 yz_to_x                            173 12.8    0.007    0.008    0.126    0.185
 mp_bcast_i_src                     612  7.2    0.154    0.184    0.154    0.184
 cp_fm_finish_copy_general        13588  7.8    0.127    0.149    0.146    0.184
 dbcsr_iterator_seek             532727  9.6    0.131    0.161    0.131    0.161
 dbcsr_make_index_exist          344724  8.6    0.143    0.156    0.143    0.156
 kpoint_density_matrices             21  7.0    0.008    0.009    0.127    0.148
 parallel_gemm_fm                  2688  8.0    0.002    0.002    0.116    0.136
 parallel_gemm_fm_gemm             2688  9.0    0.002    0.003    0.114    0.134
 dbcsr_sort_indices              134857 10.5    0.071    0.133    0.071    0.133
 mp_bcast_am_src                    153  7.2    0.100    0.104    0.120    0.133
 cp_fm_gemm                        2688 10.0    0.111    0.131    0.111    0.131
 xc_pw_derive                       126 11.0    0.000    0.000    0.126    0.130
 kpoint_init_cell_index               2  3.5    0.093    0.118    0.125    0.128
 gspace_mixing                       20  5.0    0.005    0.005    0.125    0.125
 qs_create_task_list                  1  5.0    0.000    0.000    0.019    0.102
 generate_qs_task_list                1  6.0    0.015    0.081    0.019    0.102
 xc_rho_set_and_dset_create          21 10.0    0.005    0.006    0.097    0.101
 broyden_mixing                      20  6.0    0.095    0.096    0.098    0.099
 dbcsr_reserve_all_blocks         10752 10.0    0.016    0.020    0.075    0.094
 xc_pw_divergence                    21 10.0    0.000    0.000    0.086    0.091
 merge_index                      41382 11.0    0.081    0.088    0.081    0.088
 mp_recv_dv                       25602  7.0    0.011    0.087    0.011    0.087
 x_to_yz                            210 13.2    0.016    0.018    0.083    0.084
 topology_control                     1  2.0    0.000    0.000    0.076    0.076
 cp_cfm_gemm                       2127  7.8    0.073    0.075    0.073    0.075
 scf_post_calculation_gpw             1  3.0    0.000    0.000    0.072    0.072
 write_available_results              1  4.0    0.000    0.000    0.072    0.072
 write_mo_free_results                1  5.0    0.004    0.007    0.072    0.072
 transfer_pw2rs                      85 11.0    0.000    0.000    0.068    0.069
 mp_irecv_iv                     131392  8.3    0.008    0.068    0.008    0.068
 dbcsr_switch_data_area           52726 10.4    0.048    0.049    0.063    0.064
 mp_isend_dv                      33440  8.2    0.054    0.060    0.054    0.060
 read_cell_cif                        2  4.5    0.002    0.005    0.052    0.053
 cp_fm_cleanup_copy_general       23440  7.0    0.030    0.032    0.047    0.051
 transfer_pw2rs_500                  22 11.8    0.025    0.028    0.049    0.050
 mp_isend_iv                      74056  8.3    0.012    0.048    0.012    0.048
 -------------------------------------------------------------------------------

 The number of warnings for this run is : 1
 
 -------------------------------------------------------------------------------
  **** **** ******  **  PROGRAM ENDED AT                 2025-08-03 17:12:44.847
 ***** ** ***  *** **   PROGRAM RAN ON                              i06r04c01s11
 **    ****   ******    PROGRAM RAN BY                                   di38fab
 ***** **    ** ** **   PROGRAM PROCESS ID                               3149025
  **** **  *******  **  PROGRAM STOPPED IN /hppfs/scratch/04/di38fab/09_GTH/Delt
                                           a_Set/Zn/DZVP-MOLOPT-PBE-GTH/8x8x8
