W                                       
   1.00000000000000     
     3.189680    0.000000    0.000000
     0.000000    3.189680    0.000000
     0.000000    0.000000    3.189680
   W 
     2
Direct
  0.000000  0.000000  0.000000
  0.500000  0.500000  0.500000
 
   28   28   28
  283.42      274.17      247.99      209.16      163.71      118.19      78.329      47.858      27.848      16.864    
  11.923      9.8056      8.8229      8.4241      8.3209      8.4241      8.8229      9.8056      11.923      16.864    
  27.848      47.858      78.329      118.19      163.71      209.16      247.99      274.17      274.17      265.29    
  240.11      202.66      158.74      114.66      76.031      46.522      27.190      16.620      11.871      9.8051    
  8.8410      8.4480      8.3460      8.4480      8.8410      9.8051      11.871      16.620      27.190      46.522    
  76.031      114.66      158.74      202.66      240.11      265.29      247.99      240.11      217.66      184.09    
  144.45      104.48      69.404      42.686      25.321      15.935      11.721      9.7994      8.8903      8.5151    
  8.4165      8.5151      8.8903      9.7994      11.721      15.935      25.321      42.686      69.404      104.48    
  144.45      184.09      217.66      240.11      209.16      202.66      184.09      156.08      122.74      88.959    
  59.322      36.917      22.568      14.952      11.484      9.7786      8.9579      8.6115      8.5189      8.6115    
  8.9579      9.7786      11.484      14.952      22.568      36.917      59.322      88.959      122.74      156.08    
  184.09      202.66      163.71      158.74      144.45      122.74      96.738      70.349      47.334      30.189    
  19.460      13.871      11.166      9.7339      9.0264      8.7177      8.6330      8.7177      9.0264      9.7339    
  11.166      13.871      19.460      30.189      47.334      70.349      96.738      122.74      144.45      158.74    
  118.19      114.66      104.48      88.959      70.349      51.572      35.435      23.705      16.579      12.845    
  10.797      9.6618      9.0784      8.8120      8.7363      8.8120      9.0784      9.6618      10.797      12.845    
  16.579      23.705      35.435      51.572      70.349      88.959      104.48      114.66      78.329      76.031    
  69.404      59.322      47.334      35.435      25.475      18.478      14.304      11.893      10.416      9.5636    
  9.1000      8.8748      8.8081      8.8748      9.1000      9.5636      10.416      11.893      14.304      18.478    
  25.475      35.435      47.334      59.322      69.404      76.031      47.858      46.522      42.686      36.917    
  30.189      23.705      18.478      14.901      12.608      11.055      10.056      9.4427      9.0820      8.8927    
  8.8338      8.8927      9.0820      9.4427      10.056      11.055      12.608      14.901      18.478      23.705    
  30.189      36.917      42.686      46.522      27.848      27.190      25.321      22.568      19.460      16.579    
  14.304      12.608      11.309      10.375      9.7330      9.3015      9.0211      8.8607      8.8081      8.8607    
  9.0211      9.3015      9.7330      10.375      11.309      12.608      14.304      16.579      19.460      22.568    
  25.321      27.190      16.864      16.620      15.935      14.952      13.871      12.845      11.893      11.055    
  10.375      9.8484      9.4469      9.1425      8.9211      8.7834      8.7363      8.7834      8.9211      9.1425    
  9.4469      9.8484      10.375      11.055      11.893      12.845      13.871      14.952      15.935      16.620    
  11.923      11.871      11.721      11.484      11.166      10.797      10.416      10.056      9.7330      9.4469    
  9.1931      8.9717      8.7931      8.6747      8.6330      8.6747      8.7931      8.9717      9.1931      9.4469    
  9.7330      10.056      10.416      10.797      11.166      11.484      11.721      11.871      9.8056      9.8051    
  9.7994      9.7786      9.7339      9.6618      9.5636      9.4427      9.3015      9.1425      8.9717      8.8026    
  8.6559      8.5549      8.5189      8.5549      8.6559      8.8026      8.9717      9.1425      9.3015      9.4427    
  9.5636      9.6618      9.7339      9.7786      9.7994      9.8051      8.8229      8.8410      8.8903      8.9579    
  9.0264      9.0784      9.1000      9.0820      9.0211      8.9211      8.7931      8.6559      8.5328      8.4472    
  8.4165      8.4472      8.5328      8.6559      8.7931      8.9211      9.0211      9.0820      9.1000      9.0784    
  9.0264      8.9579      8.8903      8.8410      8.4241      8.4480      8.5151      8.6115      8.7177      8.8120    
  8.8748      8.8927      8.8607      8.7834      8.6747      8.5549      8.4472      8.3726      8.3460      8.3726    
  8.4472      8.5549      8.6747      8.7834      8.8607      8.8927      8.8748      8.8120      8.7177      8.6115    
  8.5151      8.4480      8.3209      8.3460      8.4165      8.5189      8.6330      8.7363      8.8081      8.8338    
  8.8081      8.7363      8.6330      8.5189      8.4165      8.3460      8.3209      8.3460      8.4165      8.5189    
  8.6330      8.7363      8.8081      8.8338      8.8081      8.7363      8.6330      8.5189      8.4165      8.3460    
  8.4241      8.4480      8.5151      8.6115      8.7177      8.8120      8.8748      8.8927      8.8607      8.7834    
  8.6747      8.5549      8.4472      8.3726      8.3460      8.3726      8.4472      8.5549      8.6747      8.7834    
  8.8607      8.8927      8.8748      8.8120      8.7177      8.6115      8.5151      8.4480      8.8229      8.8410    
  8.8903      8.9579      9.0264      9.0784      9.1000      9.0820      9.0211      8.9211      8.7931      8.6559    
  8.5328      8.4472      8.4165      8.4472      8.5328      8.6559      8.7931      8.9211      9.0211      9.0820    
  9.1000      9.0784      9.0264      8.9579      8.8903      8.8410      9.8056      9.8051      9.7994      9.7786    
  9.7339      9.6618      9.5636      9.4427      9.3015      9.1425      8.9717      8.8026      8.6559      8.5549    
  8.5189      8.5549      8.6559      8.8026      8.9717      9.1425      9.3015      9.4427      9.5636      9.6618    
  9.7339      9.7786      9.7994      9.8051      11.923      11.871      11.721      11.484      11.166      10.797    
  10.416      10.056      9.7330      9.4469      9.1931      8.9717      8.7931      8.6747      8.6330      8.6747    
  8.7931      8.9717      9.1931      9.4469      9.7330      10.056      10.416      10.797      11.166      11.484    
  11.721      11.871      16.864      16.620      15.935      14.952      13.871      12.845      11.893      11.055    
  10.375      9.8484      9.4469      9.1425      8.9211      8.7834      8.7363      8.7834      8.9211      9.1425    
  9.4469      9.8484      10.375      11.055      11.893      12.845      13.871      14.952      15.935      16.620    
  27.848      27.190      25.321      22.568      19.460      16.579      14.304      12.608      11.309      10.375    
  9.7330      9.3015      9.0211      8.8607      8.8081      8.8607      9.0211      9.3015      9.7330      10.375    
  11.309      12.608      14.304      16.579      19.460      22.568      25.321      27.190      47.858      46.522    
  42.686      36.917      30.189      23.705      18.478      14.901      12.608      11.055      10.056      9.4427    
  9.0820      8.8927      8.8338      8.8927      9.0820      9.4427      10.056      11.055      12.608      14.901    
  18.478      23.705      30.189      36.917      42.686      46.522      78.329      76.031      69.404      59.322    
  47.334      35.435      25.475      18.478      14.304      11.893      10.416      9.5636      9.1000      8.8748    
  8.8081      8.8748      9.1000      9.5636      10.416      11.893      14.304      18.478      25.475      35.435    
  47.334      59.322      69.404      76.031      118.19      114.66      104.48      88.959      70.349      51.572    
  35.435      23.705      16.579      12.845      10.797      9.6618      9.0784      8.8120      8.7363      8.8120    
  9.0784      9.6618      10.797      12.845      16.579      23.705      35.435      51.572      70.349      88.959    
  104.48      114.66      163.71      158.74      144.45      122.74      96.738      70.349      47.334      30.189    
  19.460      13.871      11.166      9.7339      9.0264      8.7177      8.6330      8.7177      9.0264      9.7339    
  11.166      13.871      19.460      30.189      47.334      70.349      96.738      122.74      144.45      158.74    
  209.16      202.66      184.09      156.08      122.74      88.959      59.322      36.917      22.568      14.952    
  11.484      9.7786      8.9579      8.6115      8.5189      8.6115      8.9579      9.7786      11.484      14.952    
  22.568      36.917      59.322      88.959      122.74      156.08      184.09      202.66      247.99      240.11    
  217.66      184.09      144.45      104.48      69.404      42.686      25.321      15.935      11.721      9.7994    
  8.8903      8.5151      8.4165      8.5151      8.8903      9.7994      11.721      15.935      25.321      42.686    
  69.404      104.48      144.45      184.09      217.66      240.11      274.17      265.29      240.11      202.66    
  158.74      114.66      76.031      46.522      27.190      16.620      11.871      9.8051      8.8410      8.4480    
  8.3460      8.4480      8.8410      9.8051      11.871      16.620      27.190      46.522      76.031      114.66    
  158.74      202.66      240.11      265.29      274.17      265.29      240.11      202.66      158.74      114.66    
  76.031      46.522      27.190      16.620      11.871      9.8051      8.8410      8.4480      8.3460      8.4480    
  8.8410      9.8051      11.871      16.620      27.190      46.522      76.031      114.66      158.74      202.66    
  240.11      265.29      265.29      256.75      232.51      196.39      153.92      111.23      73.795      45.225    
  26.556      16.388      11.823      9.8068      8.8608      8.4736      8.3726      8.4736      8.8608      9.8068    
  11.823      16.388      26.556      45.225      73.795      111.23      153.92      196.39      232.51      256.75    
  240.11      232.51      210.86      178.42      140.06      101.34      67.353      41.508      24.758      15.740    
  11.686      9.8071      8.9149      8.5448      8.4472      8.5448      8.9149      9.8071      11.686      15.740    
  24.758      41.508      67.353      101.34      140.06      178.42      210.86      232.51      202.66      196.39    
  178.42      151.30      119.00      86.262      57.572      35.931      22.119      14.812      11.463      9.7951    
  8.9889      8.6468      8.5549      8.6468      8.9889      9.7951      11.463      14.812      22.118      35.931    
  57.572      86.262      119.00      151.30      178.42      196.39      158.74      153.92      140.06      119.00    
  93.780      68.220      45.972      29.449      19.148      13.789      11.162      9.7602      9.0643      8.7589    
  8.6747      8.7589      9.0643      9.7602      11.162      13.789      19.148      29.449      45.972      68.220    
  93.780      119.00      140.06      153.92      114.66      111.23      101.34      86.262      68.220      50.058    
  34.496      23.227      16.401      12.809      10.811      9.6979      9.1231      8.8588      8.7834      8.8588    
  9.1231      9.6979      10.811      12.809      16.401      23.227      34.496      50.058      68.220      86.262    
  101.34      111.23      76.031      73.795      67.353      57.572      45.972      34.496      24.927      18.229    
  14.231      11.889      10.446      9.6091      9.1512      8.9273      8.8607      8.9273      9.1512      9.6091    
  10.446      11.889      14.231      18.229      24.927      34.496      45.972      57.572      67.353      73.795    
  46.522      45.225      41.508      35.931      29.449      23.227      18.229      14.809      12.591      11.077    
  10.101      9.4972      9.1402      8.9517      8.8927      8.9517      9.1402      9.4972      10.101      11.077    
  12.591      14.809      18.229      23.227      29.449      35.931      41.508      45.225      27.190      26.556    
  24.758      22.119      19.148      16.401      14.231      12.591      11.328      10.418      9.7895      9.3647    
  9.0871      8.9273      8.8748      8.9273      9.0871      9.3647      9.7895      10.418      11.328      12.591    
  14.231      16.401      19.148      22.118      24.758      26.556      16.620      16.388      15.740      14.812    
  13.789      12.809      11.889      11.077      10.418      9.9054      9.5132      9.2140      8.9953      8.8588    
  8.8120      8.8588      8.9953      9.2140      9.5132      9.9054      10.418      11.077      11.889      12.809    
  13.789      14.812      15.740      16.388      11.871      11.823      11.686      11.463      11.162      10.811    
  10.446      10.101      9.7895      9.5132      9.2668      9.0508      8.8755      8.7589      8.7177      8.7589    
  8.8755      9.0508      9.2668      9.5132      9.7895      10.101      10.446      10.811      11.162      11.463    
  11.686      11.823      9.8051      9.8068      9.8071      9.7951      9.7602      9.6979      9.6091      9.4972    
  9.3647      9.2140      9.0508      8.8878      8.7453      8.6468      8.6115      8.6468      8.7453      8.8878    
  9.0508      9.2140      9.3647      9.4972      9.6091      9.6979      9.7602      9.7951      9.8071      9.8068    
  8.8410      8.8608      8.9149      8.9889      9.0643      9.1231      9.1512      9.1402      9.0871      8.9953    
  8.8755      8.7453      8.6273      8.5448      8.5151      8.5448      8.6273      8.7453      8.8755      8.9953    
  9.0871      9.1402      9.1512      9.1231      9.0643      8.9889      8.9149      8.8608      8.4480      8.4736    
  8.5448      8.6468      8.7589      8.8588      8.9273      8.9517      8.9273      8.8588      8.7589      8.6468    
  8.5448      8.4736      8.4480      8.4736      8.5448      8.6468      8.7589      8.8588      8.9273      8.9517    
  8.9273      8.8588      8.7589      8.6468      8.5448      8.4736      8.3460      8.3726      8.4472      8.5549    
  8.6747      8.7834      8.8607      8.8927      8.8748      8.8120      8.7177      8.6115      8.5151      8.4480    
  8.4241      8.4480      8.5151      8.6115      8.7177      8.8120      8.8748      8.8927      8.8607      8.7834    
  8.6747      8.5549      8.4472      8.3726      8.4480      8.4736      8.5448      8.6468      8.7589      8.8588    
  8.9273      8.9517      8.9273      8.8588      8.7589      8.6468      8.5448      8.4736      8.4480      8.4736    
  8.5448      8.6468      8.7589      8.8588      8.9273      8.9517      8.9273      8.8588      8.7589      8.6468    
  8.5448      8.4736      8.8410      8.8608      8.9149      8.9889      9.0643      9.1231      9.1512      9.1402    
  9.0871      8.9953      8.8755      8.7453      8.6273      8.5448      8.5151      8.5448      8.6273      8.7453    
  8.8755      8.9953      9.0871      9.1402      9.1512      9.1231      9.0643      8.9889      8.9149      8.8608    
  9.8051      9.8068      9.8071      9.7951      9.7602      9.6979      9.6091      9.4972      9.3647      9.2140    
  9.0508      8.8878      8.7453      8.6468      8.6115      8.6468      8.7453      8.8878      9.0508      9.2140    
  9.3647      9.4972      9.6091      9.6979      9.7602      9.7951      9.8071      9.8068      11.871      11.823    
  11.686      11.463      11.162      10.811      10.446      10.101      9.7895      9.5132      9.2668      9.0508    
  8.8755      8.7589      8.7177      8.7589      8.8755      9.0508      9.2668      9.5132      9.7895      10.101    
  10.446      10.811      11.162      11.463      11.686      11.823      16.620      16.388      15.740      14.812    
  13.789      12.809      11.889      11.077      10.418      9.9054      9.5132      9.2140      8.9953      8.8588    
  8.8120      8.8588      8.9953      9.2140      9.5132      9.9054      10.418      11.077      11.889      12.809    
  13.789      14.812      15.740      16.388      27.190      26.556      24.758      22.118      19.148      16.401    
  14.231      12.591      11.328      10.418      9.7895      9.3647      9.0871      8.9273      8.8748      8.9273    
  9.0871      9.3647      9.7895      10.418      11.328      12.591      14.231      16.401      19.148      22.118    
  24.758      26.556      46.522      45.225      41.508      35.931      29.449      23.227      18.229      14.809    
  12.591      11.077      10.101      9.4972      9.1402      8.9517      8.8927      8.9517      9.1402      9.4972    
  10.101      11.077      12.591      14.809      18.229      23.227      29.449      35.931      41.508      45.225    
  76.031      73.795      67.353      57.572      45.972      34.496      24.927      18.229      14.231      11.889    
  10.446      9.6091      9.1512      8.9273      8.8607      8.9273      9.1512      9.6091      10.446      11.889    
  14.231      18.229      24.927      34.496      45.972      57.572      67.353      73.795      114.66      111.23    
  101.34      86.262      68.220      50.058      34.496      23.227      16.401      12.809      10.811      9.6979    
  9.1231      8.8588      8.7834      8.8588      9.1231      9.6979      10.811      12.809      16.401      23.227    
  34.496      50.058      68.220      86.262      101.34      111.23      158.74      153.92      140.06      119.00    
  93.780      68.220      45.972      29.449      19.148      13.789      11.162      9.7602      9.0643      8.7589    
  8.6747      8.7589      9.0643      9.7602      11.162      13.789      19.148      29.449      45.972      68.220    
  93.780      119.00      140.06      153.92      202.66      196.39      178.42      151.30      119.00      86.262    
  57.572      35.931      22.118      14.812      11.463      9.7951      8.9889      8.6468      8.5549      8.6468    
  8.9889      9.7951      11.463      14.812      22.118      35.931      57.572      86.262      119.00      151.30    
  178.42      196.39      240.11      232.51      210.86      178.42      140.06      101.34      67.353      41.508    
  24.758      15.740      11.686      9.8071      8.9149      8.5448      8.4472      8.5448      8.9149      9.8071    
  11.686      15.740      24.758      41.508      67.353      101.34      140.06      178.42      210.86      232.51    
  265.29      256.75      232.51      196.39      153.92      111.23      73.795      45.225      26.556      16.388    
  11.823      9.8068      8.8608      8.4736      8.3726      8.4736      8.8608      9.8068      11.823      16.388    
  26.556      45.225      73.795      111.23      153.92      196.39      232.51      256.75      247.99      240.11    
  217.66      184.09      144.45      104.48      69.404      42.686      25.321      15.935      11.721      9.7994    
  8.8903      8.5151      8.4165      8.5151      8.8903      9.7994      11.721      15.935      25.321      42.686    
  69.404      104.48      144.45      184.09      217.66      240.11      240.11      232.51      210.86      178.42    
  140.06      101.34      67.353      41.508      24.758      15.740      11.686      9.8071      8.9149      8.5448    
  8.4472      8.5448      8.9149      9.8071      11.686      15.740      24.758      41.508      67.353      101.34    
  140.06      178.42      210.86      232.51      217.66      210.86      191.42      162.16      127.42      92.278    
  61.464      38.144      23.171      15.196      11.579      9.8245      8.9818      8.6273      8.5328      8.6273    
  8.9818      9.8245      11.579      15.196      23.171      38.144      61.464      92.278      127.42      162.16    
  191.42      210.86      184.09      178.42      162.16      137.57      108.23      78.519      52.570      33.133    
  20.857      14.419      11.397      9.8374      9.0742      8.7453      8.6559      8.7453      9.0742      9.8374    
  11.397      14.419      20.857      33.133      52.570      78.519      108.23      137.57      162.16      178.42    
  144.45      140.06      127.42      108.23      85.295      62.133      42.104      27.367      18.279      13.557    
  11.145      9.8320      9.1707      8.8755      8.7931      8.8755      9.1707      9.8320      11.145      13.557    
  18.279      27.367      42.104      62.133      85.295      108.23      127.42      140.06      104.48      101.34    
  92.278      78.519      62.133      45.755      31.852      21.894      15.912      12.702      10.846      9.8011    
  9.2523      8.9953      8.9211      8.9953      9.2523      9.8012      10.846      12.702      15.912      21.894    
  31.852      45.755      62.133      78.519      92.278      101.34      69.404      67.353      61.464      52.570    
  42.104      31.852      23.399      17.542      14.025      11.876      10.534      9.7451      9.3058      9.0871    
  9.0211      9.0871      9.3058      9.7451      10.534      11.876      14.025      17.542      23.399      31.852    
  42.104      52.570      61.464      67.353      42.686      41.508      38.144      33.133      27.367      21.894    
  17.542      14.556      12.541      11.147      10.237      9.6675      9.3243      9.1402      9.0820      9.1402    
  9.3243      9.6675      10.237      11.147      12.541      14.556      17.542      21.894      27.367      33.133    
  38.144      41.508      25.321      24.758      23.171      20.857      18.279      15.912      14.025      12.541    
  11.389      10.553      9.9703      9.5709      9.3058      9.1512      9.1000      9.1512      9.3058      9.5709    
  9.9703      10.553      11.389      12.541      14.025      15.912      18.279      20.857      23.171      24.758    
  15.935      15.740      15.196      14.419      13.557      12.702      11.876      11.147      10.553      10.090    
  9.7327      9.4568      9.2523      9.1231      9.0784      9.1231      9.2523      9.4568      9.7327      10.090    
  10.553      11.147      11.876      12.702      13.557      14.419      15.196      15.740      11.721      11.686    
  11.579      11.397      11.145      10.846      10.534      10.237      9.9703      9.7327      9.5189      9.3283    
  9.1707      9.0643      9.0264      9.0643      9.1707      9.3283      9.5189      9.7327      9.9703      10.237    
  10.534      10.846      11.145      11.397      11.579      11.686      9.7994      9.8071      9.8245      9.8374    
  9.8320      9.8011      9.7451      9.6675      9.5709      9.4568      9.3283      9.1949      9.0742      8.9889    
  8.9579      8.9889      9.0742      9.1949      9.3283      9.4568      9.5709      9.6675      9.7451      9.8011    
  9.8320      9.8374      9.8245      9.8071      8.8903      8.9149      8.9818      9.0742      9.1707      9.2523    
  9.3058      9.3243      9.3058      9.2523      9.1707      9.0742      8.9818      8.9149      8.8903      8.9149    
  8.9818      9.0742      9.1707      9.2523      9.3058      9.3243      9.3058      9.2523      9.1707      9.0742    
  8.9818      8.9149      8.5151      8.5448      8.6273      8.7453      8.8755      8.9953      9.0871      9.1402    
  9.1512      9.1231      9.0643      8.9889      8.9149      8.8608      8.8410      8.8608      8.9149      8.9889    
  9.0643      9.1231      9.1512      9.1402      9.0871      8.9953      8.8755      8.7453      8.6273      8.5448    
  8.4165      8.4472      8.5328      8.6559      8.7931      8.9211      9.0211      9.0820      9.1000      9.0784    
  9.0264      8.9579      8.8903      8.8410      8.8229      8.8410      8.8903      8.9579      9.0264      9.0784    
  9.1000      9.0820      9.0211      8.9211      8.7931      8.6559      8.5328      8.4472      8.5151      8.5448    
  8.6273      8.7453      8.8755      8.9953      9.0871      9.1402      9.1512      9.1231      9.0643      8.9889    
  8.9149      8.8608      8.8410      8.8608      8.9149      8.9889      9.0643      9.1231      9.1512      9.1402    
  9.0871      8.9953      8.8755      8.7453      8.6273      8.5448      8.8903      8.9149      8.9818      9.0742    
  9.1707      9.2523      9.3058      9.3243      9.3058      9.2523      9.1707      9.0742      8.9818      8.9149    
  8.8903      8.9149      8.9818      9.0742      9.1707      9.2523      9.3058      9.3243      9.3058      9.2523    
  9.1707      9.0742      8.9818      8.9149      9.7994      9.8071      9.8245      9.8374      9.8320      9.8012    
  9.7451      9.6675      9.5709      9.4568      9.3283      9.1949      9.0742      8.9889      8.9579      8.9889    
  9.0742      9.1949      9.3283      9.4568      9.5709      9.6675      9.7451      9.8011      9.8320      9.8374    
  9.8245      9.8071      11.721      11.686      11.579      11.397      11.145      10.846      10.534      10.237    
  9.9703      9.7327      9.5189      9.3283      9.1707      9.0643      9.0264      9.0643      9.1707      9.3283    
  9.5189      9.7327      9.9703      10.237      10.534      10.846      11.145      11.397      11.579      11.686    
  15.935      15.740      15.196      14.419      13.557      12.702      11.876      11.147      10.553      10.090    
  9.7327      9.4568      9.2523      9.1231      9.0784      9.1231      9.2523      9.4568      9.7327      10.090    
  10.553      11.147      11.876      12.702      13.557      14.419      15.196      15.740      25.321      24.758    
  23.171      20.857      18.279      15.912      14.025      12.541      11.389      10.553      9.9703      9.5709    
  9.3058      9.1512      9.1000      9.1512      9.3058      9.5709      9.9703      10.553      11.389      12.541    
  14.025      15.912      18.279      20.857      23.171      24.758      42.686      41.508      38.144      33.133    
  27.367      21.894      17.542      14.556      12.541      11.147      10.237      9.6675      9.3243      9.1402    
  9.0820      9.1402      9.3243      9.6675      10.237      11.147      12.541      14.556      17.542      21.894    
  27.367      33.133      38.144      41.508      69.404      67.353      61.464      52.570      42.104      31.852    
  23.399      17.542      14.025      11.876      10.534      9.7451      9.3058      9.0871      9.0211      9.0871    
  9.3058      9.7451      10.534      11.876      14.025      17.542      23.399      31.852      42.104      52.570    
  61.464      67.353      104.48      101.34      92.278      78.519      62.133      45.755      31.852      21.894    
  15.912      12.702      10.846      9.8011      9.2523      8.9953      8.9211      8.9953      9.2523      9.8011    
  10.846      12.702      15.912      21.894      31.852      45.755      62.133      78.519      92.278      101.34    
  144.45      140.06      127.42      108.23      85.295      62.133      42.104      27.367      18.279      13.557    
  11.145      9.8320      9.1707      8.8755      8.7931      8.8755      9.1707      9.8320      11.145      13.557    
  18.279      27.367      42.104      62.133      85.295      108.23      127.42      140.06      184.09      178.42    
  162.16      137.57      108.23      78.519      52.570      33.133      20.857      14.419      11.397      9.8374    
  9.0742      8.7453      8.6559      8.7453      9.0742      9.8374      11.397      14.419      20.857      33.133    
  52.570      78.519      108.23      137.57      162.16      178.42      217.66      210.86      191.42      162.16    
  127.42      92.278      61.464      38.144      23.171      15.196      11.579      9.8245      8.9818      8.6273    
  8.5328      8.6273      8.9818      9.8245      11.579      15.196      23.171      38.144      61.464      92.278    
  127.42      162.16      191.42      210.86      240.11      232.51      210.86      178.42      140.06      101.34    
  67.353      41.508      24.758      15.740      11.686      9.8071      8.9149      8.5448      8.4472      8.5448    
  8.9149      9.8071      11.686      15.740      24.758      41.508      67.353      101.34      140.06      178.42    
  210.86      232.51      209.16      202.66      184.09      156.08      122.74      88.959      59.322      36.917    
  22.568      14.952      11.484      9.7786      8.9579      8.6115      8.5189      8.6115      8.9579      9.7786    
  11.484      14.952      22.568      36.917      59.322      88.959      122.74      156.08      184.09      202.66    
  202.66      196.39      178.42      151.30      119.00      86.262      57.572      35.931      22.119      14.812    
  11.463      9.7951      8.9889      8.6468      8.5549      8.6468      8.9889      9.7951      11.463      14.812    
  22.118      35.931      57.572      86.262      119.00      151.30      178.42      196.39      184.09      178.42    
  162.16      137.57      108.23      78.519      52.570      33.133      20.857      14.419      11.397      9.8374    
  9.0742      8.7453      8.6559      8.7453      9.0742      9.8374      11.397      14.419      20.857      33.133    
  52.570      78.519      108.23      137.57      162.16      178.42      156.08      151.30      137.57      116.76    
  91.913      66.825      45.084      29.014      19.041      13.856      11.278      9.8888      9.1949      8.8878    