W                                       
   1.00000000000000     
     3.189680    0.000000    0.000000
     0.000000    3.189680    0.000000
     0.000000    0.000000    3.189680
   W 
     2
Direct
  0.000000  0.000000  0.000000
  0.500000  0.500000  0.500000
 
   28   28   28
 0.28341697938E+03 0.27417308287E+03 0.24799229008E+03 0.20915524310E+03 0.16370585949E+03
 0.11818914067E+03 0.78328730688E+02 0.47858282528E+02 0.27848157412E+02 0.16864411051E+02
 0.11922999047E+02 0.98055867191E+01 0.88228931383E+01 0.84240813714E+01 0.83208817247E+01
 0.84240813714E+01 0.88228931383E+01 0.98055867191E+01 0.11922999047E+02 0.16864411051E+02
 0.27848157412E+02 0.47858282528E+02 0.78328730688E+02 0.11818914067E+03 0.16370585949E+03
 0.20915524310E+03 0.24799229008E+03 0.27417308287E+03 0.27417308287E+03 0.26529221785E+03
 0.24010661201E+03 0.20266289413E+03 0.15873683477E+03 0.11466075934E+03 0.76030767640E+02
 0.46521750193E+02 0.27189944520E+02 0.16619537131E+02 0.11870763460E+02 0.98050900613E+01
 0.88409723121E+01 0.84480485819E+01 0.83460027289E+01 0.84480484021E+01 0.88409720546E+01
 0.98050898359E+01 0.11870763252E+02 0.16619536734E+02 0.27189943640E+02 0.46521748770E+02
 0.76030766243E+02 0.11466075921E+03 0.15873683716E+03 0.20266289917E+03 0.24010661800E+03
 0.26529222195E+03 0.24799229008E+03 0.24010661201E+03 0.21766172812E+03 0.18408981907E+03
 0.14444978779E+03 0.10448309907E+03 0.69403863732E+02 0.42686371143E+02 0.25320738317E+02
 0.15934509298E+02 0.11720678551E+02 0.97993546322E+01 0.88903293993E+01 0.85150655969E+01
 0.84165423763E+01 0.85150652946E+01 0.88903289624E+01 0.97993542477E+01 0.11720678219E+02
 0.15934508708E+02 0.25320736987E+02 0.42686368891E+02 0.69403861320E+02 0.10448309836E+03
 0.14444979077E+03 0.18408982609E+03 0.21766173676E+03 0.24010661800E+03 0.20915524310E+03
 0.20266289413E+03 0.18408981907E+03 0.15608168626E+03 0.12274162064E+03 0.88959093523E+02
 0.59322299927E+02 0.36916742556E+02 0.22568183282E+02 0.14952323587E+02 0.11483731060E+02
 0.97786180647E+01 0.89579085986E+01 0.86114859172E+01 0.85188716268E+01 0.86114855823E+01
 0.89579081052E+01 0.97786176238E+01 0.11483730718E+02 0.14952323080E+02 0.22568182106E+02
 0.36916740375E+02 0.59322297225E+02 0.88959091917E+02 0.12274162211E+03 0.15608169147E+03
 0.18408982609E+03 0.20266289917E+03 0.16370585949E+03 0.15873683477E+03 0.14444978780E+03
 0.12274162064E+03 0.96737737147E+02 0.70349194223E+02 0.47334013091E+02 0.30188943827E+02
 0.19460117344E+02 0.13870778626E+02 0.11166338014E+02 0.97339476359E+01 0.90263788725E+01
 0.87176824768E+01 0.86329979241E+01 0.87176821940E+01 0.90263784406E+01 0.97339472353E+01
 0.11166337747E+02 0.13870778384E+02 0.19460116761E+02 0.30188942468E+02 0.47334010930E+02
 0.70349192072E+02 0.96737736385E+02 0.12274162211E+03 0.14444979077E+03 0.15873683716E+03
 0.11818914067E+03 0.11466075934E+03 0.10448309908E+03 0.88959093530E+02 0.70349194227E+02
 0.51572374657E+02 0.35434724072E+02 0.23705278770E+02 0.16578538111E+02 0.12844883796E+02
 0.10797278818E+02 0.96617638760E+01 0.90784496910E+01 0.88119699579E+01 0.87363177707E+01
 0.88119697750E+01 0.90784493904E+01 0.96617635714E+01 0.10797278644E+02 0.12844883821E+02
 0.16578538183E+02 0.23705278483E+02 0.35434722990E+02 0.51572372751E+02 0.70349192071E+02
 0.88959091914E+02 0.10448309836E+03 0.11466075921E+03 0.78328730688E+02 0.76030767644E+02
 0.69403863739E+02 0.59322299935E+02 0.47334013097E+02 0.35434724075E+02 0.25474563411E+02
 0.18477904960E+02 0.14303932743E+02 0.11893250006E+02 0.10416321589E+02 0.95636027969E+01
 0.91000423649E+01 0.88748430952E+01 0.88080926711E+01 0.88748430104E+01 0.91000421981E+01
 0.95636025908E+01 0.10416321472E+02 0.11893250153E+02 0.14303933199E+02 0.18477905446E+02
 0.25474563365E+02 0.35434722988E+02 0.47334010928E+02 0.59322297222E+02 0.69403861317E+02
 0.76030766240E+02 0.47858282528E+02 0.46521750196E+02 0.42686371148E+02 0.36916742563E+02
 0.30188943832E+02 0.23705278774E+02 0.18477904961E+02 0.14900912510E+02 0.12607857338E+02
 0.11055125652E+02 0.10056311170E+02 0.94427151987E+01 0.90820124739E+01 0.88927364806E+01
 0.88337634148E+01 0.88927364512E+01 0.90820123860E+01 0.94427150490E+01 0.10056311052E+02
 0.11055125753E+02 0.12607857798E+02 0.14900913206E+02 0.18477905445E+02 0.23705278482E+02
 0.30188942466E+02 0.36916740372E+02 0.42686368889E+02 0.46521748768E+02 0.27848157412E+02
 0.27189944521E+02 0.25320738320E+02 0.22568183286E+02 0.19460117348E+02 0.16578538113E+02
 0.14303932745E+02 0.12607857338E+02 0.11308740825E+02 0.10374853035E+02 0.97330466619E+01
 0.93015108866E+01 0.90211345705E+01 0.88606781730E+01 0.88080926712E+01 0.88606781402E+01
 0.90211344805E+01 0.93015107305E+01 0.97330464980E+01 0.10374852998E+02 0.11308741044E+02
 0.12607857797E+02 0.14303933199E+02 0.16578538182E+02 0.19460116760E+02 0.22568182105E+02
 0.25320736986E+02 0.27189943639E+02 0.16864411051E+02 0.16619537131E+02 0.15934509299E+02
 0.14952323589E+02 0.13870778628E+02 0.12844883798E+02 0.11893250007E+02 0.11055125652E+02
 0.10374853035E+02 0.98483740520E+01 0.94469488066E+01 0.91424520884E+01 0.89210569738E+01
 0.87834053102E+01 0.87363177709E+01 0.87834052275E+01 0.89210568142E+01 0.91424518717E+01
 0.94469485788E+01 0.98483738853E+01 0.10374852998E+02 0.11055125753E+02 0.11893250153E+02
 0.12844883820E+02 0.13870778384E+02 0.14952323081E+02 0.15934508708E+02 0.16619536734E+02
 0.11922999047E+02 0.11870763460E+02 0.11720678552E+02 0.11483731060E+02 0.11166338015E+02
 0.10797278819E+02 0.10416321590E+02 0.10056311170E+02 0.97330466618E+01 0.94469488065E+01
 0.91930899521E+01 0.89717170301E+01 0.87930906726E+01 0.86747001563E+01 0.86329979243E+01
 0.86747000102E+01 0.87930904208E+01 0.89717167346E+01 0.91930896714E+01 0.94469485786E+01
 0.97330464976E+01 0.10056311051E+02 0.10416321471E+02 0.10797278644E+02 0.11166337747E+02
 0.11483730719E+02 0.11720678220E+02 0.11870763253E+02 0.98055867191E+01 0.98050900614E+01
 0.97993546324E+01 0.97786180652E+01 0.97339476366E+01 0.96617638766E+01 0.95636027973E+01
 0.94427151988E+01 0.93015108865E+01 0.91424520881E+01 0.89717170299E+01 0.88026388791E+01
 0.86558583801E+01 0.85549424224E+01 0.85188716269E+01 0.85549422375E+01 0.86558580716E+01
 0.88026385382E+01 0.89717167346E+01 0.91424518714E+01 0.93015107300E+01 0.94427150484E+01
 0.95636025901E+01 0.96617635710E+01 0.97339472352E+01 0.97786176239E+01 0.97993542478E+01
 0.98050898360E+01 0.88228931383E+01 0.88409723123E+01 0.88903293997E+01 0.89579085992E+01
 0.90263788733E+01 0.90784496917E+01 0.91000423654E+01 0.90820124740E+01 0.90211345703E+01
 0.89210569735E+01 0.87930906723E+01 0.86558583800E+01 0.85327735886E+01 0.84472088547E+01
 0.84165423763E+01 0.84472086826E+01 0.85327733033E+01 0.86558580716E+01 0.87930904208E+01
 0.89210568140E+01 0.90211344801E+01 0.90820123855E+01 0.91000421975E+01 0.90784493898E+01
 0.90263784401E+01 0.89579081048E+01 0.88903289621E+01 0.88409720544E+01 0.84240813714E+01
 0.84480485821E+01 0.85150655972E+01 0.86114859177E+01 0.87176824774E+01 0.88119699585E+01
 0.88748430956E+01 0.88927364807E+01 0.88606781728E+01 0.87834053099E+01 0.86747001560E+01
 0.85549424222E+01 0.84472088547E+01 0.83726317715E+01 0.83460027289E+01 0.83726316677E+01
 0.84472086826E+01 0.85549422375E+01 0.86747000101E+01 0.87834052274E+01 0.88606781400E+01
 0.88927364510E+01 0.88748430102E+01 0.88119697748E+01 0.87176821936E+01 0.86114855819E+01
 0.85150652943E+01 0.84480484019E+01 0.83208817247E+01 0.83460027289E+01 0.84165423763E+01
 0.85188716269E+01 0.86329979243E+01 0.87363177709E+01 0.88080926712E+01 0.88337634148E+01
 0.88080926711E+01 0.87363177707E+01 0.86329979241E+01 0.85188716268E+01 0.84165423763E+01
 0.83460027289E+01 0.83208817247E+01 0.83460027289E+01 0.84165423763E+01 0.85188716268E+01
 0.86329979241E+01 0.87363177707E+01 0.88080926711E+01 0.88337634148E+01 0.88080926712E+01
 0.87363177709E+01 0.86329979243E+01 0.85188716269E+01 0.84165423763E+01 0.83460027289E+01
 0.84240813714E+01 0.84480484019E+01 0.85150652943E+01 0.86114855819E+01 0.87176821936E+01
 0.88119697748E+01 0.88748430102E+01 0.88927364510E+01 0.88606781400E+01 0.87834052274E+01
 0.86747000101E+01 0.85549422375E+01 0.84472086826E+01 0.83726316677E+01 0.83460027289E+01
 0.83726317715E+01 0.84472088547E+01 0.85549424222E+01 0.86747001560E+01 0.87834053099E+01
 0.88606781728E+01 0.88927364807E+01 0.88748430956E+01 0.88119699585E+01 0.87176824774E+01
 0.86114859177E+01 0.85150655972E+01 0.84480485821E+01 0.88228931383E+01 0.88409720544E+01
 0.88903289621E+01 0.89579081048E+01 0.90263784401E+01 0.90784493898E+01 0.91000421975E+01
 0.90820123855E+01 0.90211344801E+01 0.89210568140E+01 0.87930904208E+01 0.86558580716E+01
 0.85327733033E+01 0.84472086826E+01 0.84165423763E+01 0.84472088547E+01 0.85327735886E+01
 0.86558583800E+01 0.87930906723E+01 0.89210569735E+01 0.90211345703E+01 0.90820124740E+01
 0.91000423654E+01 0.90784496917E+01 0.90263788733E+01 0.89579085992E+01 0.88903293997E+01
 0.88409723123E+01 0.98055867191E+01 0.98050898360E+01 0.97993542478E+01 0.97786176239E+01
 0.97339472352E+01 0.96617635710E+01 0.95636025901E+01 0.94427150484E+01 0.93015107300E+01
 0.91424518714E+01 0.89717167346E+01 0.88026385382E+01 0.86558580716E+01 0.85549422375E+01
 0.85188716269E+01 0.85549424224E+01 0.86558583801E+01 0.88026388791E+01 0.89717170299E+01
 0.91424520881E+01 0.93015108865E+01 0.94427151988E+01 0.95636027973E+01 0.96617638766E+01
 0.97339476366E+01 0.97786180652E+01 0.97993546324E+01 0.98050900614E+01 0.11922999047E+02
 0.11870763253E+02 0.11720678220E+02 0.11483730719E+02 0.11166337747E+02 0.10797278644E+02
 0.10416321471E+02 0.10056311051E+02 0.97330464976E+01 0.94469485786E+01 0.91930896714E+01
 0.89717167346E+01 0.87930904208E+01 0.86747000102E+01 0.86329979243E+01 0.86747001563E+01
 0.87930906726E+01 0.89717170301E+01 0.91930899521E+01 0.94469488065E+01 0.97330466618E+01
 0.10056311170E+02 0.10416321590E+02 0.10797278819E+02 0.11166338015E+02 0.11483731060E+02
 0.11720678552E+02 0.11870763460E+02 0.16864411051E+02 0.16619536734E+02 0.15934508708E+02
 0.14952323081E+02 0.13870778384E+02 0.12844883820E+02 0.11893250153E+02 0.11055125753E+02
 0.10374852998E+02 0.98483738853E+01 0.94469485788E+01 0.91424518717E+01 0.89210568142E+01
 0.87834052275E+01 0.87363177709E+01 0.87834053102E+01 0.89210569738E+01 0.91424520884E+01
 0.94469488066E+01 0.98483740520E+01 0.10374853035E+02 0.11055125652E+02 0.11893250007E+02
 0.12844883798E+02 0.13870778628E+02 0.14952323589E+02 0.15934509299E+02 0.16619537131E+02
 0.27848157412E+02 0.27189943639E+02 0.25320736986E+02 0.22568182105E+02 0.19460116760E+02
 0.16578538182E+02 0.14303933199E+02 0.12607857797E+02 0.11308741044E+02 0.10374852998E+02
 0.97330464980E+01 0.93015107305E+01 0.90211344805E+01 0.88606781402E+01 0.88080926712E+01
 0.88606781730E+01 0.90211345705E+01 0.93015108866E+01 0.97330466619E+01 0.10374853035E+02
 0.11308740825E+02 0.12607857338E+02 0.14303932745E+02 0.16578538113E+02 0.19460117348E+02
 0.22568183286E+02 0.25320738320E+02 0.27189944521E+02 0.47858282528E+02 0.46521748768E+02
 0.42686368889E+02 0.36916740372E+02 0.30188942466E+02 0.23705278482E+02 0.18477905445E+02
 0.14900913206E+02 0.12607857798E+02 0.11055125753E+02 0.10056311052E+02 0.94427150490E+01
 0.90820123860E+01 0.88927364512E+01 0.88337634148E+01 0.88927364806E+01 0.90820124739E+01
 0.94427151987E+01 0.10056311170E+02 0.11055125652E+02 0.12607857338E+02 0.14900912510E+02
 0.18477904961E+02 0.23705278774E+02 0.30188943832E+02 0.36916742563E+02 0.42686371148E+02
 0.46521750196E+02 0.78328730688E+02 0.76030766240E+02 0.69403861317E+02 0.59322297222E+02
 0.47334010928E+02 0.35434722988E+02 0.25474563365E+02 0.18477905446E+02 0.14303933199E+02
 0.11893250153E+02 0.10416321472E+02 0.95636025908E+01 0.91000421981E+01 0.88748430104E+01
 0.88080926711E+01 0.88748430952E+01 0.91000423649E+01 0.95636027969E+01 0.10416321589E+02
 0.11893250006E+02 0.14303932743E+02 0.18477904960E+02 0.25474563411E+02 0.35434724075E+02
 0.47334013097E+02 0.59322299935E+02 0.69403863739E+02 0.76030767644E+02 0.11818914067E+03
 0.11466075921E+03 0.10448309836E+03 0.88959091914E+02 0.70349192071E+02 0.51572372751E+02
 0.35434722990E+02 0.23705278483E+02 0.16578538183E+02 0.12844883821E+02 0.10797278644E+02
 0.96617635714E+01 0.90784493904E+01 0.88119697750E+01 0.87363177707E+01 0.88119699579E+01
 0.90784496910E+01 0.96617638760E+01 0.10797278818E+02 0.12844883796E+02 0.16578538111E+02
 0.23705278770E+02 0.35434724072E+02 0.51572374657E+02 0.70349194227E+02 0.88959093530E+02
 0.10448309908E+03 0.11466075934E+03 0.16370585949E+03 0.15873683716E+03 0.14444979077E+03
 0.12274162211E+03 0.96737736385E+02 0.70349192072E+02 0.47334010930E+02 0.30188942468E+02
 0.19460116761E+02 0.13870778384E+02 0.11166337747E+02 0.97339472353E+01 0.90263784406E+01
 0.87176821940E+01 0.86329979241E+01 0.87176824768E+01 0.90263788725E+01 0.97339476359E+01
 0.11166338014E+02 0.13870778626E+02 0.19460117344E+02 0.30188943827E+02 0.47334013091E+02
 0.70349194223E+02 0.96737737147E+02 0.12274162064E+03 0.14444978780E+03 0.15873683477E+03
 0.20915524310E+03 0.20266289917E+03 0.18408982609E+03 0.15608169147E+03 0.12274162211E+03
 0.88959091917E+02 0.59322297225E+02 0.36916740375E+02 0.22568182106E+02 0.14952323080E+02
 0.11483730718E+02 0.97786176238E+01 0.89579081052E+01 0.86114855823E+01 0.85188716268E+01
 0.86114859172E+01 0.89579085986E+01 0.97786180647E+01 0.11483731060E+02 0.14952323587E+02
 0.22568183282E+02 0.36916742556E+02 0.59322299927E+02 0.88959093523E+02 0.12274162064E+03
 0.15608168626E+03 0.18408981907E+03 0.20266289413E+03 0.24799229008E+03 0.24010661800E+03
 0.21766173676E+03 0.18408982609E+03 0.14444979077E+03 0.10448309836E+03 0.69403861320E+02
 0.42686368891E+02 0.25320736987E+02 0.15934508708E+02 0.11720678219E+02 0.97993542477E+01
 0.88903289624E+01 0.85150652946E+01 0.84165423763E+01 0.85150655969E+01 0.88903293993E+01
 0.97993546322E+01 0.11720678551E+02 0.15934509298E+02 0.25320738317E+02 0.42686371143E+02
 0.69403863732E+02 0.10448309907E+03 0.14444978779E+03 0.18408981907E+03 0.21766172812E+03
 0.24010661201E+03 0.27417308287E+03 0.26529222195E+03 0.24010661800E+03 0.20266289917E+03
 0.15873683716E+03 0.11466075921E+03 0.76030766243E+02 0.46521748770E+02 0.27189943640E+02
 0.16619536734E+02 0.11870763252E+02 0.98050898359E+01 0.88409720546E+01 0.84480484021E+01
 0.83460027289E+01 0.84480485819E+01 0.88409723121E+01 0.98050900613E+01 0.11870763460E+02
 0.16619537131E+02 0.27189944520E+02 0.46521750193E+02 0.76030767640E+02 0.11466075934E+03
 0.15873683477E+03 0.20266289413E+03 0.24010661201E+03 0.26529221785E+03 0.27417308287E+03
 0.26529221785E+03 0.24010661201E+03 0.20266289413E+03 0.15873683477E+03 0.11466075934E+03
 0.76030767644E+02 0.46521750196E+02 0.27189944521E+02 0.16619537131E+02 0.11870763460E+02
 0.98050900614E+01 0.88409723123E+01 0.84480485821E+01 0.83460027289E+01 0.84480484019E+01
 0.88409720544E+01 0.98050898360E+01 0.11870763253E+02 0.16619536734E+02 0.27189943639E+02
 0.46521748768E+02 0.76030766240E+02 0.11466075921E+03 0.15873683716E+03 0.20266289917E+03
 0.24010661800E+03 0.26529222195E+03 0.26529221785E+03 0.25675336655E+03 0.23250767519E+03
 0.19638646885E+03 0.15391670733E+03 0.11122945760E+03 0.73794888736E+02 0.45224767120E+02
 0.26555988549E+02 0.16387660883E+02 0.11823298821E+02 0.98067857082E+01 0.88607885055E+01
 0.84735700181E+01 0.83726317715E+01 0.84735696974E+01 0.88607880544E+01 0.98067853338E+01
 0.11823298503E+02 0.16387660238E+02 0.26555987006E+02 0.45224764504E+02 0.73794886013E+02
 0.11122945702E+03 0.15391671121E+03 0.19638647754E+03 0.23250768571E+03 0.25675337380E+03
 0.24010661201E+03 0.23250767519E+03 0.21085700097E+03 0.17841984696E+03 0.14005635731E+03
 0.10133654836E+03 0.67353445528E+02 0.41507955817E+02 0.24758386510E+02 0.15739625779E+02
 0.11685576309E+02 0.98071263045E+01 0.89148517790E+01 0.85447577453E+01 0.84472088547E+01
 0.85447573667E+01 0.89148512530E+01 0.98071258934E+01 0.11685576020E+02 0.15739625178E+02
 0.24758384879E+02 0.41507952791E+02 0.67353442005E+02 0.10133654680E+03 0.14005636048E+03
 0.17841985554E+03 0.21085701191E+03 0.23250768289E+03 0.20266289413E+03 0.19638646885E+03
 0.17841984696E+03 0.15130121140E+03 0.11899669572E+03 0.86262010040E+02 0.57572461453E+02
 0.35930714391E+02 0.22118500496E+02 0.14811567003E+02 0.11463374031E+02 0.97950793545E+01
 0.89888815765E+01 0.86467870491E+01 0.85549424222E+01 0.86467867025E+01 0.89888810958E+01
 0.97950789998E+01 0.11463373870E+02 0.14811566709E+02 0.22118499395E+02 0.35930711928E+02
 0.57572458022E+02 0.86262007460E+02 0.11899669642E+03 0.15130121642E+03 0.17841985430E+03
 0.19638647428E+03 0.15873683477E+03 0.15391670733E+03 0.14005635731E+03 0.11899669572E+03
 0.93780407641E+02 0.68219934914E+02 0.45972223887E+02 0.29449124702E+02 0.19147799854E+02
 0.13788617086E+02 0.11162377091E+02 0.97602330273E+01 0.90642781101E+01 0.87588628888E+01
 0.86747001560E+01 0.87588626373E+01 0.90642777534E+01 0.97602327718E+01 0.11162377069E+02
 0.13788617184E+02 0.19147799612E+02 0.29449123490E+02 0.45972221468E+02 0.68219932029E+02
 0.93780405833E+02 0.11899669614E+03 0.14005635951E+03 0.15391670933E+03 0.11466075934E+03
 0.11122945760E+03 0.10133654837E+03 0.86262010044E+02 0.68219934917E+02 0.50057786830E+02
 0.34496049002E+02 0.23227085581E+02 0.16401493226E+02 0.12809363766E+02 0.10810620853E+02
 0.96978918078E+01 0.91230621350E+01 0.88587815730E+01 0.87834053099E+01 0.88587814351E+01
 0.91230619224E+01 0.96978916450E+01 0.10810620908E+02 0.12809364138E+02 0.16401493739E+02
 0.23227085691E+02 0.34496048053E+02 0.50057784605E+02 0.68219931971E+02 0.86262007366E+02
 0.10133654665E+03 0.11122945687E+03 0.76030767640E+02 0.73794888736E+02 0.67353445532E+02
 0.57572461459E+02 0.45972223892E+02 0.34496049004E+02 0.24926808225E+02 0.18228946470E+02
 0.14230561916E+02 0.11888979719E+02 0.10446115128E+02 0.96091176584E+01 0.91512352628E+01
 0.89273373593E+01 0.88606781728E+01 0.89273373103E+01 0.91512351614E+01 0.96091175521E+01
 0.10446115175E+02 0.11888980142E+02 0.14230562768E+02 0.18228947396E+02 0.24926808492E+02
 0.34496047913E+02 0.45972221308E+02 0.57572458015E+02 0.67353442334E+02 0.73794886835E+02
 0.46521750193E+02 0.45224767120E+02 0.41507955820E+02 0.35930714396E+02 0.29449124706E+02
 0.23227085584E+02 0.18228946471E+02 0.14809386928E+02 0.12590564282E+02 0.11077481552E+02
 0.10100602805E+02 0.94972017879E+01 0.91401777346E+01 0.89516873705E+01 0.88927364807E+01
 0.89516873569E+01 0.91401776758E+01 0.94972016878E+01 0.10100602783E+02 0.11077481835E+02
 0.12590565024E+02 0.14809387960E+02 0.18228947227E+02 0.23227085353E+02 0.29449123103E+02
 0.35930711718E+02 0.41507953012E+02 0.45224765331E+02 0.27189944520E+02 0.26555988549E+02
 0.24758386512E+02 0.22118500499E+02 0.19147799857E+02 0.16401493228E+02 0.14230561917E+02
 0.12590564282E+02 0.11327765677E+02 0.10417641124E+02 0.97894766067E+01 0.93647100607E+01
 0.90870511654E+01 0.89273373597E+01 0.88748430956E+01 0.89273373190E+01 0.90870510659E+01
 0.93647099097E+01 0.97894764879E+01 0.10417641195E+02 0.11327766066E+02 0.12590564926E+02
 0.14230562481E+02 0.16401493230E+02 0.19147798976E+02 0.22118498848E+02 0.24758384687E+02
 0.26555987353E+02 0.16619537131E+02 0.16387660883E+02 0.15739625780E+02 0.14811567004E+02
 0.13788617088E+02 0.12809363767E+02 0.11888979720E+02 0.11077481552E+02 0.10417641124E+02
 0.99054301887E+01 0.95131591232E+01 0.92139989428E+01 0.89953170878E+01 0.88587815736E+01
 0.88119699585E+01 0.88587814541E+01 0.89953168727E+01 0.92139986828E+01 0.95131588950E+01
 0.99054300774E+01 0.10417641177E+02 0.11077481716E+02 0.11888979817E+02 0.12809363553E+02
 0.13788616405E+02 0.14811565929E+02 0.15739624652E+02 0.16387660157E+02 0.11870763460E+02
 0.11823298821E+02 0.11685576309E+02 0.11463374032E+02 0.11162377092E+02 0.10810620854E+02
 0.10446115128E+02 0.10100602805E+02 0.97894766065E+01 0.95131591231E+01 0.92668151415E+01
 0.90507815313E+01 0.88755126519E+01 0.87588628894E+01 0.87176824774E+01 0.87588626672E+01
 0.88755122801E+01 0.90507811220E+01 0.92668147977E+01 0.95131588969E+01 0.97894764778E+01
 0.10100602683E+02 0.10446114879E+02 0.10810620358E+02 0.11162376314E+02 0.11463373079E+02
 0.11685575422E+02 0.11823298281E+02 0.98050900613E+01 0.98067857082E+01 0.98071263047E+01
 0.97950793550E+01 0.97602330280E+01 0.96978918084E+01 0.96091176588E+01 0.94972017879E+01
 0.93647100604E+01 0.92139989425E+01 0.90507815310E+01 0.88877923103E+01 0.87452802777E+01
 0.86467870495E+01 0.86114859177E+01 0.86467867394E+01 0.87452797654E+01 0.88877917590E+01
 0.90507810828E+01 0.92139986566E+01 0.93647098915E+01 0.94972016101E+01 0.96091173234E+01
 0.96978912141E+01 0.97602321798E+01 0.97950783866E+01 0.98071254458E+01 0.98067852010E+01
 0.88409723121E+01 0.88607885055E+01 0.89148517792E+01 0.89888815771E+01 0.90642781109E+01
 0.91230621357E+01 0.91512352632E+01 0.91401777347E+01 0.90870511651E+01 0.89953170872E+01
 0.88755126514E+01 0.87452802775E+01 0.86273170302E+01 0.85447577455E+01 0.85150655972E+01
 0.85447574015E+01 0.86273164594E+01 0.87452796603E+01 0.88755121512E+01 0.89953167811E+01
 0.90870510159E+01 0.91401776144E+01 0.91512350143E+01 0.91230616473E+01 0.90642773792E+01
 0.89888807240E+01 0.89148510162E+01 0.88607880537E+01 0.84480485819E+01 0.84735700181E+01
 0.85447577455E+01 0.86467870495E+01 0.87588628894E+01 0.88587815736E+01 0.89273373597E+01
 0.89516873705E+01 0.89273373593E+01 0.88587815730E+01 0.87588628888E+01 0.86467870491E+01
 0.85447577453E+01 0.84735700181E+01 0.84480485821E+01 0.84735697188E+01 0.85447572448E+01
 0.86467865011E+01 0.87588624373E+01 0.88587812944E+01 0.89273372371E+01 0.89516873102E+01
 0.89273372370E+01 0.88587812941E+01 0.87588624369E+01 0.86467865006E+01 0.85447572444E+01
 0.84735697185E+01 0.83460027289E+01 0.83726317715E+01 0.84472088547E+01 0.85549424224E+01
 0.86747001563E+01 0.87834053102E+01 0.88606781730E+01 0.88927364806E+01 0.88748430952E+01
 0.88119699579E+01 0.87176824768E+01 0.86114859172E+01 0.85150655969E+01 0.84480485819E+01
 0.84240813714E+01 0.84480484021E+01 0.85150652946E+01 0.86114855823E+01 0.87176821940E+01
 0.88119697750E+01 0.88748430104E+01 0.88927364512E+01 0.88606781402E+01 0.87834052275E+01
 0.86747000102E+01 0.85549422375E+01 0.84472086826E+01 0.83726316677E+01 0.84480484021E+01
 0.84735696974E+01 0.85447573666E+01 0.86467867024E+01 0.87588626372E+01 0.88587814350E+01
 0.89273373102E+01 0.89516873566E+01 0.89273373186E+01 0.88587814536E+01 0.87588626667E+01
 0.86467867390E+01 0.85447574011E+01 0.84735697185E+01 0.84480484019E+01 0.84735696974E+01
 0.85447573667E+01 0.86467867025E+01 0.87588626373E+01 0.88587814351E+01 0.89273373103E+01
 0.89516873569E+01 0.89273373190E+01 0.88587814541E+01 0.87588626672E+01 0.86467867394E+01
 0.85447574015E+01 0.84735697188E+01 0.88409720546E+01 0.88607880544E+01 0.89148512529E+01
 0.89888810956E+01 0.90642777532E+01 0.91230619222E+01 0.91512351611E+01 0.91401776755E+01
 0.90870510656E+01 0.89953168724E+01 0.88755122798E+01 0.87452797651E+01 0.86273164590E+01
 0.85447572444E+01 0.85150652943E+01 0.85447573666E+01 0.86273166694E+01 0.87452800105E+01
 0.88755125085E+01 0.89953170497E+01 0.90870511797E+01 0.91401777334E+01 0.91512351799E+01
 0.91230619205E+01 0.90642777455E+01 0.89888810897E+01 0.89148512505E+01 0.88607880541E+01
 0.98050898359E+01 0.98067853338E+01 0.98071258935E+01 0.97950790000E+01 0.97602327719E+01
 0.96978916450E+01 0.96091175519E+01 0.94972016876E+01 0.93647099095E+01 0.92139986828E+01
 0.90507811219E+01 0.88877917588E+01 0.87452796599E+01 0.86467865006E+01 0.86114855819E+01
 0.86467867024E+01 0.87452800105E+01 0.88877921769E+01 0.90507815290E+01 0.92139990225E+01
 0.93647101492E+01 0.94972018095E+01 0.96091175482E+01 0.96978915218E+01 0.97602325569E+01
 0.97950787454E+01 0.98071256674E+01 0.98067852010E+01 0.11870763252E+02 0.11823298503E+02
 0.11685576021E+02 0.11463373871E+02 0.11162377069E+02 0.10810620908E+02 0.10446115175E+02
 0.10100602783E+02 0.97894764881E+01 0.95131588953E+01 0.92668147980E+01 0.90507810828E+01
 0.88755121509E+01 0.87588624369E+01 0.87176821936E+01 0.87588626372E+01 0.88755125085E+01
 0.90507815291E+01 0.92668152590E+01 0.95131593015E+01 0.97894767743E+01 0.10100602892E+02
 0.10446115073E+02 0.10810620606E+02 0.11162376630E+02 0.11463373397E+02 0.11685575627E+02
 0.11823298281E+02 0.16619536734E+02 0.16387660238E+02 0.15739625179E+02 0.14811566709E+02
 0.13788617184E+02 0.12809364138E+02 0.11888980142E+02 0.11077481836E+02 0.10417641196E+02
 0.99054300780E+01 0.95131588975E+01 0.92139986569E+01 0.89953167810E+01 0.88587812941E+01
 0.88119697748E+01 0.88587814350E+01 0.89953170498E+01 0.92139990227E+01 0.95131593016E+01
 0.99054304280E+01 0.10417641382E+02 0.11077481777E+02 0.11888979837E+02 0.12809363681E+02
 0.13788616720E+02 0.14811566356E+02 0.15739624976E+02 0.16387660157E+02 0.27189943640E+02
 0.26555987006E+02 0.24758384879E+02 0.22118499394E+02 0.19147799612E+02 0.16401493738E+02
 0.14230562768E+02 0.12590565024E+02 0.11327766067E+02 0.10417641178E+02 0.97894764787E+01
 0.93647098921E+01 0.90870510161E+01 0.89273372370E+01 0.88748430102E+01 0.89273373102E+01
 0.90870511797E+01 0.93647101493E+01 0.97894767743E+01 0.10417641382E+02 0.11327766031E+02
 0.12590564690E+02 0.14230562258E+02 0.16401493310E+02 0.19147799507E+02 0.22118499666E+02
 0.24758385344E+02 0.26555987355E+02 0.46521748770E+02 0.45224764504E+02 0.41507952790E+02
 0.35930711927E+02 0.29449123488E+02 0.23227085689E+02 0.18228947395E+02 0.14809387960E+02
 0.12590564927E+02 0.11077481717E+02 0.10100602684E+02 0.94972016109E+01 0.91401776148E+01
 0.89516873102E+01 0.88927364510E+01 0.89516873566E+01 0.91401777332E+01 0.94972018094E+01
 0.10100602892E+02 0.11077481777E+02 0.12590564690E+02 0.14809387458E+02 0.18228946911E+02
 0.23227085625E+02 0.29449124095E+02 0.35930713099E+02 0.41507954073E+02 0.45224765335E+02
 0.76030766243E+02 0.73794886013E+02 0.67353442003E+02 0.57572458019E+02 0.45972221465E+02
 0.34496048051E+02 0.24926808491E+02 0.18228947227E+02 0.14230562482E+02 0.11888979818E+02
 0.10446114880E+02 0.96091173242E+01 0.91512350148E+01 0.89273372371E+01 0.88606781400E+01
 0.89273373186E+01 0.91512351795E+01 0.96091175478E+01 0.10446115073E+02 0.11888979836E+02
 0.14230562256E+02 0.18228946910E+02 0.24926808447E+02 0.34496048632E+02 0.45972222724E+02
 0.57572459625E+02 0.67353443438E+02 0.73794886840E+02 0.11466075921E+03 0.11122945702E+03
 0.10133654680E+03 0.86262007458E+02 0.68219932027E+02 0.50057784604E+02 0.34496047913E+02
 0.23227085355E+02 0.16401493231E+02 0.12809363554E+02 0.10810620359E+02 0.96978912147E+01
 0.91230616479E+01 0.88587812944E+01 0.87834052274E+01 0.88587814536E+01 0.91230619200E+01
 0.96978915213E+01 0.10810620605E+02 0.12809363679E+02 0.16401493308E+02 0.23227085621E+02
 0.34496048629E+02 0.50057785761E+02 0.68219933227E+02 0.86262008198E+02 0.10133654693E+03
 0.11122945688E+03 0.15873683716E+03 0.15391671121E+03 0.14005636048E+03 0.11899669642E+03
 0.93780405833E+02 0.68219931972E+02 0.45972221310E+02 0.29449123105E+02 0.19147798976E+02
 0.13788616405E+02 0.11162376314E+02 0.97602321801E+01 0.90642773798E+01 0.87588624373E+01
 0.86747000101E+01 0.87588626667E+01 0.90642777449E+01 0.97602325564E+01 0.11162376629E+02
 0.13788616719E+02 0.19147799503E+02 0.29449124089E+02 0.45972222718E+02 0.68219933223E+02
 0.93780405998E+02 0.11899669499E+03 0.14005635806E+03 0.15391670934E+03 0.20266289917E+03
 0.19638647754E+03 0.17841985554E+03 0.15130121642E+03 0.11899669615E+03 0.86262007369E+02
 0.57572458019E+02 0.35930711721E+02 0.22118498849E+02 0.14811565929E+02 0.11463373079E+02
 0.97950783866E+01 0.89888807246E+01 0.86467865011E+01 0.85549422375E+01 0.86467867390E+01
 0.89888810891E+01 0.97950787451E+01 0.11463373397E+02 0.14811566355E+02 0.22118499663E+02
 0.35930713092E+02 0.57572459617E+02 0.86262008191E+02 0.11899669499E+03 0.15130121292E+03
 0.17841985097E+03 0.19638647428E+03 0.24010661800E+03 0.23250768571E+03 0.21085701191E+03
 0.17841985430E+03 0.14005635951E+03 0.10133654665E+03 0.67353442339E+02 0.41507953016E+02
 0.24758384688E+02 0.15739624651E+02 0.11685575421E+02 0.98071254457E+01 0.89148510166E+01
 0.85447572448E+01 0.84472086826E+01 0.85447574011E+01 0.89148512500E+01 0.98071256673E+01
 0.11685575627E+02 0.15739624975E+02 0.24758385341E+02 0.41507954068E+02 0.67353443431E+02
 0.10133654692E+03 0.14005635806E+03 0.17841985096E+03 0.21085700783E+03 0.23250768289E+03
 0.26529222195E+03 0.25675337380E+03 0.23250768289E+03 0.19638647428E+03 0.15391670934E+03
 0.11122945688E+03 0.73794886840E+02 0.45224765335E+02 0.26555987355E+02 0.16387660157E+02
 0.11823298281E+02 0.98067852010E+01 0.88607880541E+01 0.84735697188E+01 0.83726316677E+01
 0.84735697185E+01 0.88607880537E+01 0.98067852010E+01 0.11823298281E+02 0.16387660157E+02
 0.26555987353E+02 0.45224765331E+02 0.73794886835E+02 0.11122945687E+03 0.15391670933E+03
 0.19638647428E+03 0.23250768289E+03 0.25675337380E+03 0.24799229008E+03 0.24010661201E+03
 0.21766172812E+03 0.18408981907E+03 0.14444978780E+03 0.10448309908E+03 0.69403863739E+02
 0.42686371148E+02 0.25320738320E+02 0.15934509299E+02 0.11720678552E+02 0.97993546324E+01
 0.88903293997E+01 0.85150655972E+01 0.84165423763E+01 0.85150652943E+01 0.88903289621E+01
 0.97993542478E+01 0.11720678220E+02 0.15934508708E+02 0.25320736986E+02 0.42686368889E+02
 0.69403861317E+02 0.10448309836E+03 0.14444979077E+03 0.18408982609E+03 0.21766173676E+03
 0.24010661800E+03 0.24010661201E+03 0.23250767519E+03 0.21085700097E+03 0.17841984696E+03
 0.14005635731E+03 0.10133654837E+03 0.67353445532E+02 0.41507955820E+02 0.24758386512E+02
 0.15739625780E+02 0.11685576309E+02 0.98071263047E+01 0.89148517792E+01 0.85447577455E+01
 0.84472088547E+01 0.85447573666E+01 0.89148512529E+01 0.98071258935E+01 0.11685576021E+02
 0.15739625179E+02 0.24758384879E+02 0.41507952790E+02 0.67353442003E+02 0.10133654680E+03
 0.14005636048E+03 0.17841985554E+03 0.21085701191E+03 0.23250768289E+03 0.21766172812E+03
 0.21085700097E+03 0.19141618976E+03 0.16216350148E+03 0.12742187500E+03 0.92278360896E+02