   2   2   0   0
  0.1622600E+02  0.3189680E-09  0.3189680E-09  0.3189680E-09  0.5000000E-15
  1.000000000000000E-004
  CAR 
 W                                       
     34.34532681    -67.73568179  301     11.15468675      1.00000000
    -67.736  0.0000E+00  0.0000E+00
    -67.395  0.0000E+00  0.0000E+00
    -67.055  0.0000E+00  0.0000E+00
    -66.715  0.0000E+00  0.0000E+00
    -66.375  0.0000E+00  0.0000E+00
    -66.034  0.0000E+00  0.0000E+00
    -65.694  0.0000E+00  0.0000E+00
    -65.354  0.0000E+00  0.0000E+00
    -65.014  0.0000E+00  0.0000E+00
    -64.673  0.0000E+00  0.0000E+00
    -64.333  0.0000E+00  0.0000E+00
    -63.993  0.0000E+00  0.0000E+00
    -63.652  0.0000E+00  0.0000E+00
    -63.312  0.1539E-10  0.5237E-11
    -62.972  0.6366E+01  0.2166E+01
    -62.632  0.5368E+01  0.4000E+01
    -62.291  0.0000E+00  0.4000E+01
    -61.951  0.0000E+00  0.4000E+01
    -61.611  0.0000E+00  0.4000E+01
    -61.271  0.0000E+00  0.4000E+01
    -60.930  0.0000E+00  0.4000E+01
    -60.590  0.0000E+00  0.4000E+01
    -60.250  0.0000E+00  0.4000E+01
    -59.909  0.0000E+00  0.4000E+01
    -59.569  0.0000E+00  0.4000E+01
    -59.229  0.0000E+00  0.4000E+01
    -58.889  0.0000E+00  0.4000E+01
    -58.548  0.0000E+00  0.4000E+01
    -58.208  0.0000E+00  0.4000E+01
    -57.868  0.0000E+00  0.4000E+01
    -57.528  0.0000E+00  0.4000E+01
    -57.187  0.0000E+00  0.4000E+01
    -56.847  0.0000E+00  0.4000E+01
    -56.507  0.0000E+00  0.4000E+01
    -56.167  0.0000E+00  0.4000E+01
    -55.826  0.0000E+00  0.4000E+01
    -55.486  0.0000E+00  0.4000E+01
    -55.146  0.0000E+00  0.4000E+01
    -54.805  0.0000E+00  0.4000E+01
    -54.465  0.0000E+00  0.4000E+01
    -54.125  0.0000E+00  0.4000E+01
    -53.785  0.0000E+00  0.4000E+01
    -53.444  0.0000E+00  0.4000E+01
    -53.104  0.0000E+00  0.4000E+01
    -52.764  0.0000E+00  0.4000E+01
    -52.424  0.0000E+00  0.4000E+01
    -52.083  0.0000E+00  0.4000E+01
    -51.743  0.0000E+00  0.4000E+01
    -51.403  0.0000E+00  0.4000E+01
    -51.062  0.0000E+00  0.4000E+01
    -50.722  0.0000E+00  0.4000E+01
    -50.382  0.0000E+00  0.4000E+01
    -50.042  0.0000E+00  0.4000E+01
    -49.701  0.0000E+00  0.4000E+01
    -49.361  0.0000E+00  0.4000E+01
    -49.021  0.0000E+00  0.4000E+01
    -48.681  0.0000E+00  0.4000E+01
    -48.340  0.0000E+00  0.4000E+01
    -48.000  0.0000E+00  0.4000E+01
    -47.660  0.0000E+00  0.4000E+01
    -47.319  0.0000E+00  0.4000E+01
    -46.979  0.0000E+00  0.4000E+01
    -46.639  0.0000E+00  0.4000E+01
    -46.299  0.0000E+00  0.4000E+01
    -45.958  0.0000E+00  0.4000E+01
    -45.618  0.0000E+00  0.4000E+01
    -45.278  0.0000E+00  0.4000E+01
    -44.938  0.0000E+00  0.4000E+01
    -44.597  0.0000E+00  0.4000E+01
    -44.257  0.0000E+00  0.4000E+01
    -43.917  0.0000E+00  0.4000E+01
    -43.577  0.0000E+00  0.4000E+01
    -43.236  0.0000E+00  0.4000E+01
    -42.896  0.0000E+00  0.4000E+01
    -42.556  0.0000E+00  0.4000E+01
    -42.215  0.0000E+00  0.4000E+01
    -41.875  0.0000E+00  0.4000E+01
    -41.535  0.0000E+00  0.4000E+01
    -41.195  0.0000E+00  0.4000E+01
    -40.854  0.0000E+00  0.4000E+01
    -40.514  0.0000E+00  0.4000E+01
    -40.174  0.0000E+00  0.4000E+01
    -39.834  0.0000E+00  0.4000E+01
    -39.493  0.0000E+00  0.4000E+01
    -39.153  0.0000E+00  0.4000E+01
    -38.813  0.0000E+00  0.4000E+01
    -38.472  0.0000E+00  0.4000E+01
    -38.132  0.0000E+00  0.4000E+01
    -37.792  0.0000E+00  0.4000E+01
    -37.452  0.0000E+00  0.4000E+01
    -37.111  0.0000E+00  0.4000E+01
    -36.771  0.0000E+00  0.4000E+01
    -36.431  0.0000E+00  0.4000E+01
    -36.091  0.0000E+00  0.4000E+01
    -35.750  0.0000E+00  0.4000E+01
    -35.410  0.0000E+00  0.4000E+01
    -35.070  0.0000E+00  0.4000E+01
    -34.729  0.0000E+00  0.4000E+01
    -34.389  0.0000E+00  0.4000E+01
    -34.049  0.0000E+00  0.4000E+01
    -33.709  0.0000E+00  0.4000E+01
    -33.368  0.1140E-01  0.4004E+01
    -33.028  0.9720E+01  0.7311E+01
    -32.688  0.2002E+01  0.8000E+01
    -32.348  0.0000E+00  0.8000E+01
    -32.007  0.0000E+00  0.8000E+01
    -31.667  0.0000E+00  0.8000E+01
    -31.327  0.0000E+00  0.8000E+01
    -30.987  0.0000E+00  0.8000E+01
    -30.646  0.0000E+00  0.8000E+01
    -30.306  0.0000E+00  0.8000E+01
    -29.966  0.0000E+00  0.8000E+01
    -29.625  0.0000E+00  0.8000E+01
    -29.285  0.0000E+00  0.8000E+01
    -28.945  0.0000E+00  0.8000E+01
    -28.605  0.0000E+00  0.8000E+01
    -28.264  0.0000E+00  0.8000E+01
    -27.924  0.0000E+00  0.8000E+01
    -27.584  0.0000E+00  0.8000E+01
    -27.244  0.0000E+00  0.8000E+01
    -26.903  0.0000E+00  0.8000E+01
    -26.563  0.0000E+00  0.8000E+01
    -26.223  0.0000E+00  0.8000E+01
    -25.882  0.0000E+00  0.8000E+01
    -25.542  0.0000E+00  0.8000E+01
    -25.202  0.0000E+00  0.8000E+01
    -24.862  0.1861E+01  0.8633E+01
    -24.521  0.8671E+01  0.1158E+02
    -24.181  0.5947E+01  0.1361E+02
    -23.841  0.6802E+01  0.1593E+02
    -23.501  0.2004E+00  0.1600E+02
    -23.160  0.0000E+00  0.1600E+02
    -22.820  0.0000E+00  0.1600E+02
    -22.480  0.0000E+00  0.1600E+02
    -22.139  0.0000E+00  0.1600E+02
    -21.799  0.0000E+00  0.1600E+02
    -21.459  0.0000E+00  0.1600E+02
    -21.119  0.0000E+00  0.1600E+02
    -20.778  0.0000E+00  0.1600E+02
    -20.438  0.0000E+00  0.1600E+02
    -20.098  0.0000E+00  0.1600E+02
    -19.758  0.0000E+00  0.1600E+02
    -19.417  0.0000E+00  0.1600E+02
    -19.077  0.0000E+00  0.1600E+02
    -18.737  0.0000E+00  0.1600E+02
    -18.397  0.0000E+00  0.1600E+02
    -18.056  0.0000E+00  0.1600E+02
    -17.716  0.0000E+00  0.1600E+02
    -17.376  0.0000E+00  0.1600E+02
    -17.035  0.0000E+00  0.1600E+02
    -16.695  0.0000E+00  0.1600E+02
    -16.355  0.0000E+00  0.1600E+02
    -16.015  0.0000E+00  0.1600E+02
    -15.674  0.0000E+00  0.1600E+02
    -15.334  0.0000E+00  0.1600E+02
    -14.994  0.0000E+00  0.1600E+02
    -14.654  0.0000E+00  0.1600E+02
    -14.313  0.0000E+00  0.1600E+02
    -13.973  0.0000E+00  0.1600E+02
    -13.633  0.0000E+00  0.1600E+02
    -13.292  0.0000E+00  0.1600E+02
    -12.952  0.0000E+00  0.1600E+02
    -12.612  0.0000E+00  0.1600E+02
    -12.272  0.0000E+00  0.1600E+02
    -11.931  0.0000E+00  0.1600E+02
    -11.591  0.0000E+00  0.1600E+02
    -11.251  0.0000E+00  0.1600E+02
    -10.911  0.0000E+00  0.1600E+02
    -10.570  0.0000E+00  0.1600E+02
    -10.230  0.0000E+00  0.1600E+02
     -9.890  0.0000E+00  0.1600E+02
     -9.550  0.0000E+00  0.1600E+02
     -9.209  0.0000E+00  0.1600E+02
     -8.869  0.0000E+00  0.1600E+02
     -8.529  0.0000E+00  0.1600E+02
     -8.188  0.0000E+00  0.1600E+02
     -7.848  0.0000E+00  0.1600E+02
     -7.508  0.0000E+00  0.1600E+02
     -7.168  0.0000E+00  0.1600E+02
     -6.827  0.0000E+00  0.1600E+02
     -6.487  0.0000E+00  0.1600E+02
     -6.147  0.0000E+00  0.1600E+02
     -5.807  0.0000E+00  0.1600E+02
     -5.466  0.0000E+00  0.1600E+02
     -5.126  0.0000E+00  0.1600E+02
     -4.786  0.0000E+00  0.1600E+02
     -4.445  0.0000E+00  0.1600E+02
     -4.105  0.0000E+00  0.1600E+02
     -3.765  0.0000E+00  0.1600E+02
     -3.425  0.0000E+00  0.1600E+02
     -3.084  0.0000E+00  0.1600E+02
     -2.744  0.0000E+00  0.1600E+02
     -2.404  0.0000E+00  0.1600E+02
     -2.064  0.0000E+00  0.1600E+02
     -1.723  0.0000E+00  0.1600E+02
     -1.383  0.0000E+00  0.1600E+02
     -1.043  0.0000E+00  0.1600E+02
     -0.702  0.0000E+00  0.1600E+02
     -0.362  0.0000E+00  0.1600E+02
     -0.022  0.0000E+00  0.1600E+02
      0.318  0.0000E+00  0.1600E+02
      0.659  0.0000E+00  0.1600E+02
      0.999  0.0000E+00  0.1600E+02
      1.339  0.2798E-15  0.1600E+02
      1.679  0.3505E-02  0.1600E+02
      2.020  0.6169E-01  0.1602E+02
      2.360  0.5813E-01  0.1604E+02
      2.700  0.1520E+00  0.1609E+02
      3.040  0.1378E+00  0.1614E+02
      3.381  0.1796E+00  0.1620E+02
      3.721  0.2585E+00  0.1629E+02
      4.061  0.1907E+00  0.1636E+02
      4.402  0.3585E+00  0.1648E+02
      4.742  0.4382E+00  0.1663E+02
      5.082  0.5341E+00  0.1681E+02
      5.422  0.1439E+01  0.1730E+02
      5.763  0.1533E+01  0.1782E+02
      6.103  0.1570E+01  0.1836E+02
      6.443  0.1986E+01  0.1903E+02
      6.783  0.1983E+01  0.1971E+02
      7.124  0.1502E+01  0.2022E+02
      7.464  0.6303E+00  0.2044E+02
      7.804  0.2075E+01  0.2115E+02
      8.145  0.3915E+01  0.2248E+02
      8.485  0.2569E+01  0.2336E+02
      8.825  0.2268E+01  0.2413E+02
      9.165  0.3479E+01  0.2531E+02
      9.506  0.2782E+01  0.2626E+02
      9.846  0.2107E+01  0.2698E+02
     10.186  0.8957E+00  0.2729E+02
     10.526  0.7601E+00  0.2755E+02
     10.867  0.5811E+00  0.2775E+02
     11.207  0.9092E+00  0.2806E+02
     11.547  0.1236E+01  0.2848E+02
     11.888  0.1389E+01  0.2895E+02
     12.228  0.1715E+01  0.2953E+02
     12.568  0.1681E+01  0.3011E+02
     12.908  0.2266E+01  0.3088E+02
     13.249  0.2524E+01  0.3174E+02
     13.589  0.2022E+01  0.3242E+02
     13.929  0.2506E+01  0.3328E+02
     14.269  0.4618E+01  0.3485E+02
     14.610  0.2902E+01  0.3584E+02
     14.950  0.1884E+01  0.3649E+02
     15.290  0.6707E+00  0.3672E+02
     15.630  0.1081E+01  0.3709E+02
     15.971  0.1036E+01  0.3744E+02
     16.311  0.6994E+00  0.3768E+02
     16.651  0.3802E+00  0.3781E+02
     16.992  0.1009E+01  0.3815E+02
     17.332  0.5796E+00  0.3835E+02
     17.672  0.5767E+00  0.3855E+02
     18.012  0.5137E+00  0.3872E+02
     18.353  0.8399E+00  0.3901E+02
     18.693  0.6486E+00  0.3923E+02
     19.033  0.7072E+00  0.3947E+02
     19.373  0.5325E+00  0.3965E+02
     19.714  0.8349E+00  0.3994E+02
     20.054  0.4095E+00  0.4008E+02
     20.394  0.5090E+00  0.4025E+02
     20.735  0.6877E+00  0.4048E+02
     21.075  0.1507E+01  0.4100E+02
     21.415  0.4195E+00  0.4114E+02
     21.755  0.1223E+01  0.4156E+02
     22.096  0.7283E+00  0.4181E+02
     22.436  0.5909E+00  0.4201E+02
     22.776  0.9488E+00  0.4233E+02
     23.116  0.5926E+00  0.4253E+02
     23.457  0.1332E+01  0.4299E+02
     23.797  0.9886E+00  0.4332E+02
     24.137  0.1578E+01  0.4386E+02
     24.477  0.1366E+01  0.4433E+02
     24.818  0.1526E+01  0.4485E+02
     25.158  0.1168E+01  0.4525E+02
     25.498  0.8067E+00  0.4552E+02
     25.839  0.8101E+00  0.4580E+02
     26.179  0.1546E+01  0.4632E+02
     26.519  0.1325E+01  0.4677E+02
     26.859  0.2947E+00  0.4688E+02
     27.200  0.7276E+00  0.4713E+02
     27.540  0.6318E+00  0.4734E+02
     27.880  0.1136E+01  0.4773E+02
     28.220  0.4287E+00  0.4787E+02
     28.561  0.4305E-16  0.4787E+02
     28.901  0.1484E+00  0.4793E+02
     29.241  0.1172E+00  0.4797E+02
     29.582  0.8135E-01  0.4799E+02
     29.922  0.2040E-01  0.4800E+02
     30.262  0.0000E+00  0.4800E+02
     30.602  0.0000E+00  0.4800E+02
     30.943  0.0000E+00  0.4800E+02
     31.283  0.0000E+00  0.4800E+02
     31.623  0.0000E+00  0.4800E+02
     31.963  0.0000E+00  0.4800E+02
     32.304  0.0000E+00  0.4800E+02
     32.644  0.0000E+00  0.4800E+02
     32.984  0.0000E+00  0.4800E+02
     33.325  0.0000E+00  0.4800E+02
     33.665  0.0000E+00  0.4800E+02
     34.005  0.0000E+00  0.4800E+02
     34.345  0.0000E+00  0.4800E+02
