    2    2    1    1
  0.1622600E+02  0.3189680E-09  0.3189680E-09  0.3189680E-09  0.5000000E-15
  1.000000000000000E-004
  CAR 
 W                                       
     28    294     48
 
  0.0000000E+00  0.0000000E+00  0.0000000E+00  0.5787037E-03
      1        -63.095636   1.000000
      2        -63.095633   1.000000
      3        -62.884710   1.000000
      4        -62.884706   1.000000
      5        -33.329155   1.000000
      6        -33.329153   1.000000
      7        -32.795804   1.000000
      8        -32.795802   1.000000
      9        -24.835979   1.000000
     10        -24.835978   1.000000
     11        -24.835976   1.000000
     12        -24.835974   1.000000
     13        -23.799753   1.000000
     14        -23.799752   1.000000
     15        -23.799749   1.000000
     16        -23.799747   1.000000
     17          1.599871   1.000000
     18          1.599877   1.000000
     19          5.447808   1.000000
     20          5.447808   1.000000
     21          5.447812   1.000000
     22          5.447812   1.000000
     23          9.719136   1.000000
     24          9.719136   1.000000
     25          9.719136   1.000000
     26          9.719137   1.000000
     27         10.226666   1.000000
     28         10.226667   1.000000
     29         13.353227   0.000000
     30         13.353227   0.000000
     31         13.353241   0.000000
     32         13.353241   0.000000
     33         15.869656   0.000000
     34         15.869657   0.000000
     35         15.869658   0.000000
     36         15.869660   0.000000
     37         16.581622   0.000000
     38         16.581623   0.000000
     39         17.818971   0.000000
     40         17.818976   0.000000
     41         19.933164   0.000000
     42         19.933169   0.000000
     43         19.933172   0.000000
     44         19.933177   0.000000
     45         25.576689   0.000000
     46         25.576697   0.000000
     47         25.576697   0.000000
     48         25.576698   0.000000
 
  0.8333333E-01  0.2039724E-32  0.0000000E+00  0.3472222E-02
      1        -63.091990   1.000000
      2        -63.091987   1.000000
      3        -62.887792   1.000000
      4        -62.887788   1.000000
      5        -33.322494   1.000000
      6        -33.322492   1.000000
      7        -32.807637   1.000000
      8        -32.807635   1.000000
      9        -24.830960   1.000000
     10        -24.830957   1.000000
     11        -24.817967   1.000000
     12        -24.817963   1.000000
     13        -23.831946   1.000000
     14        -23.831942   1.000000
     15        -23.816907   1.000000
     16        -23.816904   1.000000
     17          1.766066   1.000000
     18          1.766072   1.000000
     19          5.533373   1.000000
     20          5.533378   1.000000
     21          5.578421   1.000000
     22          5.578425   1.000000
     23          9.701330   1.000000
     24          9.701331   1.000000
     25          9.758159   1.000000
     26          9.758160   1.000000
     27         10.244608   1.000000
     28         10.244609   1.000000
     29         13.104364   0.000000
     30         13.104378   0.000000
     31         13.437506   0.000000
     32         13.437520   0.000000
     33         15.044799   0.000000
     34         15.044799   0.000000
     35         15.482833   0.000000
     36         15.482834   0.000000
     37         16.144882   0.000000
     38         16.144885   0.000000
     39         18.188119   0.000000
     40         18.188125   0.000000
     41         19.986833   0.000000
     42         19.986835   0.000000
     43         20.774182   0.000000
     44         20.774188   0.000000
     45         25.841153   0.000000
     46         25.841156   0.000000
     47         25.852900   0.000000
     48         25.852923   0.000000
 
  0.1666667E+00  0.5885600E-32  0.0000000E+00  0.3472222E-02
      1        -63.080519   1.000000
      2        -63.080516   1.000000
      3        -62.896240   1.000000
      4        -62.896237   1.000000
      5        -33.302090   1.000000
      6        -33.302088   1.000000
      7        -32.841373   1.000000
      8        -32.841371   1.000000
      9        -24.813477   1.000000
     10        -24.813474   1.000000
     11        -24.765003   1.000000
     12        -24.765000   1.000000
     13        -23.922226   1.000000
     14        -23.922222   1.000000
     15        -23.867427   1.000000
     16        -23.867424   1.000000
     17          2.249772   1.000000
     18          2.249778   1.000000
     19          5.789011   1.000000
     20          5.789015   1.000000
     21          5.933536   1.000000
     22          5.933540   1.000000
     23          9.666508   1.000000
     24          9.666509   1.000000
     25          9.838098   1.000000
     26          9.838099   1.000000
     27         10.350765   1.000000
     28         10.350765   1.000000
     29         12.440469   0.000000
     30         12.440482   0.000000
     31         13.676128   0.000000
     32         13.676142   0.000000
     33         13.780507   0.000000
     34         13.780507   0.000000
     35         14.419838   0.000000
     36         14.419838   0.000000
     37         15.556935   0.000000
     38         15.556938   0.000000
     39         17.359728   0.000000
     40         17.359735   0.000000
     41         21.346222   0.000000
     42         21.346225   0.000000
     43         22.506369   0.000000
     44         22.506373   0.000000
     45         26.551490   0.000000
     46         26.551490   0.000000
     47         26.653400   0.000000
     48         26.653423   0.000000
 
  0.2500000E+00  0.6384580E-32  0.0000000E+00  0.3472222E-02
      1        -63.061558   1.000000
      2        -63.061554   1.000000
      3        -62.912076   1.000000
      4        -62.912073   1.000000
      5        -33.269442   1.000000
      6        -33.269439   1.000000
      7        -32.892868   1.000000
      8        -32.892866   1.000000
      9        -24.779302   1.000000
     10        -24.779299   1.000000
     11        -24.681353   1.000000
     12        -24.681350   1.000000
     13        -24.055164   1.000000
     14        -24.055160   1.000000
     15        -23.947885   1.000000
     16        -23.947881   1.000000
     17          3.006798   1.000000
     18          3.006803   1.000000
     19          6.210444   1.000000
     20          6.210449   1.000000
     21          6.389048   1.000000
     22          6.389051   1.000000
     23          9.660780   1.000000
     24          9.660780   1.000000
     25          9.909563   1.000000
     26          9.909565   1.000000
     27         10.610757   1.000000
     28         10.610758   1.000000
     29         11.556479   0.000000
     30         11.556492   0.000000
     31         12.619281   0.000000
     32         12.619281   0.000000
     33         13.272753   0.000000
     34         13.272755   0.000000
     35         14.017419   0.000000
     36         14.017432   0.000000
     37         14.865829   0.000000
     38         14.865831   0.000000
     39         16.085454   0.000000
     40         16.085459   0.000000
     41         23.324309   0.000000
     42         23.324312   0.000000
     43         24.551031   0.000000
     44         24.551035   0.000000
     45         27.518642   0.000000
     46         27.518646   0.000000
     47         27.889852   0.000000
     48         27.889853   0.000000
 
  0.3333333E+00  0.7271519E-32  0.0000000E+00  0.3472222E-02
      1        -63.037409   1.000000
      2        -63.037406   1.000000
      3        -62.931472   1.000000
      4        -62.931468   1.000000
      5        -33.223166   1.000000
      6        -33.223164   1.000000
      7        -32.957198   1.000000
      8        -32.957196   1.000000
      9        -24.720016   1.000000
     10        -24.720012   1.000000
     11        -24.572285   1.000000
     12        -24.572282   1.000000
     13        -24.210990   1.000000
     14        -24.210987   1.000000
     15        -24.053408   1.000000
     16        -24.053404   1.000000
     17          3.963111   1.000000
     18          3.963116   1.000000
     19          6.709481   1.000000
     20          6.709482   1.000000
     21          6.790739   1.000000
     22          6.790744   1.000000
     23          9.738821   1.000000
     24          9.738822   1.000000
     25          9.951774   1.000000
     26          9.951777   1.000000
     27         10.483190   1.000000
     28         10.483198   1.000000
     29         11.214202   0.046154
     30         11.214209   0.046136
     31         11.646301   0.000000
     32         11.646302   0.000000
     33         12.261208   0.000000
     34         12.261209   0.000000
     35         14.078672   0.000000
     36         14.078673   0.000000
     37         14.354758   0.000000
     38         14.354771   0.000000
     39         15.063435   0.000000
     40         15.063435   0.000000
     41         25.475662   0.000000
     42         25.475664   0.000000
     43         26.732267   0.000000
     44         26.732271   0.000000
     45         27.153344   0.000000
     46         27.153352   0.000000
     47         27.291423   0.000000
     48         27.291426   0.000000
 
  0.4166667E+00 -0.1276968E-31  0.0000000E+00  0.3472222E-02
      1        -63.010430   1.000000
      2        -63.010426   1.000000
      3        -62.956107   1.000000
      4        -62.956104   1.000000
      5        -33.166116   1.000000
      6        -33.166114   1.000000
      7        -33.028211   1.000000
      8        -33.028209   1.000000
      9        -24.631812   1.000000
     10        -24.631809   1.000000
     11        -24.446283   1.000000
     12        -24.446279   1.000000
     13        -24.369290   1.000000
     14        -24.369287   1.000000
     15        -24.177277   1.000000
     16        -24.177274   1.000000
     17          5.006997   1.000000
     18          5.007002   1.000000
     19          6.600126   1.000000
     20          6.600127   1.000000
     21          7.517050   1.000000
     22          7.517054   1.000000
     23          9.302747   1.000000
     24          9.302750   1.000000
     25          9.948217   1.000000
     26          9.948218   1.000000
     27         10.411104   1.000000
     28         10.411108   1.000000
     29         10.883040   1.000000
     30         10.883041   1.000000
     31         11.437221   0.000000
     32         11.437223   0.000000
     33         11.771457   0.000000
     34         11.771460   0.000000
     35         13.262306   0.000000
     36         13.262306   0.000000
     37         14.540544   0.000000
     38         14.540555   0.000000
     39         14.568027   0.000000
     40         14.568030   0.000000
     41         25.842068   0.000000
     42         25.842071   0.000000
     43         25.950170   0.000000
     44         25.950174   0.000000
     45         27.736591   0.000000
     46         27.736595   0.000000
     47         28.894018   0.000000
     48         28.894022   0.000000
 
  0.5000000E+00  0.1276916E-31  0.0000000E+00  0.1736111E-02
      1        -62.983119   1.000000
      2        -62.983119   1.000000
      3        -62.983116   1.000000
      4        -62.983116   1.000000
      5        -33.099870   1.000000
      6        -33.099870   1.000000
      7        -33.099868   1.000000
      8        -33.099868   1.000000
      9        -24.513392   1.000000
     10        -24.513392   1.000000
     11        -24.513388   1.000000
     12        -24.513388   1.000000
     13        -24.311488   1.000000
     14        -24.311488   1.000000
     15        -24.311485   1.000000
     16        -24.311485   1.000000
     17          5.967396   1.000000
     18          5.967396   1.000000
     19          5.967399   1.000000
     20          5.967399   1.000000
     21          8.370190   1.000000
     22          8.370190   1.000000
     23          8.370195   1.000000
     24          8.370195   1.000000
     25         10.322534   1.000000
     26         10.322534   1.000000
     27         10.322535   1.000000
     28         10.322535   1.000000
     29         10.816780   1.000000
     30         10.816780   1.000000
     31         10.816782   1.000000
     32         10.816782   1.000000
     33         12.476927   0.000000
     34         12.476927   0.000000
     35         12.476928   0.000000
     36         12.476928   0.000000
     37         14.525344   0.000000
     38         14.525344   0.000000
     39         14.525352   0.000000
     40         14.525352   0.000000
     41         25.423483   0.000000
     42         25.423483   0.000000
     43         25.423486   0.000000
     44         25.423486   0.000000
     45         29.705278   0.000000
     46         29.705278   0.000000
     47         29.705281   0.000000
     48         29.705281   0.000000
 
  0.8333333E-01  0.8333333E-01  0.0000000E+00  0.3472222E-02
      1        -63.088220   1.000000
      2        -63.088217   1.000000
      3        -62.890192   1.000000
      4        -62.890189   1.000000
      5        -33.315849   1.000000
      6        -33.315846   1.000000
      7        -32.819074   1.000000
      8        -32.819072   1.000000
      9        -24.841605   1.000000
     10        -24.841601   1.000000
     11        -24.784695   1.000000
     12        -24.784694   1.000000
     13        -23.880643   1.000000
     14        -23.880640   1.000000
     15        -23.815616   1.000000
     16        -23.815611   1.000000
     17          1.927993   1.000000
     18          1.927999   1.000000
     19          5.635424   1.000000
     20          5.635429   1.000000
     21          5.690523   1.000000
     22          5.690527   1.000000
     23          9.599110   1.000000
     24          9.599110   1.000000
     25          9.778624   1.000000
     26          9.778625   1.000000
     27         10.355427   1.000000
     28         10.355428   1.000000
     29         13.062471   0.000000
     30         13.062484   0.000000
     31         13.360268   0.000000
     32         13.360281   0.000000
     33         14.309597   0.000000
     34         14.309597   0.000000
     35         14.945151   0.000000
     36         14.945151   0.000000
     37         16.219674   0.000000
     38         16.219679   0.000000
     39         18.642726   0.000000
     40         18.642733   0.000000
     41         20.066021   0.000000
     42         20.066025   0.000000
     43         21.013778   0.000000
     44         21.013786   0.000000
     45         25.841067   0.000000
     46         25.841075   0.000000
     47         26.128714   0.000000
     48         26.128721   0.000000
 
 -0.8333333E-01  0.8333333E-01  0.0000000E+00  0.3472222E-02
      1        -63.088220   1.000000
      2        -63.088217   1.000000
      3        -62.890192   1.000000
      4        -62.890189   1.000000
      5        -33.315849   1.000000
      6        -33.315847   1.000000
      7        -32.819074   1.000000
      8        -32.819072   1.000000
      9        -24.841605   1.000000
     10        -24.841602   1.000000
     11        -24.784697   1.000000
     12        -24.784692   1.000000
     13        -23.880643   1.000000
     14        -23.880639   1.000000
     15        -23.815614   1.000000
     16        -23.815613   1.000000
     17          1.927993   1.000000
     18          1.927999   1.000000
     19          5.635425   1.000000
     20          5.635429   1.000000
     21          5.690523   1.000000
     22          5.690527   1.000000
     23          9.599109   1.000000
     24          9.599110   1.000000
     25          9.778624   1.000000
     26          9.778626   1.000000
     27         10.355427   1.000000
     28         10.355428   1.000000
     29         13.062471   0.000000
     30         13.062484   0.000000
     31         13.360267   0.000000
     32         13.360281   0.000000
     33         14.309597   0.000000
     34         14.309598   0.000000
     35         14.945150   0.000000
     36         14.945151   0.000000
     37         16.219674   0.000000
     38         16.219679   0.000000
     39         18.642727   0.000000
     40         18.642732   0.000000
     41         20.066021   0.000000
     42         20.066025   0.000000
     43         21.013778   0.000000
     44         21.013786   0.000000
     45         25.841067   0.000000
     46         25.841074   0.000000
     47         26.128719   0.000000
     48         26.128723   0.000000
 
  0.1666667E+00  0.8333333E-01  0.0000000E+00  0.3472222E-02
      1        -63.076986   1.000000
      2        -63.076982   1.000000
      3        -62.899256   1.000000
      4        -62.899253   1.000000
      5        -33.297019   1.000000
      6        -33.297017   1.000000
      7        -32.851924   1.000000
      8        -32.851922   1.000000
      9        -24.837267   1.000000
     10        -24.837264   1.000000
     11        -24.721764   1.000000
     12        -24.721762   1.000000
     13        -23.981006   1.000000
     14        -23.981004   1.000000
     15        -23.850858   1.000000
     16        -23.850853   1.000000
     17          2.398344   1.000000
     18          2.398350   1.000000
     19          5.885303   1.000000
     20          5.885307   1.000000
     21          6.042406   1.000000
     22          6.042410   1.000000
     23          9.477683   1.000000
     24          9.477683   1.000000
     25          9.733137   1.000000
     26          9.733139   1.000000
     27         10.644304   1.000000
     28         10.644305   1.000000
     29         12.551817   0.000000
     30         12.551830   0.000000
     31         13.164439   0.000000
     32         13.164440   0.000000
     33         13.560813   0.000000
     34         13.560827   0.000000
     35         13.843159   0.000000
     36         13.843159   0.000000
     37         15.971744   0.000000
     38         15.971748   0.000000
     39         18.023885   0.000000
     40         18.023892   0.000000
     41         21.062872   0.000000
     42         21.062875   0.000000
     43         22.380169   0.000000
     44         22.380175   0.000000
     45         26.296759   0.000000
     46         26.296766   0.000000
     47         26.922042   0.000000
     48         26.922049   0.000000
 
 -0.8333333E-01  0.1666667E+00  0.0000000E+00  0.3472222E-02
      1        -63.076986   1.000000
      2        -63.076982   1.000000
      3        -62.899256   1.000000
      4        -62.899253   1.000000
      5        -33.297019   1.000000
      6        -33.297017   1.000000
      7        -32.851924   1.000000
      8        -32.851922   1.000000
      9        -24.837267   1.000000
     10        -24.837264   1.000000
     11        -24.721765   1.000000
     12        -24.721761   1.000000
     13        -23.981007   1.000000
     14        -23.981003   1.000000
     15        -23.850856   1.000000
     16        -23.850855   1.000000
     17          2.398344   1.000000
     18          2.398350   1.000000
     19          5.885303   1.000000
     20          5.885307   1.000000
     21          6.042406   1.000000
     22          6.042410   1.000000
     23          9.477682   1.000000
     24          9.477684   1.000000
     25          9.733137   1.000000
     26          9.733140   1.000000
     27         10.644304   1.000000
     28         10.644305   1.000000
     29         12.551817   0.000000
     30         12.551830   0.000000
     31         13.164439   0.000000
     32         13.164440   0.000000
     33         13.560813   0.000000
     34         13.560827   0.000000
     35         13.843159   0.000000
     36         13.843160   0.000000
     37         15.971744   0.000000
     38         15.971748   0.000000
     39         18.023886   0.000000
     40         18.023892   0.000000
     41         21.062871   0.000000
     42         21.062875   0.000000
     43         22.380169   0.000000
     44         22.380175   0.000000
     45         26.296760   0.000000
     46         26.296765   0.000000
     47         26.922042   0.000000
     48         26.922049   0.000000
 
 -0.3685719E-33  0.8333333E-01  0.1666667E+00  0.3472222E-02
      1        -63.076986   1.000000
      2        -63.076982   1.000000
      3        -62.899256   1.000000
      4        -62.899253   1.000000
      5        -33.297019   1.000000
      6        -33.297017   1.000000
      7        -32.851924   1.000000
      8        -32.851922   1.000000
      9        -24.837267   1.000000
     10        -24.837264   1.000000
     11        -24.721764   1.000000
     12        -24.721762   1.000000
     13        -23.981006   1.000000
     14        -23.981004   1.000000
     15        -23.850858   1.000000
     16        -23.850853   1.000000
     17          2.398344   1.000000
     18          2.398350   1.000000
     19          5.885303   1.000000
     20          5.885307   1.000000
     21          6.042406   1.000000
     22          6.042410   1.000000
     23          9.477683   1.000000
     24          9.477683   1.000000
     25          9.733137   1.000000
     26          9.733139   1.000000
     27         10.644304   1.000000
     28         10.644305   1.000000
     29         12.551817   0.000000
     30         12.551830   0.000000
     31         13.164439   0.000000
     32         13.164440   0.000000
     33         13.560813   0.000000
     34         13.560827   0.000000
     35         13.843159   0.000000
     36         13.843159   0.000000
     37         15.971744   0.000000
     38         15.971748   0.000000
     39         18.023885   0.000000
     40         18.023892   0.000000
     41         21.062872   0.000000
     42         21.062875   0.000000
     43         22.380169   0.000000
     44         22.380175   0.000000
     45         26.296759   0.000000
     46         26.296766   0.000000
     47         26.922042   0.000000
     48         26.922049   0.000000
 
 -0.8329319E-34 -0.1666667E+00  0.8333333E-01  0.3472222E-02
      1        -63.076986   1.000000
      2        -63.076982   1.000000
      3        -62.899256   1.000000
      4        -62.899253   1.000000
      5        -33.297019   1.000000
      6        -33.297017   1.000000
      7        -32.851924   1.000000
      8        -32.851922   1.000000
      9        -24.837267   1.000000
     10        -24.837264   1.000000
     11        -24.721765   1.000000
     12        -24.721761   1.000000
     13        -23.981007   1.000000
     14        -23.981003   1.000000
     15        -23.850856   1.000000
     16        -23.850855   1.000000
     17          2.398344   1.000000
     18          2.398350   1.000000
     19          5.885303   1.000000
     20          5.885307   1.000000
     21          6.042406   1.000000
     22          6.042410   1.000000
     23          9.477682   1.000000
     24          9.477684   1.000000
     25          9.733137   1.000000
     26          9.733140   1.000000
     27         10.644304   1.000000
     28         10.644305   1.000000
     29         12.551817   0.000000
     30         12.551830   0.000000
     31         13.164439   0.000000
     32         13.164440   0.000000
     33         13.560813   0.000000
     34         13.560827   0.000000
     35         13.843159   0.000000
     36         13.843160   0.000000
     37         15.971744   0.000000
     38         15.971748   0.000000
     39         18.023886   0.000000
     40         18.023892   0.000000
     41         21.062871   0.000000
     42         21.062875   0.000000
     43         22.380169   0.000000
     44         22.380175   0.000000
     45         26.296760   0.000000
     46         26.296765   0.000000
     47         26.922042   0.000000
     48         26.922049   0.000000
 
  0.2500000E+00  0.8333333E-01  0.0000000E+00  0.3472222E-02
      1        -63.058454   1.000000
      2        -63.058451   1.000000
      3        -62.914106   1.000000
      4        -62.914102   1.000000
      5        -33.265715   1.000000
      6        -33.265712   1.000000
      7        -32.902043   1.000000
      8        -32.902041   1.000000
      9        -24.811266   1.000000
     10        -24.811262   1.000000
     11        -24.633731   1.000000
     12        -24.633730   1.000000
     13        -24.116385   1.000000
     14        -24.116383   1.000000
     15        -23.921145   1.000000
     16        -23.921140   1.000000
     17          3.131382   1.000000
     18          3.131388   1.000000
     19          6.277648   1.000000
     20          6.277652   1.000000
     21          6.504517   1.000000
     22          6.504520   1.000000
     23          9.416726   1.000000
     24          9.416727   1.000000
     25          9.660725   1.000000
     26          9.660727   1.000000
     27         11.047565   0.998777
     28         11.047567   0.998776
     29         11.802693   0.000000
     30         11.802705   0.000000
     31         12.100576   0.000000
     32         12.100577   0.000000
     33         12.769426   0.000000
     34         12.769426   0.000000
     35         13.926568   0.000000
     36         13.926581   0.000000
     37         15.373252   0.000000
     38         15.373255   0.000000
     39         16.694839   0.000000
     40         16.694844   0.000000
     41         22.856680   0.000000
     42         22.856683   0.000000
     43         24.229646   0.000000
     44         24.229652   0.000000
     45         27.020223   0.000000
     46         27.020229   0.000000
     47         27.980943   0.000000
     48         27.980945   0.000000
 
 -0.8333333E-01  0.2500000E+00  0.0000000E+00  0.3472222E-02
      1        -63.058454   1.000000
      2        -63.058451   1.000000
      3        -62.914106   1.000000
      4        -62.914102   1.000000
      5        -33.265715   1.000000
      6        -33.265712   1.000000
      7        -32.902043   1.000000
      8        -32.902041   1.000000
      9        -24.811265   1.000000
     10        -24.811263   1.000000
     11        -24.633733   1.000000
     12        -24.633728   1.000000
     13        -24.116386   1.000000
     14        -24.116382   1.000000
     15        -23.921144   1.000000
     16        -23.921142   1.000000
     17          3.131382   1.000000
     18          3.131388   1.000000
     19          6.277648   1.000000
     20          6.277652   1.000000
     21          6.504517   1.000000
     22          6.504520   1.000000
     23          9.416725   1.000000
     24          9.416727   1.000000
     25          9.660724   1.000000
     26          9.660727   1.000000
     27         11.047566   0.998777
     28         11.047567   0.998776
     29         11.802693   0.000000
     30         11.802705   0.000000
     31         12.100576   0.000000
     32         12.100578   0.000000
     33         12.769425   0.000000
     34         12.769427   0.000000
     35         13.926568   0.000000
     36         13.926581   0.000000
     37         15.373252   0.000000
     38         15.373255   0.000000
     39         16.694839   0.000000
     40         16.694843   0.000000
     41         22.856681   0.000000
     42         22.856683   0.000000
     43         24.229646   0.000000
     44         24.229651   0.000000
     45         27.020223   0.000000
     46         27.020228   0.000000
     47         27.980941   0.000000
     48         27.980947   0.000000
 
  0.3185069E-33  0.8333333E-01  0.2500000E+00  0.3472222E-02
      1        -63.058454   1.000000
      2        -63.058451   1.000000
      3        -62.914106   1.000000
      4        -62.914102   1.000000
      5        -33.265715   1.000000
      6        -33.265712   1.000000
      7        -32.902043   1.000000
      8        -32.902041   1.000000
      9        -24.811266   1.000000
     10        -24.811262   1.000000
     11        -24.633731   1.000000
     12        -24.633730   1.000000
     13        -24.116385   1.000000
     14        -24.116383   1.000000
     15        -23.921145   1.000000
     16        -23.921140   1.000000
     17          3.131382   1.000000
     18          3.131388   1.000000
     19          6.277648   1.000000
     20          6.277652   1.000000
     21          6.504517   1.000000
     22          6.504520   1.000000
     23          9.416726   1.000000
     24          9.416727   1.000000
     25          9.660725   1.000000
     26          9.660727   1.000000
     27         11.047565   0.998777
     28         11.047567   0.998776
     29         11.802693   0.000000
     30         11.802705   0.000000
     31         12.100576   0.000000
     32         12.100577   0.000000
     33         12.769426   0.000000
     34         12.769426   0.000000
     35         13.926568   0.000000
     36         13.926581   0.000000
     37         15.373252   0.000000
     38         15.373255   0.000000
     39         16.694839   0.000000
     40         16.694844   0.000000
     41         22.856680   0.000000
     42         22.856683   0.000000
     43         24.229646   0.000000
     44         24.229652   0.000000
     45         27.020223   0.000000
     46         27.020229   0.000000
     47         27.980943   0.000000
     48         27.980945   0.000000
 
 -0.8329319E-34 -0.2500000E+00  0.8333333E-01  0.3472222E-02
      1        -63.058454   1.000000
      2        -63.058451   1.000000
      3        -62.914106   1.000000
      4        -62.914102   1.000000
      5        -33.265715   1.000000
      6        -33.265712   1.000000
      7        -32.902043   1.000000
      8        -32.902041   1.000000