       N       E                     dE             d eps       ncg     rms          rms(c)
DAV:   1    -0.275500441577E+02   -0.27550E+02   -0.64044E-06 14160   0.222E-02    0.966E-03
DAV:   2    -0.275500440392E+02    0.11850E-06   -0.47897E-07 14112   0.551E-03
   1 F= -.27550044E+02 E0= -.27549602E+02  d E =-.883439E-03  mag=    -0.0000    -0.0000    -0.0000
       N       E                     dE             ncg
DAV:   1    -0.636486060358E+05   -0.13954E+06    14352
DAV:   2    -0.711150755096E+05   -0.74665E+04    15888
DAV:   3    -0.711549955650E+05   -0.39920E+02    19488
DAV:   4    -0.711550804743E+05   -0.84909E-01    22416
DAV:   5    -0.711550804779E+05   -0.35298E-05    19440
