<?xml version="1.0" encoding="ISO-8859-1"?>
<modeling>
 <generator>
  <i name="program" type="string">vasp </i>
  <i name="version" type="string">6.4.3  </i>
  <i name="subversion" type="string">19Mar24 (build Jun 26 2024 13:02:28) complex                          parallel </i>
  <i name="platform" type="string">LinuxIFC </i>
  <i name="date" type="string">2025 08 08 </i>
  <i name="time" type="string">19:52:51 </i>
 </generator>
 <incar>
  <i type="string" name="SYSTEM">W</i>
  <i type="logical" name="LSORBIT"> T  </i>
  <v name="SAXIS">      0.00000000      0.00000000      1.00000000</v>
  <i type="int" name="IBRION">    -1</i>
  <i type="int" name="ISYM">     2</i>
  <i name="ENCUT">    289.97410000</i>
  <i type="int" name="ISMEAR">     0</i>
  <i name="SIGMA">      0.05000000</i>
  <i type="logical" name="LWAVE"> T  </i>
  <i type="logical" name="LCHARG"> T  </i>
 </incar>
 <primitive_cell>
  <structure name="primitive_cell" >
   <crystal>
    <varray name="basis" >
     <v>       1.59484000       1.59484000      -1.59484000 </v>
     <v>      -1.59484000       1.59484000       1.59484000 </v>
     <v>       1.59484000      -1.59484000       1.59484000 </v>
    </varray>
    <i name="volume">     16.22599546 </i>
    <varray name="rec_basis" >
     <v>       0.31351107       0.31351107      -0.00000000 </v>
     <v>      -0.00000000       0.31351107       0.31351107 </v>
     <v>       0.31351107      -0.00000000       0.31351107 </v>
    </varray>
   </crystal>
   <varray name="positions" >
    <v>       0.00000000       0.00000000       0.00000000 </v>
   </varray>
  </structure>
  <varray name="primitive_index" >
   <v type="int" >        1 </v>
  </varray>
 </primitive_cell>
 <kpoints>
  <generation param="Gamma">
   <v type="int" name="divisions">      12       12       12 </v>
   <v name="usershift">      0.00000000       0.00000000       0.00000000 </v>
   <v name="genvec1">      0.08333333       0.00000000       0.00000000 </v>
   <v name="genvec2">      0.00000000       0.08333333       0.00000000 </v>
   <v name="genvec3">     -0.00000000      -0.00000000       0.08333333 </v>
   <v name="shift">      0.00000000       0.00000000       0.00000000 </v>
  </generation>
  <varray name="kpointlist" >
   <v>       0.00000000       0.00000000       0.00000000 </v>
   <v>       0.08333333       0.00000000       0.00000000 </v>
   <v>       0.16666667       0.00000000       0.00000000 </v>
   <v>       0.25000000       0.00000000       0.00000000 </v>
   <v>       0.33333333       0.00000000       0.00000000 </v>
   <v>       0.41666667      -0.00000000       0.00000000 </v>
   <v>       0.50000000       0.00000000       0.00000000 </v>
   <v>       0.08333333       0.08333333       0.00000000 </v>
   <v>      -0.08333333       0.08333333       0.00000000 </v>
   <v>       0.16666667       0.08333333       0.00000000 </v>
   <v>      -0.08333333       0.16666667       0.00000000 </v>
   <v>      -0.00000000       0.08333333       0.16666667 </v>
   <v>      -0.00000000      -0.16666667       0.08333333 </v>
   <v>       0.25000000       0.08333333       0.00000000 </v>
   <v>      -0.08333333       0.25000000       0.00000000 </v>
   <v>       0.00000000       0.08333333       0.25000000 </v>
   <v>      -0.00000000      -0.25000000       0.08333333 </v>
   <v>       0.33333333       0.08333333       0.00000000 </v>
   <v>      -0.08333333       0.33333333       0.00000000 </v>
   <v>       0.00000000       0.08333333       0.33333333 </v>
   <v>      -0.00000000      -0.33333333       0.08333333 </v>
   <v>       0.41666667       0.08333333       0.00000000 </v>
   <v>      -0.08333333       0.41666667       0.00000000 </v>
   <v>      -0.00000000       0.08333333       0.41666667 </v>
   <v>      -0.00000000      -0.41666667       0.08333333 </v>
   <v>       0.50000000       0.08333333       0.00000000 </v>
   <v>      -0.08333333       0.50000000       0.00000000 </v>
   <v>       0.16666667       0.16666667       0.00000000 </v>
   <v>      -0.16666667       0.16666667       0.00000000 </v>
   <v>       0.25000000       0.16666667       0.00000000 </v>
   <v>      -0.16666667       0.25000000       0.00000000 </v>
   <v>       0.00000000       0.16666667       0.25000000 </v>
   <v>      -0.00000000      -0.25000000       0.16666667 </v>
   <v>       0.33333333       0.16666667       0.00000000 </v>
   <v>      -0.16666667       0.33333333       0.00000000 </v>
   <v>       0.00000000       0.16666667       0.33333333 </v>
   <v>      -0.00000000      -0.33333333       0.16666667 </v>
   <v>       0.41666667       0.16666667       0.00000000 </v>
   <v>      -0.16666667       0.41666667       0.00000000 </v>
   <v>      -0.00000000       0.16666667       0.41666667 </v>
   <v>      -0.00000000      -0.41666667       0.16666667 </v>
   <v>       0.50000000       0.16666667       0.00000000 </v>
   <v>      -0.16666667       0.50000000       0.00000000 </v>
   <v>       0.25000000       0.25000000       0.00000000 </v>
   <v>      -0.25000000       0.25000000       0.00000000 </v>
   <v>       0.33333333       0.25000000       0.00000000 </v>
   <v>      -0.25000000       0.33333333       0.00000000 </v>
   <v>       0.00000000       0.25000000       0.33333333 </v>
   <v>       0.00000000      -0.33333333       0.25000000 </v>
   <v>       0.41666667       0.25000000       0.00000000 </v>
   <v>      -0.25000000       0.41666667       0.00000000 </v>
   <v>      -0.00000000       0.25000000       0.41666667 </v>
   <v>       0.00000000      -0.41666667       0.25000000 </v>
   <v>       0.50000000       0.25000000       0.00000000 </v>
   <v>      -0.25000000       0.50000000       0.00000000 </v>
   <v>       0.33333333       0.33333333       0.00000000 </v>
   <v>      -0.33333333       0.33333333       0.00000000 </v>
   <v>       0.41666667       0.33333333       0.00000000 </v>
   <v>      -0.33333333       0.41666667       0.00000000 </v>
   <v>      -0.00000000       0.33333333       0.41666667 </v>
   <v>       0.00000000      -0.41666667       0.33333333 </v>
   <v>       0.50000000       0.33333333       0.00000000 </v>
   <v>      -0.33333333       0.50000000       0.00000000 </v>
   <v>       0.41666667       0.41666667       0.00000000 </v>
   <v>      -0.41666667       0.41666667       0.00000000 </v>
   <v>       0.50000000       0.41666667       0.00000000 </v>
   <v>      -0.41666667       0.50000000       0.00000000 </v>
   <v>       0.50000000       0.50000000       0.00000000 </v>
   <v>       0.08333333       0.08333333       0.08333333 </v>
   <v>      -0.08333333       0.08333333       0.08333333 </v>
   <v>       0.16666667       0.08333333       0.08333333 </v>
   <v>      -0.08333333       0.16666667       0.08333333 </v>
   <v>      -0.16666667       0.08333333       0.08333333 </v>
   <v>      -0.08333333       0.08333333       0.16666667 </v>
   <v>       0.25000000       0.08333333       0.08333333 </v>
   <v>      -0.08333333       0.25000000       0.08333333 </v>
   <v>      -0.25000000       0.08333333       0.08333333 </v>
   <v>      -0.08333333       0.08333333       0.25000000 </v>
   <v>       0.33333333       0.08333333       0.08333333 </v>
   <v>      -0.08333333       0.33333333       0.08333333 </v>
   <v>      -0.33333333       0.08333333       0.08333333 </v>
   <v>      -0.08333333       0.08333333       0.33333333 </v>
   <v>       0.41666667       0.08333333       0.08333333 </v>
   <v>      -0.08333333       0.41666667       0.08333333 </v>
   <v>      -0.41666667       0.08333333       0.08333333 </v>
   <v>      -0.08333333       0.08333333       0.41666667 </v>
   <v>       0.50000000       0.08333333       0.08333333 </v>
   <v>      -0.08333333       0.50000000       0.08333333 </v>
   <v>       0.16666667       0.16666667       0.08333333 </v>
   <v>      -0.16666667       0.16666667       0.08333333 </v>
   <v>      -0.16666667       0.08333333       0.16666667 </v>
   <v>      -0.08333333       0.16666667       0.16666667 </v>
   <v>       0.25000000       0.16666667       0.08333333 </v>
   <v>      -0.16666667       0.25000000       0.08333333 </v>
   <v>      -0.25000000       0.08333333       0.16666667 </v>
   <v>      -0.08333333       0.16666667       0.25000000 </v>
   <v>      -0.25000000      -0.16666667       0.08333333 </v>
   <v>      -0.08333333      -0.25000000       0.16666667 </v>
   <v>      -0.16666667      -0.08333333       0.25000000 </v>
   <v>      -0.25000000      -0.08333333      -0.16666667 </v>
   <v>       0.33333333       0.16666667       0.08333333 </v>
   <v>      -0.16666667       0.33333333       0.08333333 </v>
   <v>      -0.33333333       0.08333333       0.16666667 </v>
   <v>      -0.08333333       0.16666667       0.33333333 </v>
   <v>      -0.33333333      -0.16666667       0.08333333 </v>
   <v>      -0.08333333      -0.33333333       0.16666667 </v>
   <v>      -0.16666667      -0.08333333       0.33333333 </v>
   <v>      -0.33333333      -0.08333333      -0.16666667 </v>
   <v>       0.41666667       0.16666667       0.08333333 </v>
   <v>      -0.16666667       0.41666667       0.08333333 </v>
   <v>      -0.41666667       0.08333333       0.16666667 </v>
   <v>      -0.08333333       0.16666667       0.41666667 </v>
   <v>      -0.41666667      -0.16666667       0.08333333 </v>
   <v>      -0.08333333      -0.41666667       0.16666667 </v>
   <v>      -0.16666667      -0.08333333       0.41666667 </v>
   <v>      -0.41666667      -0.08333333      -0.16666667 </v>
   <v>       0.50000000       0.16666667       0.08333333 </v>
   <v>      -0.16666667       0.50000000       0.08333333 </v>
   <v>       0.50000000       0.08333333       0.16666667 </v>
   <v>       0.50000000      -0.16666667       0.08333333 </v>
   <v>       0.25000000       0.25000000       0.08333333 </v>
   <v>      -0.25000000       0.25000000       0.08333333 </v>
   <v>      -0.25000000       0.08333333       0.25000000 </v>
   <v>      -0.08333333       0.25000000       0.25000000 </v>
   <v>       0.33333333       0.25000000       0.08333333 </v>
   <v>      -0.25000000       0.33333333       0.08333333 </v>
   <v>      -0.33333333       0.08333333       0.25000000 </v>
   <v>      -0.08333333       0.25000000       0.33333333 </v>
   <v>      -0.33333333      -0.25000000       0.08333333 </v>
   <v>      -0.08333333      -0.33333333       0.25000000 </v>
   <v>      -0.25000000      -0.08333333       0.33333333 </v>
   <v>      -0.33333333      -0.08333333      -0.25000000 </v>
   <v>       0.41666667       0.25000000       0.08333333 </v>
   <v>      -0.25000000       0.41666667       0.08333333 </v>
   <v>      -0.41666667       0.08333333       0.25000000 </v>
   <v>      -0.08333333       0.25000000       0.41666667 </v>
   <v>      -0.41666667      -0.25000000       0.08333333 </v>
   <v>      -0.08333333      -0.41666667       0.25000000 </v>
   <v>      -0.25000000      -0.08333333       0.41666667 </v>
   <v>      -0.41666667      -0.08333333      -0.25000000 </v>
   <v>       0.50000000       0.25000000       0.08333333 </v>
   <v>      -0.25000000       0.50000000       0.08333333 </v>
   <v>       0.50000000       0.08333333       0.25000000 </v>
   <v>       0.50000000      -0.25000000       0.08333333 </v>
   <v>       0.33333333       0.33333333       0.08333333 </v>
   <v>      -0.33333333       0.33333333       0.08333333 </v>
   <v>      -0.33333333       0.08333333       0.33333333 </v>
   <v>      -0.08333333       0.33333333       0.33333333 </v>
   <v>       0.41666667       0.33333333       0.08333333 </v>
   <v>      -0.33333333       0.41666667       0.08333333 </v>
   <v>      -0.41666667       0.08333333       0.33333333 </v>
   <v>      -0.08333333       0.33333333       0.41666667 </v>
   <v>      -0.41666667      -0.33333333       0.08333333 </v>
   <v>      -0.08333333      -0.41666667       0.33333333 </v>
   <v>      -0.33333333      -0.08333333       0.41666667 </v>
   <v>      -0.41666667      -0.08333333      -0.33333333 </v>
   <v>       0.50000000       0.33333333       0.08333333 </v>
   <v>      -0.33333333       0.50000000       0.08333333 </v>
   <v>       0.50000000       0.08333333       0.33333333 </v>
   <v>       0.50000000      -0.33333333       0.08333333 </v>
   <v>       0.41666667       0.41666667       0.08333333 </v>
   <v>      -0.41666667       0.41666667       0.08333333 </v>
   <v>      -0.41666667       0.08333333       0.41666667 </v>
   <v>      -0.08333333       0.41666667       0.41666667 </v>
   <v>       0.50000000       0.41666667       0.08333333 </v>
   <v>      -0.41666667       0.50000000       0.08333333 </v>
   <v>       0.50000000       0.08333333       0.41666667 </v>
   <v>       0.50000000      -0.41666667       0.08333333 </v>
   <v>       0.50000000       0.50000000       0.08333333 </v>
   <v>       0.16666667       0.16666667       0.16666667 </v>
   <v>      -0.16666667       0.16666667       0.16666667 </v>
   <v>       0.25000000       0.16666667       0.16666667 </v>
   <v>      -0.16666667       0.25000000       0.16666667 </v>
   <v>      -0.25000000       0.16666667       0.16666667 </v>
   <v>      -0.16666667       0.16666667       0.25000000 </v>
   <v>       0.33333333       0.16666667       0.16666667 </v>
   <v>      -0.16666667       0.33333333       0.16666667 </v>
   <v>      -0.33333333       0.16666667       0.16666667 </v>
   <v>      -0.16666667       0.16666667       0.33333333 </v>
   <v>       0.41666667       0.16666667       0.16666667 </v>
   <v>      -0.16666667       0.41666667       0.16666667 </v>
   <v>      -0.41666667       0.16666667       0.16666667 </v>
   <v>      -0.16666667       0.16666667       0.41666667 </v>
   <v>       0.50000000       0.16666667       0.16666667 </v>
   <v>      -0.16666667       0.50000000       0.16666667 </v>
   <v>       0.25000000       0.25000000       0.16666667 </v>
   <v>      -0.25000000       0.25000000       0.16666667 </v>
   <v>      -0.25000000       0.16666667       0.25000000 </v>
   <v>      -0.16666667       0.25000000       0.25000000 </v>
   <v>       0.33333333       0.25000000       0.16666667 </v>
   <v>      -0.25000000       0.33333333       0.16666667 </v>
   <v>      -0.33333333       0.16666667       0.25000000 </v>
   <v>      -0.16666667       0.25000000       0.33333333 </v>
   <v>      -0.33333333      -0.25000000       0.16666667 </v>
   <v>      -0.16666667      -0.33333333       0.25000000 </v>
   <v>      -0.25000000      -0.16666667       0.33333333 </v>
   <v>      -0.33333333      -0.16666667      -0.25000000 </v>
   <v>       0.41666667       0.25000000       0.16666667 </v>
   <v>      -0.25000000       0.41666667       0.16666667 </v>
   <v>      -0.41666667       0.16666667       0.25000000 </v>
   <v>      -0.16666667       0.25000000       0.41666667 </v>
   <v>      -0.41666667      -0.25000000       0.16666667 </v>
   <v>      -0.16666667      -0.41666667       0.25000000 </v>
   <v>      -0.25000000      -0.16666667       0.41666667 </v>
   <v>      -0.41666667      -0.16666667      -0.25000000 </v>
   <v>       0.50000000       0.25000000       0.16666667 </v>
   <v>      -0.25000000       0.50000000       0.16666667 </v>
   <v>       0.50000000       0.16666667       0.25000000 </v>
   <v>       0.50000000      -0.25000000       0.16666667 </v>
   <v>       0.33333333       0.33333333       0.16666667 </v>
   <v>      -0.33333333       0.33333333       0.16666667 </v>
   <v>      -0.33333333       0.16666667       0.33333333 </v>
   <v>      -0.16666667       0.33333333       0.33333333 </v>
   <v>       0.41666667       0.33333333       0.16666667 </v>
   <v>      -0.33333333       0.41666667       0.16666667 </v>
   <v>      -0.41666667       0.16666667       0.33333333 </v>
   <v>      -0.16666667       0.33333333       0.41666667 </v>
   <v>      -0.41666667      -0.33333333       0.16666667 </v>
   <v>      -0.16666667      -0.41666667       0.33333333 </v>
   <v>      -0.33333333      -0.16666667       0.41666667 </v>
   <v>      -0.41666667      -0.16666667      -0.33333333 </v>
   <v>       0.50000000       0.33333333       0.16666667 </v>
   <v>      -0.33333333       0.50000000       0.16666667 </v>
   <v>       0.50000000       0.16666667       0.33333333 </v>
   <v>       0.50000000      -0.33333333       0.16666667 </v>
   <v>       0.41666667       0.41666667       0.16666667 </v>
   <v>      -0.41666667       0.41666667       0.16666667 </v>
   <v>      -0.41666667       0.16666667       0.41666667 </v>
   <v>      -0.16666667       0.41666667       0.41666667 </v>
   <v>       0.50000000       0.41666667       0.16666667 </v>
   <v>      -0.41666667       0.50000000       0.16666667 </v>
   <v>       0.50000000       0.16666667       0.41666667 </v>
   <v>       0.50000000      -0.41666667       0.16666667 </v>
   <v>       0.50000000       0.50000000       0.16666667 </v>
   <v>       0.25000000       0.25000000       0.25000000 </v>
   <v>      -0.25000000       0.25000000       0.25000000 </v>
   <v>       0.33333333       0.25000000       0.25000000 </v>
   <v>      -0.25000000       0.33333333       0.25000000 </v>
   <v>      -0.33333333       0.25000000       0.25000000 </v>
   <v>      -0.25000000       0.25000000       0.33333333 </v>
   <v>       0.41666667       0.25000000       0.25000000 </v>
   <v>      -0.25000000       0.41666667       0.25000000 </v>
   <v>      -0.41666667       0.25000000       0.25000000 </v>
   <v>      -0.25000000       0.25000000       0.41666667 </v>
   <v>       0.50000000       0.25000000       0.25000000 </v>
   <v>      -0.25000000       0.50000000       0.25000000 </v>
   <v>       0.33333333       0.33333333       0.25000000 </v>
   <v>      -0.33333333       0.33333333       0.25000000 </v>
   <v>      -0.33333333       0.25000000       0.33333333 </v>
   <v>      -0.25000000       0.33333333       0.33333333 </v>
   <v>       0.41666667       0.33333333       0.25000000 </v>
   <v>      -0.33333333       0.41666667       0.25000000 </v>
   <v>      -0.41666667       0.25000000       0.33333333 </v>
   <v>      -0.25000000       0.33333333       0.41666667 </v>
   <v>      -0.41666667      -0.33333333       0.25000000 </v>
   <v>      -0.25000000      -0.41666667       0.33333333 </v>
   <v>      -0.33333333      -0.25000000       0.41666667 </v>
   <v>      -0.41666667      -0.25000000      -0.33333333 </v>
   <v>       0.50000000       0.33333333       0.25000000 </v>
   <v>      -0.33333333       0.50000000       0.25000000 </v>
   <v>       0.50000000       0.25000000       0.33333333 </v>
   <v>       0.50000000      -0.33333333       0.25000000 </v>
   <v>       0.41666667       0.41666667       0.25000000 </v>
   <v>      -0.41666667       0.41666667       0.25000000 </v>
   <v>      -0.41666667       0.25000000       0.41666667 </v>
   <v>      -0.25000000       0.41666667       0.41666667 </v>
   <v>       0.50000000       0.41666667       0.25000000 </v>
   <v>      -0.41666667       0.50000000       0.25000000 </v>
   <v>       0.50000000       0.25000000       0.41666667 </v>
   <v>       0.50000000      -0.41666667       0.25000000 </v>
   <v>       0.50000000       0.50000000       0.25000000 </v>
   <v>       0.33333333       0.33333333       0.33333333 </v>
   <v>      -0.33333333       0.33333333       0.33333333 </v>
   <v>       0.41666667       0.33333333       0.33333333 </v>
   <v>      -0.33333333       0.41666667       0.33333333 </v>
   <v>      -0.41666667       0.33333333       0.33333333 </v>
   <v>      -0.33333333       0.33333333       0.41666667 </v>
   <v>       0.50000000       0.33333333       0.33333333 </v>
   <v>      -0.33333333       0.50000000       0.33333333 </v>
   <v>       0.41666667       0.41666667       0.33333333 </v>
   <v>      -0.41666667       0.41666667       0.33333333 </v>
   <v>      -0.41666667       0.33333333       0.41666667 </v>
   <v>      -0.33333333       0.41666667       0.41666667 </v>
   <v>       0.50000000       0.41666667       0.33333333 </v>
   <v>      -0.41666667       0.50000000       0.33333333 </v>
   <v>       0.50000000       0.33333333       0.41666667 </v>
   <v>       0.50000000      -0.41666667       0.33333333 </v>
   <v>       0.50000000       0.50000000       0.33333333 </v>
   <v>       0.41666667       0.41666667       0.41666667 </v>
   <v>      -0.41666667       0.41666667       0.41666667 </v>
   <v>       0.50000000       0.41666667       0.41666667 </v>
   <v>      -0.41666667       0.50000000       0.41666667 </v>
   <v>       0.50000000       0.50000000       0.41666667 </v>
   <v>       0.50000000       0.50000000       0.50000000 </v>
  </varray>
  <varray name="weights" >
   <v>       0.00057870 </v>
   <v>       0.00347222 </v>
   <v>       0.00347222 </v>
   <v>       0.00347222 </v>
   <v>       0.00347222 </v>
   <v>       0.00347222 </v>
   <v>       0.00173611 </v>
   <v>       0.00347222 </v>
   <v>       0.00347222 </v>
   <v>       0.00347222 </v>
   <v>       0.00347222 </v>
   <v>       0.00347222 </v>
   <v>       0.00347222 </v>
   <v>       0.00347222 </v>
   <v>       0.00347222 </v>
   <v>       0.00347222 </v>
   <v>       0.00347222 </v>
   <v>       0.00347222 </v>
   <v>       0.00347222 </v>
   <v>       0.00347222 </v>
   <v>       0.00347222 </v>
   <v>       0.00347222 </v>
   <v>       0.00347222 </v>
   <v>       0.00347222 </v>
   <v>       0.00347222 </v>
   <v>       0.00347222 </v>
   <v>       0.00347222 </v>
   <v>       0.00347222 </v>
   <v>       0.00347222 </v>
   <v>       0.00347222 </v>
   <v>       0.00347222 </v>
   <v>       0.00347222 </v>
   <v>       0.00347222 </v>
   <v>       0.00347222 </v>
   <v>       0.00347222 </v>
   <v>       0.00347222 </v>
   <v>       0.00347222 </v>
   <v>       0.00347222 </v>
   <v>       0.00347222 </v>
   <v>       0.00347222 </v>
   <v>       0.00347222 </v>
   <v>       0.00347222 </v>
   <v>       0.00347222 </v>
   <v>       0.00347222 </v>
   <v>       0.00347222 </v>
   <v>       0.00347222 </v>
   <v>       0.00347222 </v>
   <v>       0.00347222 </v>
   <v>       0.00347222 </v>
   <v>       0.00347222 </v>
   <v>       0.00347222 </v>
   <v>       0.00347222 </v>
   <v>       0.00347222 </v>
   <v>       0.00347222 </v>
   <v>       0.00347222 </v>
   <v>       0.00347222 </v>
   <v>       0.00347222 </v>
   <v>       0.00347222 </v>
   <v>       0.00347222 </v>
   <v>       0.00347222 </v>
   <v>       0.00347222 </v>
   <v>       0.00347222 </v>
   <v>       0.00347222 </v>
   <v>       0.00347222 </v>
   <v>       0.00347222 </v>
   <v>       0.00347222 </v>
   <v>       0.00347222 </v>
   <v>       0.00173611 </v>
   <v>       0.00115741 </v>
   <v>       0.00347222 </v>
   <v>       0.00347222 </v>
   <v>       0.00347222 </v>
   <v>       0.00347222 </v>
   <v>       0.00347222 </v>
   <v>       0.00347222 </v>
   <v>       0.00347222 </v>
   <v>       0.00347222 </v>
   <v>       0.00347222 </v>
   <v>       0.00347222 </v>
   <v>       0.00347222 </v>
   <v>       0.00347222 </v>
   <v>       0.00347222 </v>
   <v>       0.00347222 </v>
   <v>       0.00347222 </v>
   <v>       0.00347222 </v>
   <v>       0.00347222 </v>
   <v>       0.00347222 </v>
   <v>       0.00347222 </v>
   <v>       0.00347222 </v>
   <v>       0.00347222 </v>
   <v>       0.00347222 </v>
   <v>       0.00347222 </v>
   <v>       0.00347222 </v>
   <v>       0.00347222 </v>
   <v>       0.00347222 </v>
   <v>       0.00347222 </v>
   <v>       0.00347222 </v>
   <v>       0.00347222 </v>
   <v>       0.00347222 </v>
   <v>       0.00347222 </v>
   <v>       0.00347222 </v>
   <v>       0.00347222 </v>
   <v>       0.00347222 </v>
   <v>       0.00347222 </v>
   <v>       0.00347222 </v>
   <v>       0.00347222 </v>
   <v>       0.00347222 </v>
   <v>       0.00347222 </v>
   <v>       0.00347222 </v>
   <v>       0.00347222 </v>
   <v>       0.00347222 </v>
   <v>       0.00347222 </v>
   <v>       0.00347222 </v>
   <v>       0.00347222 </v>
   <v>       0.00347222 </v>
   <v>       0.00347222 </v>
   <v>       0.00347222 </v>
   <v>       0.00347222 </v>
   <v>       0.00347222 </v>
   <v>       0.00347222 </v>
   <v>       0.00347222 </v>
   <v>       0.00347222 </v>
   <v>       0.00347222 </v>
   <v>       0.00347222 </v>
   <v>       0.00347222 </v>
   <v>       0.00347222 </v>
   <v>       0.00347222 </v>
   <v>       0.00347222 </v>
   <v>       0.00347222 </v>
   <v>       0.00347222 </v>
   <v>       0.00347222 </v>
   <v>       0.00347222 </v>
   <v>       0.00347222 </v>
   <v>       0.00347222 </v>
   <v>       0.00347222 </v>
   <v>       0.00347222 </v>
   <v>       0.00347222 </v>
   <v>       0.00347222 </v>
   <v>       0.00347222 </v>
   <v>       0.00347222 </v>
   <v>       0.00347222 </v>
   <v>       0.00347222 </v>
   <v>       0.00347222 </v>
   <v>       0.00347222 </v>
   <v>       0.00347222 </v>
   <v>       0.00347222 </v>
   <v>       0.00347222 </v>
   <v>       0.00347222 </v>
   <v>       0.00347222 </v>
   <v>       0.00347222 </v>
   <v>       0.00347222 </v>
   <v>       0.00347222 </v>
   <v>       0.00347222 </v>
   <v>       0.00347222 </v>
   <v>       0.00347222 </v>
   <v>       0.00347222 </v>
   <v>       0.00347222 </v>
   <v>       0.00347222 </v>
   <v>       0.00347222 </v>
   <v>       0.00347222 </v>
   <v>       0.00347222 </v>
   <v>       0.00347222 </v>
   <v>       0.00347222 </v>
   <v>       0.00347222 </v>
   <v>       0.00347222 </v>
   <v>       0.00347222 </v>
   <v>       0.00347222 </v>
   <v>       0.00347222 </v>
   <v>       0.00347222 </v>
   <v>       0.00115741 </v>
   <v>       0.00347222 </v>
   <v>       0.00347222 </v>
   <v>       0.00347222 </v>
   <v>       0.00347222 </v>
   <v>       0.00347222 </v>
   <v>       0.00347222 </v>
   <v>       0.00347222 </v>
   <v>       0.00347222 </v>
   <v>       0.00347222 </v>
   <v>       0.00347222 </v>
   <v>       0.00347222 </v>
   <v>       0.00347222 </v>
   <v>       0.00347222 </v>
   <v>       0.00347222 </v>
   <v>       0.00347222 </v>
   <v>       0.00347222 </v>
   <v>       0.00347222 </v>
   <v>       0.00347222 </v>
   <v>       0.00347222 </v>
   <v>       0.00347222 </v>
   <v>       0.00347222 </v>
   <v>       0.00347222 </v>
   <v>       0.00347222 </v>
   <v>       0.00347222 </v>
   <v>       0.00347222 </v>
   <v>       0.00347222 </v>
   <v>       0.00347222 </v>
   <v>       0.00347222 </v>
   <v>       0.00347222 </v>
   <v>       0.00347222 </v>
   <v>       0.00347222 </v>
   <v>       0.00347222 </v>
   <v>       0.00347222 </v>
   <v>       0.00347222 </v>
   <v>       0.00347222 </v>
   <v>       0.00347222 </v>
   <v>       0.00347222 </v>
   <v>       0.00347222 </v>
   <v>       0.00347222 </v>
   <v>       0.00347222 </v>
   <v>       0.00347222 </v>
   <v>       0.00347222 </v>
   <v>       0.00347222 </v>
   <v>       0.00347222 </v>
   <v>       0.00347222 </v>
   <v>       0.00347222 </v>
   <v>       0.00347222 </v>
   <v>       0.00347222 </v>
   <v>       0.00347222 </v>
   <v>       0.00347222 </v>
   <v>       0.00347222 </v>
   <v>       0.00347222 </v>
   <v>       0.00347222 </v>
   <v>       0.00347222 </v>
   <v>       0.00347222 </v>
   <v>       0.00347222 </v>
   <v>       0.00347222 </v>
   <v>       0.00347222 </v>
   <v>       0.00347222 </v>
   <v>       0.00347222 </v>
   <v>       0.00347222 </v>
   <v>       0.00347222 </v>
   <v>       0.00347222 </v>
   <v>       0.00347222 </v>
   <v>       0.00115741 </v>
   <v>       0.00347222 </v>
   <v>       0.00347222 </v>
   <v>       0.00347222 </v>
   <v>       0.00347222 </v>
   <v>       0.00347222 </v>
   <v>       0.00347222 </v>
   <v>       0.00347222 </v>
   <v>       0.00347222 </v>
   <v>       0.00347222 </v>
   <v>       0.00347222 </v>
   <v>       0.00347222 </v>
   <v>       0.00347222 </v>
   <v>       0.00347222 </v>
   <v>       0.00347222 </v>
   <v>       0.00347222 </v>
   <v>       0.00347222 </v>
   <v>       0.00347222 </v>
   <v>       0.00347222 </v>
   <v>       0.00347222 </v>
   <v>       0.00347222 </v>
   <v>       0.00347222 </v>
   <v>       0.00347222 </v>
   <v>       0.00347222 </v>
   <v>       0.00347222 </v>
   <v>       0.00347222 </v>
   <v>       0.00347222 </v>
   <v>       0.00347222 </v>
   <v>       0.00347222 </v>
   <v>       0.00347222 </v>
   <v>       0.00347222 </v>
   <v>       0.00347222 </v>
   <v>       0.00347222 </v>
   <v>       0.00347222 </v>
   <v>       0.00347222 </v>
   <v>       0.00347222 </v>
   <v>       0.00347222 </v>
   <v>       0.00115741 </v>
   <v>       0.00347222 </v>
   <v>       0.00347222 </v>
   <v>       0.00347222 </v>
   <v>       0.00347222 </v>
   <v>       0.00347222 </v>
   <v>       0.00347222 </v>
   <v>       0.00347222 </v>
   <v>       0.00347222 </v>
   <v>       0.00347222 </v>
   <v>       0.00347222 </v>
   <v>       0.00347222 </v>
   <v>       0.00347222 </v>
   <v>       0.00347222 </v>
   <v>       0.00347222 </v>
   <v>       0.00347222 </v>
   <v>       0.00347222 </v>
   <v>       0.00115741 </v>
   <v>       0.00347222 </v>
   <v>       0.00347222 </v>
   <v>       0.00347222 </v>
   <v>       0.00347222 </v>
   <v>       0.00057870 </v>
  </varray>
 </kpoints>
 <parameters>
  <separator name="general" >
   <i type="string" name="SYSTEM">W</i>
   <i type="logical" name="LCOMPAT"> F  </i>
  </separator>
  <separator name="electronic" >
   <i type="string" name="PREC">normal</i>
   <i name="ENMAX">    289.97410000</i>
   <i name="ENAUG">    373.43800000</i>
   <i name="EDIFF">      0.00010000</i>
   <i type="int" name="IALGO">    38</i>
   <i type="int" name="IWAVPR">    10</i>
   <i type="int" name="NBANDS">    48</i>
   <i type="int" name="NBANDSLOW">    -1</i>
   <i type="int" name="NBANDSHIGH">    -1</i>
   <i name="NELECT">     28.00000000</i>
   <i type="int" name="TURBO">     0</i>
   <i type="int" name="IRESTART">     0</i>
   <i type="int" name="NREBOOT">     0</i>
   <i type="int" name="NMIN">     0</i>
   <i name="EREF">      0.00000000</i>
   <separator name="electronic smearing" >
    <i type="int" name="ISMEAR">     0</i>
    <i name="SIGMA">      0.05000000</i>
    <i name="KSPACING">      0.50000000</i>
    <i type="logical" name="KGAMMA"> T  </i>
    <i type="logical" name="KBLOWUP"> T  </i>
   </separator>
   <separator name="electronic projectors" >
    <i type="logical" name="LREAL"> F  </i>
    <v name="ROPT">      0.00000000</v>
    <i type="int" name="LMAXPAW">  -100</i>
    <i type="int" name="LMAXMIX">     2</i>
    <i type="logical" name="NLSPLINE"> F  </i>
   </separator>
   <separator name="electronic startup" >
    <i type="int" name="ISTART">     1</i>
    <i type="int" name="ICHARG">     0</i>
    <i type="int" name="INIWAV">     1</i>
   </separator>
   <separator name="electronic spin" >
    <i type="int" name="ISPIN">     1</i>
    <i type="logical" name="LNONCOLLINEAR"> T  </i>
    <v name="MAGMOM">      1.00000000      1.00000000      1.00000000      1.00000000      1.00000000      1.00000000</v>
    <i name="NUPDOWN">     -1.00000000</i>
    <i type="logical" name="LSORBIT"> T  </i>
    <v name="SAXIS">      0.00000000      0.00000000      1.00000000</v>
    <i type="logical" name="LSPIRAL"> F  </i>
    <v name="QSPIRAL">      0.00000000      0.00000000      0.00000000</v>
    <i type="logical" name="LZEROZ"> F  </i>
   </separator>
   <separator name="electronic exchange-correlation" >
    <i type="logical" name="LASPH"> F  </i>
   </separator>
   <separator name="electronic convergence" >
    <i type="int" name="NELM">    60</i>
    <i type="int" name="NELMDL">     0</i>
    <i type="int" name="NELMIN">     2</i>
    <i name="ENINI">    289.97410000</i>
    <separator name="electronic convergence detail" >
     <i type="logical" name="LDIAG"> T  </i>
     <i type="logical" name="LSUBROT"> F  </i>
     <i name="WEIMIN">      0.00000000</i>
     <i name="EBREAK">      0.00000052</i>
     <i name="DEPER">      0.30000000</i>
     <i type="int" name="NRMM">     4</i>
     <i name="TIME">      0.40000000</i>
    </separator>
   </separator>
   <separator name="electronic mixer" >
    <i name="AMIX">      0.40000000</i>
    <i name="BMIX">      1.00000000</i>
    <i name="AMIN">      0.10000000</i>
    <i name="AMIX_MAG">      1.60000000</i>
    <i name="BMIX_MAG">      1.00000000</i>
    <separator name="electronic mixer details" >
     <i type="int" name="IMIX">     4</i>
     <i type="logical" name="MIXFIRST"> F  </i>
     <i type="int" name="MAXMIX">   -45</i>
     <i name="WC">    100.00000000</i>
     <i type="int" name="INIMIX">     1</i>
     <i type="int" name="MIXPRE">     1</i>
     <i type="int" name="MREMOVE">     5</i>
    </separator>
   </separator>
   <separator name="electronic dipolcorrection" >
    <i type="logical" name="LDIPOL"> F  </i>
    <i type="logical" name="LMONO"> F  </i>
    <i type="int" name="IDIPOL">     0</i>
    <i name="EPSILON">      1.00000000</i>
    <v name="DIPOL">   -100.00000000   -100.00000000   -100.00000000</v>
    <i name="EFIELD">      0.00000000</i>
    <i type="logical" name="LVACPOTAV"> F  </i>
   </separator>
  </separator>
  <separator name="grids" >
   <i type="int" name="NGX">    14</i>
   <i type="int" name="NGY">    14</i>
   <i type="int" name="NGZ">    14</i>
   <i type="int" name="NGXF">    28</i>
   <i type="int" name="NGYF">    28</i>
   <i type="int" name="NGZF">    28</i>
   <i type="logical" name="ADDGRID"> F  </i>
  </separator>
  <separator name="ionic" >
   <i type="int" name="NSW">     0</i>
   <i type="int" name="IBRION">    -1</i>
   <i type="int" name="MDALGO">     0</i>
   <i type="int" name="ISIF">     2</i>
   <i name="PSTRESS">      0.00000000</i>
   <i name="EDIFFG">      0.00100000</i>
   <i type="int" name="NFREE">     0</i>
   <i name="POTIM">      0.50000000</i>
   <i name="SMASS">     -3.00000000</i>
   <i name="SCALEE">      1.00000000</i>
  </separator>
  <separator name="ionic md" >
   <i name="TEBEG">      0.00010000</i>
   <i name="TEEND">      0.00010000</i>
   <i type="int" name="NBLOCK">     1</i>
   <i type="int" name="KBLOCK">     1</i>
   <i type="int" name="NPACO">   256</i>
   <i name="APACO">     10.00000000</i>
  </separator>
  <separator name="symmetry" >
   <i type="int" name="ISYM">     2</i>
   <i name="SYMPREC">      0.00001000</i>
  </separator>
  <separator name="dos" >
   <i type="int" name="LORBIT">     0</i>
   <v name="RWIGS">     -1.00000000</v>
   <i type="int" name="NEDOS">   301</i>
   <i name="EMIN">     10.00000000</i>
   <i name="EMAX">    -10.00000000</i>
   <i name="EFERMI">      0.00000000</i>
  </separator>
  <separator name="writing" >
   <i type="int" name="NWRITE">     2</i>
   <i type="logical" name="LWAVE"> T  </i>
   <i type="logical" name="LDOWNSAMPLE"> F  </i>
   <i type="logical" name="LCHARG"> T  </i>
   <i type="logical" name="LPARD"> F  </i>
   <i type="logical" name="LVTOT"> F  </i>
   <i type="logical" name="LVHAR"> F  </i>
   <i type="logical" name="LELF"> F  </i>
   <i type="logical" name="LOPTICS"> F  </i>
   <v name="STM">      0.00000000      0.00000000      0.00000000      0.00000000      0.00000000      0.00000000      0.00000000</v>
  </separator>
  <separator name="performance" >
   <i type="int" name="NPAR">    48</i>
   <i type="int" name="NSIM">     4</i>
   <i type="int" name="NBLK">    -1</i>
   <i type="logical" name="LPLANE"> T  </i>
   <i type="logical" name="LSCALAPACK"> T  </i>
   <i type="logical" name="LSCAAWARE"> T  </i>
   <i type="logical" name="LSCALU"> F  </i>
   <i type="logical" name="LASYNC"> F  </i>
   <i type="logical" name="LORBITALREAL"> F  </i>
  </separator>
  <separator name="miscellaneous" >
   <i type="int" name="IDIOT">     3</i>
   <i type="int" name="PHON_NSTRUCT">    -1</i>
   <i type="logical" name="LMUSIC"> F  </i>
   <v name="POMASS">    183.85000000</v>
   <v name="DARWINR">      0.00000000</v>
   <v name="DARWINV">      1.00000000</v>
   <i type="logical" name="LCORR"> T  </i>
  </separator>
  <i type="logical" name="GGA_COMPAT"> T  </i>
  <i type="logical" name="LBERRY"> F  </i>
  <i type="int" name="ICORELEVEL">     0</i>
  <i type="logical" name="LDAU"> F  </i>
  <i type="int" name="I_CONSTRAINED_M">     0</i>
  <separator name="electronic exchange-correlation" >
   <i type="string" name="GGA    ">PE</i>
   <i type="string" name="XC_C">1</i>
   <i type="int" name="VOSKOWN">     0</i>
   <i type="logical" name="LHFCALC"> F  </i>
   <i type="string" name="PRECFOCK"></i>
   <i type="logical" name="LSYMGRAD"> F  </i>
   <i type="logical" name="LHFONE"> F  </i>
   <i type="logical" name="LRHFCALC"> F  </i>
   <i type="logical" name="LTHOMAS"> F  </i>
   <i type="logical" name="LMODELHF"> F  </i>
   <i type="logical" name="LFOCKACE"> F  </i>
   <i name="ENCUT4O">     -1.00000000</i>
   <i type="int" name="EXXOEP">     0</i>
   <i type="int" name="FOURORBIT">     0</i>
   <i name="AEXX">      0.00000000</i>
   <i name="HFALPHA">      0.00000000</i>
   <i name="MCALPHA">      0.00000000</i>
   <i name="ALDAX">      1.00000000</i>
   <i name="AGGAX">      1.00000000</i>
   <i name="AMGGAX">      1.00000000</i>
   <i name="ALDAC">      1.00000000</i>
   <i name="AGGAC">      1.00000000</i>
   <i name="AMGGAC">      1.00000000</i>
   <i type="int" name="NKREDX">     1</i>
   <i type="int" name="NKREDY">     1</i>
   <i type="int" name="NKREDZ">     1</i>
   <i type="logical" name="SHIFTRED"> F  </i>
   <i type="logical" name="ODDONLY"> F  </i>
   <i type="logical" name="EVENONLY"> F  </i>
   <i type="int" name="LMAXFOCK">     0</i>
   <i type="int" name="NMAXFOCKAE">     0</i>
   <i type="logical" name="LFOCKAEDFT"> F  </i>
   <i name="HFSCREEN">      0.00000000</i>
   <i name="HFSCREENC">      0.00000000</i>
   <i type="int" name="NBANDSGWLOW">     0</i>
  </separator>
  <separator name="vdW DFT" >
   <i type="logical" name="LUSE_VDW"> F  </i>
   <i type="int" name="IVDW_NL">    -1</i>
   <i type="logical" name="LSPIN_VDW"> F  </i>
   <i name="ZAB_VDW">     -0.84910000</i>
   <i name="GAMMA_VDW">      1.39626340</i>
   <i name="ALPHA_VDW">      0.00000000</i>
   <i name="PARAM1">      0.12340000</i>
   <i name="PARAM2">      1.00000000</i>
   <i name="BPARAM">      6.30000000</i>
   <i name="CPARAM">      0.00930000</i>
  </separator>
  <separator name="model GW" >
   <i type="int" name="MODEL_GW">     0</i>
   <i name="MODEL_EPS0">      9.73559728</i>
   <i name="MODEL_ALPHA">      1.00000000</i>
  </separator>
  <separator name="linear response parameters" >
   <i type="logical" name="LEPSILON"> F  </i>
   <i type="logical" name="LRPA"> F  </i>
   <i type="logical" name="LNABLA"> F  </i>
   <i type="logical" name="LVEL"> F  </i>
   <i name="CSHIFT">      0.10000000</i>
   <i name="OMEGAMAX">     -1.00000000</i>
   <i name="DEG_THRESHOLD">      0.00200000</i>
   <i name="RTIME">     -0.10000000</i>
   <i name="WPLASMAI">      0.00000000</i>
   <v name="DFIELD">      0.00000000      0.00000000      0.00000000</v>
   <v name="WPLASMA">      0.00000000      0.00000000      0.00000000      0.00000000      0.00000000      0.00000000      0.00000000      0.00000000      0.00000000</v>
  </separator>
  <separator name="orbital magnetization" >
   <i type="logical" name="NUCIND"> F  </i>
   <v name="MAGPOS">      0.00000000      0.00000000      0.00000000</v>
   <i type="logical" name="LNICSALL"> T  </i>
   <i type="logical" name="ORBITALMAG"> F  </i>
   <i type="logical" name="LMAGBLOCH"> F  </i>
   <i type="logical" name="LCHIMAG"> F  </i>
   <i type="logical" name="LGAUGE"> T  </i>
   <i type="int" name="MAGATOM">     0</i>
   <v name="MAGDIPOL">      0.00000000      0.00000000      0.00000000</v>
   <v name="AVECCONST">      0.00000000      0.00000000      0.00000000</v>
  </separator>
  <separator name="response functions" >
   <i type="logical" name="LALL_IN_ONE"> F  </i>
   <i type="int" name="IALL_IN_ONE">    -1</i>
   <i type="int" name="NBANDS_WAVE">    -1</i>
   <i type="logical" name="LFINITE_TEMPERATURE"> F  </i>
   <i type="logical" name="LADDER"> F  </i>
   <i type="logical" name="LRPAFORCE"> F  </i>
   <i type="logical" name="LFXC"> F  </i>
   <i type="logical" name="LHARTREE"> T  </i>
   <i type="int" name="IBSE">     0</i>
   <v type="int" name="KPOINT">    -1     0     0     0</v>
   <i type="logical" name="LTCTC"> F  </i>
   <i type="logical" name="LTCTE"> F  </i>
   <i type="logical" name="LTETE"> F  </i>
   <i type="logical" name="LTRIPLET"> F  </i>
   <i type="logical" name="LFXCEPS"> F  </i>
   <i type="logical" name="LFXHEG"> F  </i>
   <i type="int" name="NATURALO">     2</i>
   <i type="logical" name="LHOLEGF"> F  </i>
   <i type="logical" name="L2ORDER"> F  </i>
   <i type="logical" name="LDMP1"> F  </i>
   <i type="logical" name="LMP2LT"> F  </i>
   <i type="logical" name="LSMP2LT"> F  </i>
   <i type="logical" name="LGWLF"> F  </i>
   <i name="ENCUTGW">     -1.60000002</i>
   <i name="ENCUTGWSOFT">     -1.60000002</i>
   <i name="ENCUTLF">     -1.00000000</i>
   <i type="logical" name="ESF_SPLINES"> F  </i>
   <i name="ESF_CONV">      0.01000000</i>
   <i type="int" name="ESF_NINTER">    15</i>
   <i type="int" name="LMAXMP2">    -1</i>
   <i name="SCISSOR">      0.00000000</i>
   <i type="int" name="NOMEGA">     0</i>
   <i type="int" name="NOMEGAR">     0</i>
   <i type="int" name="NBANDSGW">    -1</i>
   <i type="int" name="NBANDSO">    -1</i>
   <i type="int" name="NBANDSV">    -1</i>
   <i type="int" name="NELMGW">     1</i>
   <i type="int" name="NELMHF">     1</i>
   <i type="int" name="DIM">     3</i>
   <i type="int" name="IESPILON">     4</i>
   <i type="int" name="ANTIRES">     0</i>
   <i name="OMEGAMAX">    -30.00000000</i>
   <i name="OMEGAMIN">    -30.00000000</i>
   <i name="OMEGATL">   -200.00000000</i>
   <i type="int" name="OMEGAGRID">     0</i>
   <i name="CSHIFT">     -0.10000000</i>
   <i type="logical" name="LSELFENERGY"> F  </i>
   <i type="logical" name="LSPECTRAL"> F  </i>
   <i type="logical" name="LSPECTRALGW"> F  </i>
   <i type="logical" name="LSINGLES"> F  </i>
   <i type="logical" name="LFERMIGW"> F  </i>
   <i type="logical" name="ODDONLYGW"> F  </i>
   <i type="logical" name="EVENONLYGW"> F  </i>
   <i type="int" name="NKREDLFX">     1</i>
   <i type="int" name="NKREDLFY">     1</i>
   <i type="int" name="NKREDLFZ">     1</i>
   <i type="int" name="MAXMEM">  2800</i>
   <i type="int" name="TELESCOPE">     0</i>
   <i type="int" name="NTAUPAR">    -1</i>
   <i type="int" name="NOMEGAPAR">    -1</i>
   <i name="DAMP_NEWTON">      0.80000001</i>
   <i name="LAMBDA">      1.00000000</i>
  </separator>
  <separator name="External order field" >
   <i name="OFIELD_KAPPA">      0.00000000</i>
   <v name="OFIELD_K">      0.00000000      0.00000000      0.00000000</v>
   <i name="OFIELD_Q6_NEAR">      0.00000000</i>
   <i name="OFIELD_Q6_FAR">      0.00000000</i>
   <i name="OFIELD_A">      0.00000000</i>
  </separator>
  <separator name="optional k-points parameters" >
   <i type="int" name="KPOINTS_OPT_MODE">     1</i>
   <i type="logical" name="LKPOINTS_OPT"> T  </i>
  </separator>
 </parameters>
 <atominfo>
  <atoms>       2 </atoms>
  <types>       1 </types>
  <array name="atoms" >
   <dimension dim="1">ion</dimension>
   <field type="string">element</field>
   <field type="int">atomtype</field>
   <set>
    <rc><c>W </c><c>   1</c></rc>
    <rc><c>W </c><c>   1</c></rc>
   </set>
  </array>
  <array name="atomtypes" >
   <dimension dim="1">type</dimension>
   <field type="int">atomspertype</field>
   <field type="string">element</field>
   <field>mass</field>
   <field>valence</field>
   <field type="string">pseudopotential</field>
   <set>
    <rc><c>   2</c><c>W </c><c>    183.85000000</c><c>     14.00000000</c><c>PAW_PBE W_sv 04Sep2015                  </c></rc>
   </set>
  </array>
 </atominfo>
 <structure name="initialpos" >
  <crystal>
   <varray name="basis" >
    <v>       3.18968000       0.00000000       0.00000000 </v>
    <v>       0.00000000       3.18968000       0.00000000 </v>
    <v>       0.00000000       0.00000000       3.18968000 </v>
   </varray>
   <i name="volume">     32.45199092 </i>
   <varray name="rec_basis" >
    <v>       0.31351107      -0.00000000       0.00000000 </v>
    <v>       0.00000000       0.31351107       0.00000000 </v>
    <v>      -0.00000000      -0.00000000       0.31351107 </v>
   </varray>
  </crystal>
  <varray name="positions" >
   <v>       0.00000000       0.00000000       0.00000000 </v>
   <v>       0.50000000       0.50000000       0.50000000 </v>
  </varray>
 </structure>
 <calculation>
  <scstep>
   <time name="dav">    1.78    1.78</time>
   <time name="total">    1.81    1.81</time>
   <energy>
    <i name="alphaZ">    295.23514728 </i>
    <i name="ewald">  -3220.14143539 </i>
    <i name="hartreedc">   -492.55626794 </i>
    <i name="XCdc">    112.95773509 </i>
    <i name="pawpsdc">   4572.38502198 </i>
    <i name="pawaedc">  -4539.53890114 </i>
    <i name="eentropy">     -0.00088409 </i>
    <i name="bandstr">   -486.98297174 </i>
    <i name="atom">   3731.09251179 </i>
    <i name="e_fr_energy">    -27.55004416 </i>
    <i name="e_wo_entrp">    -27.54916007 </i>
    <i name="e_0_energy">    -27.54960211 </i>
   </energy>
  </scstep>
  <scstep>
   <time name="dav">    1.76    1.76</time>
   <time name="total">    1.77    1.78</time>
   <energy>
    <i name="alphaZ">    295.23514728 </i>
    <i name="ewald">  -3220.14143539 </i>
    <i name="hartreedc">   -492.56735417 </i>
    <i name="XCdc">    112.95826834 </i>
    <i name="pawpsdc">   4572.06591068 </i>
    <i name="pawaedc">  -4539.21882940 </i>
    <i name="eentropy">     -0.00088344 </i>
    <i name="bandstr">   -486.97337974 </i>
    <i name="atom">   3731.09251179 </i>
    <i name="e_fr_energy">    -27.55004404 </i>
    <i name="e_wo_entrp">    -27.54916060 </i>
    <i name="e_0_energy">    -27.54960232 </i>
   </energy>
  </scstep>
  <structure>
   <crystal>
    <varray name="basis" >
     <v>       3.18968000       0.00000000       0.00000000 </v>
     <v>       0.00000000       3.18968000       0.00000000 </v>
     <v>       0.00000000       0.00000000       3.18968000 </v>
    </varray>
    <i name="volume">     32.45199092 </i>
    <varray name="rec_basis" >
     <v>       0.31351107      -0.00000000       0.00000000 </v>
     <v>       0.00000000       0.31351107       0.00000000 </v>
     <v>      -0.00000000      -0.00000000       0.31351107 </v>
    </varray>
   </crystal>
   <varray name="positions" >
    <v>       0.00000000       0.00000000       0.00000000 </v>
    <v>       0.50000000       0.50000000       0.50000000 </v>
   </varray>
  </structure>
  <varray name="forces" >
   <v>       0.00000000       0.00000000       0.00000000 </v>
   <v>      -0.00000000      -0.00000000      -0.00000000 </v>
  </varray>
  <varray name="stress" >
   <v>     -11.43870308      -0.00044849      -0.00044846 </v>
   <v>      -0.00044846     -11.43870308      -0.00044849 </v>
   <v>      -0.00044849      -0.00044846     -11.43870308 </v>
  </varray>
  <energy>
   <i name="e_fr_energy">    -27.55004404 </i>
   <i name="e_wo_entrp">    -27.54916060 </i>
   <i name="e_0_energy">    -27.54960232 </i>
  </energy>
  <dos comment="kpoints_opt">
   <i name="efermi">     10.74443981 </i>
   <total>
    <array>
     <dimension dim="1">gridpoints</dimension>
     <dimension dim="2">spin</dimension>
     <field>energy</field>
     <field>total</field>
     <field>integrated</field>
     <set>
      <set comment="spin 1">
       <r>   -67.7357     0.0000     0.0000 </r>
       <r>   -67.3954     0.0000     0.0000 </r>
       <r>   -67.0551     0.0000     0.0000 </r>
       <r>   -66.7149     0.0000     0.0000 </r>
       <r>   -66.3746     0.0000     0.0000 </r>
       <r>   -66.0343     0.0000     0.0000 </r>
       <r>   -65.6941     0.0000     0.0000 </r>
       <r>   -65.3538     0.0000     0.0000 </r>
       <r>   -65.0135     0.0000     0.0000 </r>
       <r>   -64.6733     0.0000     0.0000 </r>
       <r>   -64.3330     0.0000     0.0000 </r>
       <r>   -63.9927     0.0000     0.0000 </r>
       <r>   -63.6524     0.0000     0.0000 </r>
       <r>   -63.3122     0.0000     0.0000 </r>
       <r>   -62.9719     6.1444     2.0908 </r>
       <r>   -62.6316     5.5968     4.0000 </r>
       <r>   -62.2914     0.0000     4.0000 </r>
       <r>   -61.9511     0.0000     4.0000 </r>
       <r>   -61.6108     0.0000     4.0000 </r>
       <r>   -61.2706     0.0000     4.0000 </r>
       <r>   -60.9303     0.0000     4.0000 </r>
       <r>   -60.5900     0.0000     4.0000 </r>
       <r>   -60.2497     0.0000     4.0000 </r>
       <r>   -59.9095     0.0000     4.0000 </r>
       <r>   -59.5692     0.0000     4.0000 </r>
       <r>   -59.2289     0.0000     4.0000 </r>
       <r>   -58.8887     0.0000     4.0000 </r>
       <r>   -58.5484     0.0000     4.0000 </r>
       <r>   -58.2081     0.0000     4.0000 </r>
       <r>   -57.8679     0.0000     4.0000 </r>
       <r>   -57.5276     0.0000     4.0000 </r>
       <r>   -57.1873     0.0000     4.0000 </r>
       <r>   -56.8470     0.0000     4.0000 </r>
       <r>   -56.5068     0.0000     4.0000 </r>
       <r>   -56.1665     0.0000     4.0000 </r>
       <r>   -55.8262     0.0000     4.0000 </r>
       <r>   -55.4860     0.0000     4.0000 </r>
       <r>   -55.1457     0.0000     4.0000 </r>
       <r>   -54.8054     0.0000     4.0000 </r>
       <r>   -54.4652     0.0000     4.0000 </r>
       <r>   -54.1249     0.0000     4.0000 </r>
       <r>   -53.7846     0.0000     4.0000 </r>
       <r>   -53.4443     0.0000     4.0000 </r>
       <r>   -53.1041     0.0000     4.0000 </r>
       <r>   -52.7638     0.0000     4.0000 </r>
       <r>   -52.4235     0.0000     4.0000 </r>
       <r>   -52.0833     0.0000     4.0000 </r>
       <r>   -51.7430     0.0000     4.0000 </r>
       <r>   -51.4027     0.0000     4.0000 </r>
       <r>   -51.0625     0.0000     4.0000 </r>
       <r>   -50.7222     0.0000     4.0000 </r>
       <r>   -50.3819     0.0000     4.0000 </r>
       <r>   -50.0416     0.0000     4.0000 </r>
       <r>   -49.7014     0.0000     4.0000 </r>
       <r>   -49.3611     0.0000     4.0000 </r>
       <r>   -49.0208     0.0000     4.0000 </r>
       <r>   -48.6806     0.0000     4.0000 </r>
       <r>   -48.3403     0.0000     4.0000 </r>
       <r>   -48.0000     0.0000     4.0000 </r>
       <r>   -47.6598     0.0000     4.0000 </r>
       <r>   -47.3195     0.0000     4.0000 </r>
       <r>   -46.9792     0.0000     4.0000 </r>
       <r>   -46.6389     0.0000     4.0000 </r>
       <r>   -46.2987     0.0000     4.0000 </r>
       <r>   -45.9584     0.0000     4.0000 </r>
       <r>   -45.6181     0.0000     4.0000 </r>
       <r>   -45.2779     0.0000     4.0000 </r>
       <r>   -44.9376     0.0000     4.0000 </r>
       <r>   -44.5973     0.0000     4.0000 </r>
       <r>   -44.2570     0.0000     4.0000 </r>
       <r>   -43.9168     0.0000     4.0000 </r>
       <r>   -43.5765     0.0000     4.0000 </r>
       <r>   -43.2362     0.0000     4.0000 </r>
       <r>   -42.8960     0.0000     4.0000 </r>
       <r>   -42.5557     0.0000     4.0000 </r>
       <r>   -42.2154     0.0000     4.0000 </r>
       <r>   -41.8752     0.0000     4.0000 </r>
       <r>   -41.5349     0.0000     4.0000 </r>
       <r>   -41.1946     0.0000     4.0000 </r>
       <r>   -40.8543     0.0000     4.0000 </r>
       <r>   -40.5141     0.0000     4.0000 </r>
       <r>   -40.1738     0.0000     4.0000 </r>
       <r>   -39.8335     0.0000     4.0000 </r>
       <r>   -39.4933     0.0000     4.0000 </r>
       <r>   -39.1530     0.0000     4.0000 </r>
       <r>   -38.8127     0.0000     4.0000 </r>
       <r>   -38.4725     0.0000     4.0000 </r>
       <r>   -38.1322     0.0000     4.0000 </r>
       <r>   -37.7919     0.0000     4.0000 </r>
       <r>   -37.4516     0.0000     4.0000 </r>
       <r>   -37.1114     0.0000     4.0000 </r>
       <r>   -36.7711     0.0000     4.0000 </r>
       <r>   -36.4308     0.0000     4.0000 </r>
       <r>   -36.0906     0.0000     4.0000 </r>
       <r>   -35.7503     0.0000     4.0000 </r>
       <r>   -35.4100     0.0000     4.0000 </r>
       <r>   -35.0698     0.0000     4.0000 </r>
       <r>   -34.7295     0.0000     4.0000 </r>
       <r>   -34.3892     0.0000     4.0000 </r>
       <r>   -34.0489     0.0000     4.0000 </r>
       <r>   -33.7087     0.0000     4.0000 </r>
       <r>   -33.3684     0.1041     4.0354 </r>
       <r>   -33.0281     9.0164     7.1034 </r>
       <r>   -32.6879     2.6063     7.9998 </r>
       <r>   -32.3476     0.0000     8.0000 </r>
       <r>   -32.0073     0.0000     8.0000 </r>
       <r>   -31.6671     0.0000     8.0000 </r>
       <r>   -31.3268     0.0000     8.0000 </r>
       <r>   -30.9865     0.0000     8.0000 </r>
       <r>   -30.6462     0.0000     8.0000 </r>
       <r>   -30.3060     0.0000     8.0000 </r>
       <r>   -29.9657     0.0000     8.0000 </r>
       <r>   -29.6254     0.0000     8.0000 </r>
       <r>   -29.2852     0.0000     8.0000 </r>
       <r>   -28.9449     0.0000     8.0000 </r>
       <r>   -28.6046     0.0000     8.0000 </r>
       <r>   -28.2644     0.0000     8.0000 </r>
       <r>   -27.9241     0.0000     8.0000 </r>
       <r>   -27.5838     0.0000     8.0000 </r>
       <r>   -27.2435     0.0000     8.0000 </r>
       <r>   -26.9033     0.0000     8.0000 </r>
       <r>   -26.5630     0.0000     8.0000 </r>
       <r>   -26.2227     0.0000     8.0000 </r>
       <r>   -25.8825     0.0000     8.0000 </r>
       <r>   -25.5422     0.0000     8.0000 </r>
       <r>   -25.2019     0.0000     8.0000 </r>
       <r>   -24.8617     0.9500     8.3233 </r>
       <r>   -24.5214    10.0957    11.7585 </r>
       <r>   -24.1811     6.6708    14.0344 </r>
       <r>   -23.8408     4.3138    15.5066 </r>
       <r>   -23.5006     1.4420    16.0000 </r>
       <r>   -23.1603     0.0000    16.0000 </r>
       <r>   -22.8200     0.0000    16.0000 </r>
       <r>   -22.4798     0.0000    16.0000 </r>
       <r>   -22.1395     0.0000    16.0000 </r>
       <r>   -21.7992     0.0000    16.0000 </r>
       <r>   -21.4590     0.0000    16.0000 </r>
       <r>   -21.1187     0.0000    16.0000 </r>
       <r>   -20.7784     0.0000    16.0000 </r>
       <r>   -20.4381     0.0000    16.0000 </r>
       <r>   -20.0979     0.0000    16.0000 </r>
       <r>   -19.7576     0.0000    16.0000 </r>
       <r>   -19.4173     0.0000    16.0000 </r>
       <r>   -19.0771     0.0000    16.0000 </r>
       <r>   -18.7368     0.0000    16.0000 </r>
       <r>   -18.3965     0.0000    16.0000 </r>
       <r>   -18.0563     0.0000    16.0000 </r>
       <r>   -17.7160     0.0000    16.0000 </r>
       <r>   -17.3757     0.0000    16.0000 </r>
       <r>   -17.0354     0.0000    16.0000 </r>
       <r>   -16.6952     0.0000    16.0000 </r>
       <r>   -16.3549     0.0000    16.0000 </r>
       <r>   -16.0146     0.0000    16.0000 </r>
       <r>   -15.6744     0.0000    16.0000 </r>
       <r>   -15.3341     0.0000    16.0000 </r>
       <r>   -14.9938     0.0000    16.0000 </r>
       <r>   -14.6536     0.0000    16.0000 </r>
       <r>   -14.3133     0.0000    16.0000 </r>
       <r>   -13.9730     0.0000    16.0000 </r>
       <r>   -13.6327     0.0000    16.0000 </r>
       <r>   -13.2925     0.0000    16.0000 </r>
       <r>   -12.9522     0.0000    16.0000 </r>
       <r>   -12.6119     0.0000    16.0000 </r>
       <r>   -12.2717     0.0000    16.0000 </r>
       <r>   -11.9314     0.0000    16.0000 </r>
       <r>   -11.5911     0.0000    16.0000 </r>
       <r>   -11.2509     0.0000    16.0000 </r>
       <r>   -10.9106     0.0000    16.0000 </r>
       <r>   -10.5703     0.0000    16.0000 </r>
       <r>   -10.2300     0.0000    16.0000 </r>
       <r>    -9.8898     0.0000    16.0000 </r>
       <r>    -9.5495     0.0000    16.0000 </r>
       <r>    -9.2092     0.0000    16.0000 </r>
       <r>    -8.8690     0.0000    16.0000 </r>
       <r>    -8.5287     0.0000    16.0000 </r>
       <r>    -8.1884     0.0000    16.0000 </r>
       <r>    -7.8482     0.0000    16.0000 </r>
       <r>    -7.5079     0.0000    16.0000 </r>
       <r>    -7.1676     0.0000    16.0000 </r>
       <r>    -6.8273     0.0000    16.0000 </r>
       <r>    -6.4871     0.0000    16.0000 </r>
       <r>    -6.1468     0.0000    16.0000 </r>
       <r>    -5.8065     0.0000    16.0000 </r>
       <r>    -5.4663     0.0000    16.0000 </r>
       <r>    -5.1260     0.0000    16.0000 </r>
       <r>    -4.7857     0.0000    16.0000 </r>
       <r>    -4.4455     0.0000    16.0000 </r>
       <r>    -4.1052     0.0000    16.0000 </r>
       <r>    -3.7649     0.0000    16.0000 </r>
       <r>    -3.4246     0.0000    16.0000 </r>
       <r>    -3.0844     0.0000    16.0000 </r>
       <r>    -2.7441     0.0000    16.0000 </r>
       <r>    -2.4038     0.0000    16.0000 </r>
       <r>    -2.0636     0.0000    16.0000 </r>
       <r>    -1.7233     0.0000    16.0000 </r>
       <r>    -1.3830     0.0000    16.0000 </r>
       <r>    -1.0428     0.0000    16.0000 </r>
       <r>    -0.7025     0.0000    16.0000 </r>
       <r>    -0.3622     0.0000    16.0000 </r>
       <r>    -0.0219     0.0000    16.0000 </r>
       <r>     0.3183     0.0000    16.0000 </r>
       <r>     0.6586     0.0000    16.0000 </r>
       <r>     0.9989     0.0000    16.0000 </r>
       <r>     1.3391     0.0000    16.0000 </r>
       <r>     1.6794     0.3770    16.1283 </r>
       <r>     2.0197     0.4673    16.2885 </r>
       <r>     2.3599     0.2915    16.3877 </r>
       <r>     2.7002     0.2388    16.4689 </r>
       <r>     3.0405     0.2097    16.5403 </r>
       <r>     3.3808     0.1843    16.6030 </r>
       <r>     3.7210     0.1727    16.6617 </r>
       <r>     4.0613     0.1799    16.7230 </r>
       <r>     4.4016     0.1559    16.7760 </r>
       <r>     4.7418     0.1757    16.8358 </r>
       <r>     5.0821     0.1472    16.8862 </r>
       <r>     5.4224     0.2995    16.9883 </r>
       <r>     5.7626     1.8711    17.6256 </r>
       <r>     6.1029     2.3655    18.4311 </r>
       <r>     6.4432     1.6896    19.0082 </r>
       <r>     6.7835     1.6114    19.5568 </r>
       <r>     7.1237     1.2036    19.9684 </r>
       <r>     7.4640     0.9853    20.3050 </r>
       <r>     7.8043     1.5375    20.8295 </r>
       <r>     8.1445     4.3510    22.3113 </r>
       <r>     8.4848     3.8173    23.6121 </r>
       <r>     8.8251     2.2355    24.3751 </r>
       <r>     9.1653     1.7339    24.9658 </r>
       <r>     9.5056     0.9195    25.2792 </r>
       <r>     9.8459     3.4737    26.4616 </r>
       <r>    10.1862     1.4538    26.9582 </r>
       <r>    10.5264     2.2990    27.7408 </r>
       <r>    10.8667     1.4137    28.2228 </r>
       <r>    11.2070     0.9912    28.5629 </r>
       <r>    11.5472     0.9944    28.9032 </r>
       <r>    11.8875     0.8826    29.2038 </r>
       <r>    12.2278     0.8222    29.4841 </r>
       <r>    12.5680     1.0229    29.8331 </r>
       <r>    12.9083     1.0960    30.2074 </r>
       <r>    13.2486     2.2007    30.9563 </r>
       <r>    13.5889     2.9268    31.9532 </r>
       <r>    13.9291     2.4960    32.8038 </r>
       <r>    14.2694     5.2097    34.5785 </r>
       <r>    14.6097     4.3551    36.0637 </r>
       <r>    14.9499     1.2271    36.4862 </r>
       <r>    15.2902     0.9445    36.8095 </r>
       <r>    15.6305     0.9674    37.1392 </r>
       <r>    15.9707     1.2993    37.5816 </r>
       <r>    16.3110     0.5010    37.7522 </r>
       <r>    16.6513     0.6227    37.9646 </r>
       <r>    16.9916     0.2615    38.0545 </r>
       <r>    17.3318     0.2056    38.1254 </r>
       <r>    17.6721     0.9354    38.4437 </r>
       <r>    18.0124     1.0330    38.7955 </r>
       <r>    18.3526     0.7951    39.0673 </r>
       <r>    18.6929     0.5571    39.2572 </r>
       <r>    19.0332     0.5305    39.4386 </r>
       <r>    19.3734     0.5576    39.6284 </r>
       <r>    19.7137     0.5947    39.8308 </r>
       <r>    20.0540     1.1643    40.2270 </r>
       <r>    20.3943     0.9679    40.5572 </r>
       <r>    20.7345     0.7667    40.8188 </r>
       <r>    21.0748     0.7752    41.0825 </r>
       <r>    21.4151     0.6186    41.2934 </r>
       <r>    21.7553     0.6399    41.5119 </r>
       <r>    22.0956     1.0185    41.8584 </r>
       <r>    22.4359     1.8208    42.4796 </r>
       <r>    22.7761     0.7512    42.7356 </r>
       <r>    23.1164     0.7472    42.9909 </r>
       <r>    23.4567     1.2251    43.4090 </r>
       <r>    23.7970     0.7025    43.6482 </r>
       <r>    24.1372     0.6263    43.8614 </r>
       <r>    24.4775     0.5600    44.0520 </r>
       <r>    24.8178     0.5869    44.2524 </r>
       <r>    25.1580     0.5601    44.4431 </r>
       <r>    25.4983     1.0895    44.8143 </r>
       <r>    25.8386     1.8250    45.4370 </r>
       <r>    26.1788     1.1276    45.8209 </r>
       <r>    26.5191     0.9310    46.1384 </r>
       <r>    26.8594     0.7974    46.4108 </r>
       <r>    27.1997     0.8834    46.7121 </r>
       <r>    27.5399     0.9257    47.0280 </r>
       <r>    27.8802     0.7211    47.2744 </r>
       <r>    28.2205     0.4566    47.4300 </r>
       <r>    28.5607     0.2385    47.5111 </r>
       <r>    28.9010     0.2232    47.5871 </r>
       <r>    29.2413     0.2653    47.6774 </r>
       <r>    29.5815     0.3403    47.7934 </r>
       <r>    29.9218     0.5144    47.9685 </r>
       <r>    30.2621     0.0914    48.0000 </r>
       <r>    30.6024     0.0000    48.0000 </r>
       <r>    30.9426     0.0000    48.0000 </r>
       <r>    31.2829     0.0000    48.0000 </r>
       <r>    31.6232     0.0000    48.0000 </r>
       <r>    31.9634     0.0000    48.0000 </r>
       <r>    32.3037     0.0000    48.0000 </r>
       <r>    32.6440     0.0000    48.0000 </r>
       <r>    32.9842     0.0000    48.0000 </r>
       <r>    33.3245     0.0000    48.0000 </r>
       <r>    33.6648     0.0000    48.0000 </r>
       <r>    34.0051     0.0000    48.0000 </r>
       <r>    34.3453     0.0000    48.0000 </r>
      </set>
      <set comment="spin 2">
       <r>   -67.7357    -0.0000    -0.0000 </r>
       <r>   -67.3954    -5.6907     0.5003 </r>
       <r>   -67.0551     0.0000    -0.0000 </r>
       <r>   -66.7149     0.0000     0.0000 </r>
       <r>   -66.3746     0.0000     0.0000 </r>
       <r>   -66.0343     0.0000     0.0000 </r>
       <r>   -65.6941     0.0000     0.0000 </r>
       <r>   -65.3538     0.0000     0.0000 </r>
       <r>   -65.0135     0.0000     0.0000 </r>
       <r>   -64.6733     0.0000     0.0000 </r>
       <r>   -64.3330     0.0000     0.0000 </r>
       <r>   -63.9927     0.0000   -20.5634 </r>
       <r>   -63.6524     0.0000     0.0000 </r>
       <r>   -63.3122     0.0000     0.0000 </r>
       <r>   -62.9719     0.0000     0.0000 </r>
       <r>   -62.6316     0.0000     0.0000 </r>
       <r>   -62.2914     0.0000     0.0000 </r>
       <r>   -61.9511     2.0908     0.0000 </r>
       <r>   -61.6108     4.0000     0.0000 </r>
       <r>   -61.2706     4.0000     1.0000 </r>
       <r>   -60.9303     4.0000   289.9741 </r>
       <r>   -60.5900     4.0000     0.0000 </r>
       <r>   -60.2497     4.0000     0.0000 </r>
       <r>   -59.9095     4.0000     0.0000 </r>
       <r>   -59.5692     4.0000     0.0000 </r>
       <r>   -59.2289     4.0000     0.0000 </r>
       <r>   -58.8887     4.0000     0.0000 </r>
       <r>   -58.5484     4.0000     0.0000 </r>
       <r>   -58.2081     4.0000     0.0000 </r>
       <r>   -57.8679     4.0000     0.0000 </r>
       <r>   -57.5276     4.0000     0.0000 </r>
       <r>   -57.1873     4.0000     0.0000 </r>
       <r>   -56.8470     4.0000     0.0000 </r>
       <r>   -56.5068     4.0000     0.0000 </r>
       <r>   -56.1665     4.0000     0.0000 </r>
       <r>   -55.8262     4.0000     0.0000 </r>
       <r>   -55.4860     4.0000     0.0000 </r>
       <r>   -55.1457     4.0000     0.0000 </r>
       <r>   -54.8054     4.0000     0.0000 </r>
       <r>   -54.4652     4.0000     0.0000 </r>
       <r>   -54.1249     4.0000     0.0000 </r>
       <r>   -53.7846     4.0000     0.0000 </r>
       <r>   -53.4443     4.0000     0.0000 </r>
       <r>   -53.1041     4.0000     0.0000 </r>
       <r>   -52.7638     4.0000     0.0000 </r>
       <r>   -52.4235     4.0000     0.0000 </r>
       <r>   -52.0833     4.0000     0.0000 </r>
       <r>   -51.7430     4.0000     0.0000 </r>
       <r>   -51.4027     4.0000     0.0000 </r>
       <r>   -51.0625     4.0000     0.0000 </r>
       <r>   -50.7222     4.0000     0.0000 </r>
       <r>   -50.3819     4.0000     0.0000 </r>
       <r>   -50.0416     4.0000     0.0000 </r>
       <r>   -49.7014     4.0000     0.0000 </r>
       <r>   -49.3611     4.0000     0.0000 </r>
       <r>   -49.0208     4.0000     0.0000 </r>
       <r>   -48.6806     4.0000     0.0000 </r>
       <r>   -48.3403     4.0000     0.0000 </r>
       <r>   -48.0000     4.0000     0.0000 </r>
       <r>   -47.6598     4.0000     0.0000 </r>
       <r>   -47.3195     4.0000     0.0000 </r>
       <r>   -46.9792     4.0000     0.0000 </r>
       <r>   -46.6389     4.0000     0.0000 </r>
       <r>   -46.2987     4.0000     0.0000 </r>
       <r>   -45.9584     4.0000     0.0000 </r>
       <r>   -45.6181     4.0000     0.0000 </r>
       <r>   -45.2779     4.0000     0.0000 </r>
       <r>   -44.9376     4.0000     0.0000 </r>
       <r>   -44.5973     4.0000     0.0000 </r>
       <r>   -44.2570     4.0000     0.0000 </r>
       <r>   -43.9168     4.0000     0.0000 </r>
       <r>   -43.5765     4.0000     0.0000 </r>
       <r>   -43.2362     4.0000     0.0000 </r>
       <r>   -42.8960     4.0000     0.0000 </r>
       <r>   -42.5557     4.0000     0.0000 </r>
       <r>   -42.2154     4.0000     0.0000 </r>
       <r>   -41.8752     4.0000     0.0000 </r>
       <r>   -41.5349     4.0000     0.0000 </r>
       <r>   -41.1946     4.0000     0.0000 </r>
       <r>   -40.8543     4.0000     0.0000 </r>
       <r>   -40.5141     4.0000     0.0000 </r>
       <r>   -40.1738     4.0000     0.0000 </r>
       <r>   -39.8335     4.0000     0.0000 </r>
       <r>   -39.4933     4.0000     0.0000 </r>
       <r>   -39.1530     4.0000     0.0000 </r>
       <r>   -38.8127     4.0000     0.0000 </r>
       <r>   -38.4725     4.0000     0.0000 </r>
       <r>   -38.1322     4.0000     0.0000 </r>
       <r>   -37.7919     4.0000     0.0000 </r>
       <r>   -37.4516     4.0000     0.0000 </r>
       <r>   -37.1114     4.0000     0.0000 </r>
       <r>   -36.7711     4.0000     0.0000 </r>
       <r>   -36.4308     4.0000     0.0000 </r>
       <r>   -36.0906     4.0000     0.0000 </r>
       <r>   -35.7503     4.0000     0.0000 </r>
       <r>   -35.4100     4.0000     0.0000 </r>
       <r>   -35.0698     4.0000     0.0000 </r>
       <r>   -34.7295     4.0000     0.0000 </r>
       <r>   -34.3892     4.0000     0.0000 </r>
       <r>   -34.0489     4.0000     0.0000 </r>
       <r>   -33.7087     4.0000     0.0000 </r>
       <r>   -33.3684     4.0000     0.0000 </r>
       <r>   -33.0281     4.0000     0.0000 </r>
       <r>   -32.6879     4.0000     0.0000 </r>
       <r>   -32.3476     4.0354     0.0000 </r>
       <r>   -32.0073     7.1034     0.0000 </r>
       <r>   -31.6671     7.9998     0.0000 </r>
       <r>   -31.3268     8.0000     0.0000 </r>
       <r>   -30.9865     8.0000     0.0000 </r>
       <r>   -30.6462     8.0000     0.0000 </r>
       <r>   -30.3060     8.0000     0.0000 </r>
       <r>   -29.9657     8.0000     0.0000 </r>
       <r>   -29.6254     8.0000     0.0000 </r>
       <r>   -29.2852     8.0000     0.0000 </r>
       <r>   -28.9449     8.0000     0.0000 </r>
       <r>   -28.6046     8.0000     0.0000 </r>
       <r>   -28.2644     8.0000     0.0000 </r>
       <r>   -27.9241     8.0000     0.0000 </r>
       <r>   -27.5838     8.0000     0.0000 </r>
       <r>   -27.2435     8.0000     0.0000 </r>
       <r>   -26.9033     8.0000     0.0000 </r>
       <r>   -26.5630     8.0000     0.0000 </r>
       <r>   -26.2227     8.0000     0.0000 </r>
       <r>   -25.8825     8.0000     0.0000 </r>
       <r>   -25.5422     8.0000     0.0000 </r>
       <r>   -25.2019     8.0000     0.0000 </r>
       <r>   -24.8617     8.0000     0.0000 </r>
       <r>   -24.5214     8.0000     0.0000 </r>
       <r>   -24.1811     8.0000     0.0000 </r>
       <r>   -23.8408     8.3233     0.0000 </r>
       <r>   -23.5006    11.7585     0.0000 </r>
       <r>   -23.1603    14.0344     0.0000 </r>
       <r>   -22.8200    15.5066     0.0000 </r>
       <r>   -22.4798    16.0000     0.0000 </r>
       <r>   -22.1395    16.0000     0.0000 </r>
       <r>   -21.7992    16.0000     0.0000 </r>
       <r>   -21.4590    16.0000     0.0000 </r>
       <r>   -21.1187    16.0000     0.0000 </r>
       <r>   -20.7784    16.0000     0.0000 </r>
       <r>   -20.4381    16.0000     0.0000 </r>
       <r>   -20.0979    16.0000     0.0000 </r>
       <r>   -19.7576    16.0000     0.0000 </r>
       <r>   -19.4173    16.0000     0.0000 </r>
       <r>   -19.0771    16.0000     0.0000 </r>
       <r>   -18.7368    16.0000     0.0000 </r>
       <r>   -18.3965    16.0000     0.0000 </r>
       <r>   -18.0563    16.0000     0.0000 </r>
       <r>   -17.7160    16.0000     0.0000 </r>
       <r>   -17.3757    16.0000     0.0000 </r>
       <r>   -17.0354    16.0000     0.0000 </r>
       <r>   -16.6952    16.0000     0.0000 </r>
       <r>   -16.3549    16.0000     0.0000 </r>
       <r>   -16.0146    16.0000     0.0000 </r>
       <r>   -15.6744    16.0000     0.0000 </r>
       <r>   -15.3341    16.0000     0.0000 </r>
       <r>   -14.9938    16.0000     0.0000 </r>
       <r>   -14.6536    16.0000     0.0000 </r>
       <r>   -14.3133    16.0000     0.0000 </r>
       <r>   -13.9730    16.0000     0.0000 </r>
       <r>   -13.6327    16.0000     0.0000 </r>
       <r>   -13.2925    16.0000     0.0000 </r>
       <r>   -12.9522    16.0000     0.0000 </r>
       <r>   -12.6119    16.0000     0.0000 </r>
       <r>   -12.2717    16.0000     0.0000 </r>
       <r>   -11.9314    16.0000     0.0000 </r>
       <r>   -11.5911    16.0000     0.0000 </r>
       <r>   -11.2509    16.0000     0.0000 </r>
       <r>   -10.9106    16.0000     0.0000 </r>
       <r>   -10.5703    16.0000     0.0000 </r>
       <r>   -10.2300    16.0000     0.0000 </r>
       <r>    -9.8898    16.0000     0.0000 </r>
       <r>    -9.5495    16.0000     0.0000 </r>
       <r>    -9.2092    16.0000     0.0000 </r>
       <r>    -8.8690    16.0000     0.0000 </r>
       <r>    -8.5287    16.0000     0.0000 </r>
       <r>    -8.1884    16.0000     0.0000 </r>
       <r>    -7.8482    16.0000     0.0000 </r>
       <r>    -7.5079    16.0000     0.0000 </r>
       <r>    -7.1676    16.0000     0.0000 </r>
       <r>    -6.8273    16.0000     0.0000 </r>
       <r>    -6.4871    16.0000     0.0000 </r>
       <r>    -6.1468    16.0000     0.0000 </r>
       <r>    -5.8065    16.0000     0.0000 </r>
       <r>    -5.4663    16.0000     0.0000 </r>
       <r>    -5.1260    16.0000     0.0000 </r>
       <r>    -4.7857    16.0000     0.0000 </r>
       <r>    -4.4455    16.0000     0.0000 </r>
       <r>    -4.1052    16.0000     0.0000 </r>
       <r>    -3.7649    16.0000     0.0000 </r>
       <r>    -3.4246    16.0000     0.0000 </r>
       <r>    -3.0844    16.0000     0.0000 </r>
       <r>    -2.7441    16.0000     0.0000 </r>
       <r>    -2.4038    16.0000     0.0000 </r>
       <r>    -2.0636    16.0000     0.0000 </r>
       <r>    -1.7233    16.0000     0.0000 </r>
       <r>    -1.3830    16.0000     0.0000 </r>
       <r>    -1.0428    16.0000     0.0000 </r>
       <r>    -0.7025    16.0000     0.0000 </r>
       <r>    -0.3622    16.0000     0.0000 </r>
       <r>    -0.0219    16.0000     0.0000 </r>
       <r>     0.3183    16.0000     0.0000 </r>
       <r>     0.6586    16.0000     0.0000 </r>
       <r>     0.9989    16.0000     0.0000 </r>
       <r>     1.3391    16.0000     0.0000 </r>
       <r>     1.6794    16.0000     0.0000 </r>
       <r>     2.0197    16.0000     0.0000 </r>
       <r>     2.3599    16.0000     0.0000 </r>
       <r>     2.7002    16.1283     0.0000 </r>
       <r>     3.0405    16.2885     0.0000 </r>
       <r>     3.3808    16.3877     0.0000 </r>
       <r>     3.7210    16.4689     0.0000 </r>
       <r>     4.0613    16.5403     0.0000 </r>
       <r>     4.4016    16.6030     0.0000 </r>
       <r>     4.7418    16.6617     0.0000 </r>
       <r>     5.0821    16.7230     0.0000 </r>
       <r>     5.4224    16.7760     0.0000 </r>
       <r>     5.7626    16.8358     0.0000 </r>
       <r>     6.1029    16.8862     0.0000 </r>
       <r>     6.4432    16.9883     0.0000 </r>
       <r>     6.7835    17.6256     0.0000 </r>
       <r>     7.1237    18.4311     0.0000 </r>
       <r>     7.4640    19.0082     0.0000 </r>
       <r>     7.8043    19.5568     0.0000 </r>
       <r>     8.1445    19.9684     0.0000 </r>
       <r>     8.4848    20.3050     0.0000 </r>
       <r>     8.8251    20.8295     0.0000 </r>
       <r>     9.1653    22.3113     0.0000 </r>
       <r>     9.5056    23.6121     0.0000 </r>
       <r>     9.8459    24.3751     0.0000 </r>
       <r>    10.1862    24.9658     0.0000 </r>
       <r>    10.5264    25.2792     0.0000 </r>
       <r>    10.8667    26.4616     0.0000 </r>
       <r>    11.2070    26.9582     0.0000 </r>
       <r>    11.5472    27.7408     0.0000 </r>
       <r>    11.8875    28.2228     0.0000 </r>
       <r>    12.2278    28.5629     0.0000 </r>
       <r>    12.5680    28.9032     0.0000 </r>
       <r>    12.9083    29.2038     0.0000 </r>
       <r>    13.2486    29.4841     0.0000 </r>
       <r>    13.5889    29.8331     0.0000 </r>
       <r>    13.9291    30.2074     0.0000 </r>
       <r>    14.2694    30.9563     0.0000 </r>
       <r>    14.6097    31.9532     0.0000 </r>
       <r>    14.9499    32.8038     0.0000 </r>
       <r>    15.2902    34.5785     0.0000 </r>
       <r>    15.6305    36.0637     0.0000 </r>
       <r>    15.9707    36.4862     0.0000 </r>
       <r>    16.3110    36.8095     0.0000 </r>
       <r>    16.6513    37.1392     0.0000 </r>
       <r>    16.9916    37.5816     0.0000 </r>
       <r>    17.3318    37.7522     0.0000 </r>
       <r>    17.6721    37.9646     0.0000 </r>
       <r>    18.0124    38.0545     0.0000 </r>
       <r>    18.3526    38.1254     0.0000 </r>
       <r>    18.6929    38.4437     0.0000 </r>
       <r>    19.0332    38.7955     0.0000 </r>
       <r>    19.3734    39.0673     0.0000 </r>
       <r>    19.7137    39.2572     0.0000 </r>
       <r>    20.0540    39.4386     0.0000 </r>
       <r>    20.3943    39.6284     0.0000 </r>
       <r>    20.7345    39.8308     0.0000 </r>
       <r>    21.0748    40.2270     0.0000 </r>
       <r>    21.4151    40.5572     0.0000 </r>
       <r>    21.7553    40.8188     0.0000 </r>
       <r>    22.0956    41.0825     0.0000 </r>
       <r>    22.4359    41.2934     0.0000 </r>
       <r>    22.7761    41.5119     0.0000 </r>
       <r>    23.1164    41.8584     0.0000 </r>
       <r>    23.4567    42.4796     0.0000 </r>
       <r>    23.7970    42.7356     0.0000 </r>
       <r>    24.1372    42.9909     0.0000 </r>
       <r>    24.4775    43.4090     0.0000 </r>
       <r>    24.8178    43.6482     0.0000 </r>
       <r>    25.1580    43.8614     0.0000 </r>
       <r>    25.4983    44.0520     0.0000 </r>
       <r>    25.8386    44.2524     0.0000 </r>
       <r>    26.1788    44.4431     0.0000 </r>
       <r>    26.5191    44.8143     0.0000 </r>
       <r>    26.8594    45.4370     0.0000 </r>
       <r>    27.1997    45.8209     0.0000 </r>
       <r>    27.5399    46.1384     0.0000 </r>
       <r>    27.8802    46.4108     0.0000 </r>
       <r>    28.2205    46.7121     0.0000 </r>
       <r>    28.5607    47.0280     0.0000 </r>
       <r>    28.9010    47.2744     0.0000 </r>
       <r>    29.2413    47.4300     0.0000 </r>
       <r>    29.5815    47.5111     0.0000 </r>
       <r>    29.9218    47.5871     0.0000 </r>
       <r>    30.2621    47.6774     0.0000 </r>
       <r>    30.6024    47.7934     0.0000 </r>
       <r>    30.9426    47.9685     0.0000 </r>
       <r>    31.2829    48.0000     0.0000 </r>
       <r>    31.6232    48.0000     0.0000 </r>
       <r>    31.9634    48.0000     0.0000 </r>
       <r>    32.3037    48.0000     0.0000 </r>
       <r>    32.6440    48.0000     0.0000 </r>
       <r>    32.9842    48.0000     0.0000 </r>
       <r>    33.3245    48.0000     0.0000 </r>
       <r>    33.6648    48.0000     0.0000 </r>
       <r>    34.0051    48.0000     0.0000 </r>
       <r>    34.3453    48.0000     0.0000 </r>
      </set>
      <set comment="spin 3">
       <r>   -67.7357    48.0000     0.0000 </r>
       <r>   -67.3954    48.0000     0.0000 </r>
       <r>   -67.0551    48.0000     0.0000 </r>
       <r>   -66.7149    -0.0000     0.0000 </r>
       <r>   -66.3746     0.5003     0.0000 </r>
       <r>   -66.0343    -0.0000     0.0000 </r>
       <r>   -65.6941     0.0000     1.0000 </r>
       <r>   -65.3538     0.0000     0.0000 </r>
       <r>   -65.0135     0.0000     0.0000 </r>
       <r>   -64.6733     0.0000     0.0000 </r>
       <r>   -64.3330     0.0000     0.0000 </r>
       <r>   -63.9927     0.0000     0.0000 </r>
       <r>   -63.6524     0.0000     0.0000 </r>
       <r>   -63.3122     0.0000     0.0000 </r>
       <r>   -62.9719   -20.5634     0.0000 </r>
       <r>   -62.6316     0.0000     0.0000 </r>
       <r>   -62.2914     0.0000        NaN </r>
       <r>   -61.9511     0.0000        NaN </r>
       <r>   -61.6108     0.0000     0.0000 </r>
       <r>   -61.2706     0.0000     0.0000 </r>
       <r>   -60.9303     0.0000        NaN </r>
       <r>   -60.5900     0.0000     0.0000 </r>
       <r>   -60.2497     1.0000     0.0000 </r>
       <r>   -59.9095   289.9741     0.0000 </r>
       <r>   -59.5692     0.0000   -37.5787 </r>
       <r>   -59.2289     0.0000     0.0000 </r>
       <r>   -58.8887     0.0000     0.0000 </r>
       <r>   -58.5484     0.0000     0.0000 </r>
       <r>   -58.2081     0.0000     0.0000 </r>
       <r>   -57.8679     0.0000     0.0000 </r>
       <r>   -57.5276     0.0000     0.0000 </r>
       <r>   -57.1873     0.0000     0.0000 </r>
       <r>   -56.8470     0.0000     0.0000 </r>
       <r>   -56.5068     0.0000     0.0000 </r>
       <r>   -56.1665     0.0000     0.0000 </r>
       <r>   -55.8262     0.0000     0.0000 </r>
       <r>   -55.4860     0.0000     0.0000 </r>
       <r>   -55.1457     0.0000     0.0000 </r>
       <r>   -54.8054     0.0000     0.0000 </r>
       <r>   -54.4652     0.0000     0.0000 </r>
       <r>   -54.1249     0.0000     0.0000 </r>
       <r>   -53.7846     0.0000     0.0000 </r>
       <r>   -53.4443     0.0000     0.0000 </r>
       <r>   -53.1041     0.0000     0.0000 </r>
       <r>   -52.7638     0.0000     0.0000 </r>
       <r>   -52.4235     0.0000     0.0000 </r>
       <r>   -52.0833     0.0000     0.0000 </r>
       <r>   -51.7430     0.0000     0.0000 </r>
       <r>   -51.4027     0.0000     0.0000 </r>
       <r>   -51.0625     0.0000     0.0000 </r>
       <r>   -50.7222     0.0000     0.0000 </r>
       <r>   -50.3819     0.0000     0.0000 </r>
       <r>   -50.0416     0.0000     0.0000 </r>
       <r>   -49.7014     0.0000     0.0000 </r>
       <r>   -49.3611     0.0000     0.0000 </r>
       <r>   -49.0208     0.0000     0.0000 </r>
[...]
       <r>     4.4016     0.0000     0.0000 </r>
       <r>     4.7418     0.0000     0.0000 </r>
       <r>     5.0821     0.0000     0.0000 </r>
       <r>     5.4224     0.0000     0.0000 </r>
       <r>     5.7626     0.0000     0.0000 </r>
       <r>     6.1029     0.0000     0.0000 </r>
       <r>     6.4432     0.0000     0.0000 </r>
       <r>     6.7835     0.0000     0.0000 </r>
       <r>     7.1237     0.0000     0.0000 </r>
       <r>     7.4640     0.0000     0.0000 </r>
       <r>     7.8043     0.0000     0.0000 </r>
       <r>     8.1445     0.0000     0.0000 </r>
       <r>     8.4848     0.0000     0.0000 </r>
       <r>     8.8251     0.0000     0.0000 </r>
       <r>     9.1653     0.0000     0.0000 </r>
       <r>     9.5056     0.0000     0.0000 </r>
       <r>     9.8459     0.0000     0.0000 </r>
       <r>    10.1862     0.0000     0.0000 </r>
       <r>    10.5264     0.0000     0.0000 </r>
       <r>    10.8667     0.0000     0.0000 </r>
       <r>    11.2070     0.0000     0.0000 </r>
       <r>    11.5472     0.0000     0.0000 </r>
       <r>    11.8875     0.0000     0.0000 </r>
       <r>    12.2278     0.0000     0.0000 </r>
       <r>    12.5680     0.0000     0.0000 </r>
       <r>    12.9083     0.0000     0.0000 </r>
       <r>    13.2486     0.0000     0.0000 </r>
       <r>    13.5889     0.0000     0.0000 </r>
       <r>    13.9291     0.0000     0.0000 </r>
       <r>    14.2694     0.0000     0.0000 </r>
       <r>    14.6097     0.0000     0.0000 </r>
       <r>    14.9499     0.0000     0.0000 </r>
       <r>    15.2902     0.0000     0.0000 </r>
       <r>    15.6305     0.0000     0.0000 </r>
       <r>    15.9707     0.0000     0.0000 </r>
       <r>    16.3110     0.0000     0.0000 </r>
       <r>    16.6513     0.0000     0.0000 </r>
       <r>    16.9916     0.0000     0.0000 </r>
       <r>    17.3318     0.0000     0.0000 </r>
       <r>    17.6721     0.0000     0.0000 </r>
       <r>    18.0124     0.0000     0.0000 </r>
       <r>    18.3526     0.0000     0.0000 </r>
       <r>    18.6929     0.0000     0.0000 </r>
       <r>    19.0332     0.0000     0.0000 </r>
       <r>    19.3734     0.0000     0.0000 </r>
       <r>    19.7137     0.0000     0.0000 </r>
       <r>    20.0540     0.0000     0.0000 </r>
       <r>    20.3943     0.0000     0.0000 </r>
       <r>    20.7345     0.0000     0.0000 </r>
       <r>    21.0748     0.0000     0.0000 </r>
       <r>    21.4151     0.0000     0.0000 </r>
       <r>    21.7553     0.0000     0.0000 </r>
       <r>    22.0956     0.0000     0.0000 </r>
       <r>    22.4359     0.0000     0.0000 </r>
       <r>    22.7761     0.0000     0.0000 </r>
       <r>    23.1164     0.0000     0.0000 </r>
       <r>    23.4567     0.0000     0.0000 </r>
       <r>    23.7970     0.0000     0.0000 </r>
       <r>    24.1372     0.0000     0.0000 </r>
       <r>    24.4775     0.0000     0.0000 </r>
       <r>    24.8178     0.0000     0.0000 </r>
       <r>    25.1580     0.0000     0.0000 </r>
       <r>    25.4983     0.0000     0.0000 </r>
       <r>    25.8386     0.0000     0.0000 </r>
       <r>    26.1788     0.0000     0.0000 </r>
       <r>    26.5191     0.0000     0.0000 </r>
       <r>    26.8594     0.0000     0.0000 </r>
       <r>    27.1997     0.0000     0.0000 </r>
       <r>    27.5399     0.0000     0.0000 </r>
       <r>    27.8802     0.0000     0.0000 </r>
       <r>    28.2205     0.0000     0.0000 </r>
       <r>    28.5607     0.0000     0.0000 </r>
       <r>    28.9010     0.0000     0.0000 </r>
       <r>    29.2413     0.0000     0.0000 </r>
       <r>    29.5815     0.0000     0.0000 </r>
       <r>    29.9218     0.0000     0.0000 </r>
       <r>    30.2621     0.0000     0.0000 </r>
       <r>    30.6024     0.0000     0.0000 </r>
       <r>    30.9426     0.0000     0.0000 </r>
       <r>    31.2829     0.0000     0.0000 </r>
       <r>    31.6232     0.0000     0.0000 </r>
       <r>    31.9634     0.0000     0.0000 </r>
       <r>    32.3037     0.0000     0.0000 </r>
       <r>    32.6440     0.0000     0.0000 </r>
       <r>    32.9842     0.0000     0.0000 </r>
       <r>    33.3245     0.0000     0.0000 </r>
       <r>    33.6648     0.0000     0.0000 </r>
       <r>    34.0051     0.0000     0.0000 </r>
       <r>    34.3453     0.0000     0.0000 </r>
      </set>
      <set comment="spin 4">
       <r>   -67.7357     0.0000     0.0000 </r>
       <r>   -67.3954     0.0000     0.0000 </r>
       <r>   -67.0551     0.0000     0.0000 </r>
       <r>   -66.7149     0.0000     0.0000 </r>
       <r>   -66.3746     0.0000     0.0000 </r>
       <r>   -66.0343     0.0000     0.0000 </r>
       <r>   -65.6941     0.0000     0.0000 </r>
       <r>   -65.3538     0.0000     0.0000 </r>
       <r>   -65.0135     0.0000     0.0000 </r>
       <r>   -64.6733     0.0000     0.0000 </r>
       <r>   -64.3330     0.0000     0.0000 </r>
       <r>   -63.9927     0.0000     0.0000 </r>
       <r>   -63.6524     0.0000     0.0000 </r>
       <r>   -63.3122     0.0000     0.0000 </r>
       <r>   -62.9719     0.0000     0.0000 </r>
       <r>   -62.6316     0.0000     0.0000 </r>
       <r>   -62.2914     0.0000     0.0000 </r>
       <r>   -61.9511     0.0000     0.0000 </r>
       <r>   -61.6108     0.0000     0.0000 </r>
       <r>   -61.2706     0.0000     0.0000 </r>
       <r>   -60.9303     0.0000     0.0000 </r>
       <r>   -60.5900     0.0000     0.0000 </r>
       <r>   -60.2497     0.0000     0.0000 </r>
       <r>   -59.9095     0.0000     0.0000 </r>
       <r>   -59.5692     0.0000     0.0000 </r>
       <r>   -59.2289     0.0000     0.0000 </r>
       <r>   -58.8887     0.0000     0.0000 </r>
       <r>   -58.5484     0.0000     0.0000 </r>
       <r>   -58.2081     0.0000     0.0000 </r>
       <r>   -57.8679     0.0000     0.0000 </r>
       <r>   -57.5276     0.0000     0.0000 </r>
       <r>   -57.1873     0.0000     0.0000 </r>
       <r>   -56.8470     0.0000     0.0000 </r>
       <r>   -56.5068     0.0000     0.0000 </r>
       <r>   -56.1665     0.0000     0.0000 </r>
       <r>   -55.8262     0.0000     0.0000 </r>
       <r>   -55.4860     0.0000     0.0000 </r>
       <r>   -55.1457     0.0000     0.0000 </r>
       <r>   -54.8054     0.0000     0.0000 </r>
       <r>   -54.4652     0.0000     0.0000 </r>
       <r>   -54.1249     0.0000     0.0000 </r>
       <r>   -53.7846     0.0000     0.0000 </r>
       <r>   -53.4443     0.0000     0.0000 </r>
       <r>   -53.1041     0.0000     0.0000 </r>
       <r>   -52.7638     0.0000     0.0000 </r>
       <r>   -52.4235     0.0000     0.0000 </r>
       <r>   -52.0833     0.0000     0.0000 </r>
       <r>   -51.7430     0.0000     0.0000 </r>
       <r>   -51.4027     0.0000     0.0000 </r>
       <r>   -51.0625     0.0000     0.0000 </r>
       <r>   -50.7222     0.0000     0.0000 </r>
       <r>   -50.3819     0.0000     0.0000 </r>
       <r>   -50.0416     0.0000     0.0000 </r>
       <r>   -49.7014     0.0000     0.0000 </r>
       <r>   -49.3611     0.0000     0.0000 </r>
       <r>   -49.0208     0.0000     0.0000 </r>
       <r>   -48.6806     0.0000     0.0000 </r>
       <r>   -48.3403     0.0000     0.0000 </r>
       <r>   -48.0000     0.0000     0.0000 </r>
       <r>   -47.6598     0.0000     0.0000 </r>
       <r>   -47.3195     0.0000     0.0000 </r>
       <r>   -46.9792     0.0000     0.0000 </r>
       <r>   -46.6389     0.0000     0.0000 </r>
       <r>   -46.2987     0.0000     0.0000 </r>
       <r>   -45.9584     0.0000     0.0000 </r>
       <r>   -45.6181     0.0000     0.0000 </r>
       <r>   -45.2779     0.0000     0.0000 </r>
       <r>   -44.9376     0.0000     0.0000 </r>
       <r>   -44.5973     0.0000     0.0000 </r>
       <r>   -44.2570     0.0000     0.0000 </r>
       <r>   -43.9168     0.0000     0.0000 </r>
       <r>   -43.5765     0.0000     0.0000 </r>
       <r>   -43.2362     0.0000     0.0000 </r>
       <r>   -42.8960     0.0000     0.0000 </r>
       <r>   -42.5557     0.0000     0.0000 </r>
       <r>   -42.2154     0.0000     0.0000 </r>
       <r>   -41.8752     0.0000     0.0000 </r>
       <r>   -41.5349     0.0000     0.0000 </r>
       <r>   -41.1946     0.0000     0.0000 </r>
       <r>   -40.8543     0.0000     0.0000 </r>
       <r>   -40.5141     0.0000     0.0000 </r>
       <r>   -40.1738     0.0000     0.0000 </r>
       <r>   -39.8335     0.0000     0.0000 </r>
       <r>   -39.4933     0.0000     0.0000 </r>
       <r>   -39.1530     0.0000     0.0000 </r>
       <r>   -38.8127     0.0000     0.0000 </r>
       <r>   -38.4725     0.0000     0.0000 </r>
       <r>   -38.1322     0.0000     0.0000 </r>
       <r>   -37.7919     0.0000     0.0000 </r>
       <r>   -37.4516     0.0000     0.0000 </r>
       <r>   -37.1114     0.0000     0.0000 </r>
       <r>   -36.7711     0.0000     0.0000 </r>
       <r>   -36.4308     0.0000     0.0000 </r>
       <r>   -36.0906     0.0000     0.0000 </r>
       <r>   -35.7503     0.0000     0.0000 </r>
       <r>   -35.4100     0.0000     0.0000 </r>
       <r>   -35.0698     0.0000     0.0000 </r>
       <r>   -34.7295     0.0000     0.0000 </r>
       <r>   -34.3892     0.0000     0.0000 </r>
       <r>   -34.0489     0.0000     0.0000 </r>
       <r>   -33.7087     0.0000     0.0000 </r>
       <r>   -33.3684     0.0000     0.0000 </r>
       <r>   -33.0281     0.0000     0.0000 </r>
       <r>   -32.6879     0.0000     0.0000 </r>
       <r>   -32.3476     0.0000     0.0000 </r>
       <r>   -32.0073     0.0000     0.0000 </r>
       <r>   -31.6671     0.0000     0.0000 </r>
       <r>   -31.3268     0.0000     0.0000 </r>
       <r>   -30.9865     0.0000     0.0000 </r>
       <r>   -30.6462     0.0000     0.0000 </r>
       <r>   -30.3060     0.0000     0.0000 </r>
       <r>   -29.9657     0.0000     0.0000 </r>
       <r>   -29.6254     0.0000     0.0000 </r>
       <r>   -29.2852     0.0000     0.0000 </r>
       <r>   -28.9449     0.0000     0.0000 </r>
       <r>   -28.6046     0.0000     0.0000 </r>
       <r>   -28.2644     0.0000     0.0000 </r>
       <r>   -27.9241     0.0000     0.0000 </r>
       <r>   -27.5838     0.0000     0.0000 </r>
       <r>   -27.2435     0.0000     0.0000 </r>
       <r>   -26.9033     0.0000     0.0000 </r>
       <r>   -26.5630     0.0000     0.0000 </r>
       <r>   -26.2227     0.0000     0.0000 </r>
       <r>   -25.8825     0.0000     0.0000 </r>
       <r>   -25.5422     0.0000     0.0000 </r>
       <r>   -25.2019     0.0000     0.0000 </r>
       <r>   -24.8617     0.0000     0.0000 </r>
       <r>   -24.5214     0.0000     0.0000 </r>
       <r>   -24.1811     0.0000     0.0000 </r>
       <r>   -23.8408     0.0000     0.0000 </r>
       <r>   -23.5006     0.0000     0.0000 </r>
       <r>   -23.1603     0.0000     0.0000 </r>
       <r>   -22.8200     0.0000     0.0000 </r>
       <r>   -22.4798     0.0000     0.0000 </r>
       <r>   -22.1395     0.0000     0.0000 </r>
       <r>   -21.7992     0.0000     0.0000 </r>
       <r>   -21.4590     0.0000     0.0000 </r>
       <r>   -21.1187     0.0000     0.0000 </r>
       <r>   -20.7784     0.0000     0.0000 </r>
       <r>   -20.4381     0.0000     0.0000 </r>
       <r>   -20.0979     0.0000     0.0000 </r>
       <r>   -19.7576     0.0000     0.0000 </r>
       <r>   -19.4173     0.0000     0.0000 </r>
       <r>   -19.0771     0.0000     0.0000 </r>
       <r>   -18.7368     0.0000     0.0000 </r>
       <r>   -18.3965     0.0000     0.0000 </r>
       <r>   -18.0563     0.0000     0.0000 </r>
       <r>   -17.7160     0.0000     0.0000 </r>
       <r>   -17.3757     0.0000     0.0000 </r>
       <r>   -17.0354     0.0000     0.0000 </r>
       <r>   -16.6952     0.0000     0.0000 </r>
       <r>   -16.3549     0.0000     0.0000 </r>
       <r>   -16.0146     0.0000     0.0000 </r>
       <r>   -15.6744     0.0000     0.0000 </r>
       <r>   -15.3341     0.0000     0.0000 </r>
       <r>   -14.9938     0.0000     0.0000 </r>
       <r>   -14.6536     0.0000     0.0000 </r>
       <r>   -14.3133     0.0000     0.0000 </r>
       <r>   -13.9730     0.0000     0.0000 </r>
       <r>   -13.6327     0.0000     0.0000 </r>
       <r>   -13.2925     0.0000     0.0000 </r>
       <r>   -12.9522     0.0000     0.0000 </r>
       <r>   -12.6119     0.0000     0.0000 </r>
       <r>   -12.2717     0.0000     0.0000 </r>
       <r>   -11.9314     0.0000     0.0000 </r>
       <r>   -11.5911     0.0000     0.0000 </r>
       <r>   -11.2509     0.0000     0.0000 </r>
       <r>   -10.9106     0.0000     0.0000 </r>
       <r>   -10.5703     0.0000     0.0000 </r>
       <r>   -10.2300     0.0000     0.0000 </r>
       <r>    -9.8898     0.0000     0.0000 </r>
       <r>    -9.5495     0.0000     0.0000 </r>
       <r>    -9.2092     0.0000     0.0000 </r>
       <r>    -8.8690     0.0000     0.0000 </r>
       <r>    -8.5287     0.0000     0.0000 </r>
       <r>    -8.1884     0.0000     0.0000 </r>
       <r>    -7.8482     0.0000     0.0000 </r>
       <r>    -7.5079     0.0000     0.0000 </r>
       <r>    -7.1676     0.0000     0.0000 </r>
       <r>    -6.8273     0.0000     0.0000 </r>
       <r>    -6.4871     0.0000     0.0000 </r>
       <r>    -6.1468     0.0000     0.0000 </r>
       <r>    -5.8065     0.0000     0.0000 </r>
       <r>    -5.4663     0.0000     0.0000 </r>
       <r>    -5.1260     0.0000     0.0000 </r>
       <r>    -4.7857     0.0000     0.0000 </r>
       <r>    -4.4455     0.0000     0.0000 </r>
       <r>    -4.1052     0.0000     0.0000 </r>
       <r>    -3.7649     0.0000     0.0000 </r>
       <r>    -3.4246     0.0000     0.0000 </r>
       <r>    -3.0844     0.0000     0.0000 </r>
       <r>    -2.7441     0.0000     0.0000 </r>
       <r>    -2.4038     0.0000     0.0000 </r>
       <r>    -2.0636     0.0000     0.0000 </r>
       <r>    -1.7233     0.0000     0.0000 </r>
       <r>    -1.3830     0.0000     0.0000 </r>
       <r>    -1.0428     0.0000     0.0000 </r>
       <r>    -0.7025     0.0000     0.0000 </r>
       <r>    -0.3622     0.0000     0.0000 </r>
       <r>    -0.0219     0.0000     0.0000 </r>
       <r>     0.3183     0.0000     0.0000 </r>
       <r>     0.6586     0.0000     0.0000 </r>
       <r>     0.9989     0.0000     0.0000 </r>
       <r>     1.3391     0.0000     0.0000 </r>
       <r>     1.6794     0.0000     0.0000 </r>
       <r>     2.0197     0.0000     0.0000 </r>
       <r>     2.3599     0.0000     0.0000 </r>
       <r>     2.7002     0.0000     0.0000 </r>
       <r>     3.0405     0.0000     0.0000 </r>
       <r>     3.3808     0.0000     0.0000 </r>
       <r>     3.7210     0.0000     0.0000 </r>
       <r>     4.0613     0.0000     0.0000 </r>
       <r>     4.4016     0.0000     0.0000 </r>
       <r>     4.7418     0.0000     0.0000 </r>
       <r>     5.0821     0.0000     0.0000 </r>
       <r>     5.4224     0.0000     0.0000 </r>
       <r>     5.7626     0.0000     0.0000 </r>
       <r>     6.1029     0.0000     0.0000 </r>
       <r>     6.4432     0.0000     0.0000 </r>
       <r>     6.7835     0.0000     0.0000 </r>
       <r>     7.1237     0.0000     0.0000 </r>
       <r>     7.4640     0.0000     0.0000 </r>
       <r>     7.8043     0.0000     0.0000 </r>
       <r>     8.1445     0.0000     0.0000 </r>
       <r>     8.4848     0.0000     0.0000 </r>
       <r>     8.8251     0.0000     0.0000 </r>
       <r>     9.1653     0.0000     0.0000 </r>
       <r>     9.5056     0.0000     0.0000 </r>
       <r>     9.8459     0.0000     0.0000 </r>
       <r>    10.1862     0.0000     0.0000 </r>
       <r>    10.5264     0.0000     0.0000 </r>
       <r>    10.8667     0.0000     0.0000 </r>
       <r>    11.2070     0.0000     0.0000 </r>
       <r>    11.5472     0.0000     0.0000 </r>
       <r>    11.8875     0.0000     0.0000 </r>
       <r>    12.2278     0.0000     0.0000 </r>
       <r>    12.5680     0.0000     0.0000 </r>
       <r>    12.9083     0.0000     0.0000 </r>
       <r>    13.2486     0.0000     0.0000 </r>
       <r>    13.5889     0.0000     0.0000 </r>
       <r>    13.9291     0.0000     0.0000 </r>
       <r>    14.2694     0.0000     0.0000 </r>
       <r>    14.6097     0.0000     0.0000 </r>
       <r>    14.9499     0.0000     0.0000 </r>
       <r>    15.2902     0.0000     0.0000 </r>
       <r>    15.6305     0.0000     0.0000 </r>
       <r>    15.9707     0.0000     0.0000 </r>
       <r>    16.3110     0.0000     0.0000 </r>
       <r>    16.6513     0.0000     0.0000 </r>
       <r>    16.9916     0.0000     0.0000 </r>
       <r>    17.3318     0.0000     0.0000 </r>
       <r>    17.6721     0.0000     0.0000 </r>
       <r>    18.0124     0.0000     0.0000 </r>
       <r>    18.3526     0.0000     0.0000 </r>
       <r>    18.6929     0.0000     0.0000 </r>
       <r>    19.0332     0.0000     0.0000 </r>
       <r>    19.3734     0.0000     0.0000 </r>
       <r>    19.7137     0.0000     0.0000 </r>
       <r>    20.0540     0.0000     0.0000 </r>
       <r>    20.3943     0.0000     0.0000 </r>
       <r>    20.7345     0.0000     0.0000 </r>
       <r>    21.0748     0.0000     0.0000 </r>
       <r>    21.4151     0.0000     0.0000 </r>
       <r>    21.7553     0.0000     0.0000 </r>
       <r>    22.0956     0.0000     0.0000 </r>
       <r>    22.4359     0.0000     0.0000 </r>
       <r>    22.7761     0.0000     0.0000 </r>
       <r>    23.1164     0.0000     0.0000 </r>
       <r>    23.4567     0.0000     0.0000 </r>
       <r>    23.7970     0.0000     0.0000 </r>
       <r>    24.1372     0.0000     0.0000 </r>
       <r>    24.4775     0.0000     0.0000 </r>
       <r>    24.8178     0.0000     0.0000 </r>
       <r>    25.1580     0.0000     0.0000 </r>
       <r>    25.4983     0.0000     0.0000 </r>
       <r>    25.8386     0.0000     0.0000 </r>
       <r>    26.1788     0.0000     0.0000 </r>
       <r>    26.5191     0.0000     0.0000 </r>
       <r>    26.8594     0.0000     0.0000 </r>
       <r>    27.1997     0.0000     0.0000 </r>
       <r>    27.5399     0.0000     0.0000 </r>
       <r>    27.8802     0.0000     0.0000 </r>
       <r>    28.2205     0.0000     0.0000 </r>
       <r>    28.5607     0.0000     0.0000 </r>
       <r>    28.9010     0.0000     0.0000 </r>
       <r>    29.2413     0.0000     0.0000 </r>
       <r>    29.5815     0.0000     0.0000 </r>
       <r>    29.9218     0.0000     0.0000 </r>
       <r>    30.2621     0.0000     0.0000 </r>
       <r>    30.6024     0.0000     0.0000 </r>
       <r>    30.9426     0.0000     0.0000 </r>
       <r>    31.2829     0.0000     0.0000 </r>
       <r>    31.6232     0.0000     0.0000 </r>
       <r>    31.9634     0.0000     0.0000 </r>
       <r>    32.3037     0.0000     0.0000 </r>
       <r>    32.6440     0.0000     0.0000 </r>
       <r>    32.9842     0.0000     0.0000 </r>
       <r>    33.3245     0.0000     0.0000 </r>
       <r>    33.6648     0.0000     0.0000 </r>
       <r>    34.0051     0.0000     0.0000 </r>
       <r>    34.3453     0.0000     0.0000 </r>
      </set>
     </set>
    </array>
   </total>
  </dos>
 </calculation>
 <structure name="finalpos" >
  <crystal>
   <varray name="basis" >
    <v>       3.18968000       0.00000000       0.00000000 </v>
    <v>       0.00000000       3.18968000       0.00000000 </v>
    <v>       0.00000000       0.00000000       3.18968000 </v>
   </varray>
   <i name="volume">     32.45199092 </i>
   <varray name="rec_basis" >
    <v>       0.31351107      -0.00000000       0.00000000 </v>
    <v>       0.00000000       0.31351107       0.00000000 </v>
    <v>      -0.00000000      -0.00000000       0.31351107 </v>
   </varray>
  </crystal>
  <varray name="positions" >
   <v>       0.00000000       0.00000000       0.00000000 </v>
   <v>       0.50000000       0.50000000       0.50000000 </v>
  </varray>
 </structure>
</modeling>
