 DBCSR| CPU Multiplication driver                                           BLAS (U)
 DBCSR| Multrec recursion limit                                              512 (U)
 DBCSR| Multiplication stack size                                           1000 (D)
 DBCSR| Maximum elements for images                                    UNLIMITED (U)
 DBCSR| Multiplicative factor virtual images                                   1 (U)
 DBCSR| Use multiplication densification                                       T (D)
 DBCSR| Multiplication size stacks                                             3 (U)
 DBCSR| Use memory pool for CPU allocation                                     F (U)
 DBCSR| Number of 3D layers                                               SINGLE (U)
 DBCSR| Use MPI memory allocation                                              F (U)
 DBCSR| Use RMA algorithm                                                      F (U)
 DBCSR| Use Communication thread                                               T (U)
 DBCSR| Communication thread load                                             45 (D)
 DBCSR| MPI: My process id                                                     0
 DBCSR| MPI: Number of processes                                              16
 DBCSR| OMP: Current number of threads                                        12
 DBCSR| OMP: Max number of threads                                            12
 DBCSR| Split modifier for TAS multiplication algorithm                  1.0E+00 (U)


  **** **** ******  **  PROGRAM STARTED AT               2025-08-05 21:28:45.962
 ***** ** ***  *** **   PROGRAM STARTED ON                          i04r01c05s01
 **    ****   ******    PROGRAM STARTED BY                               di38fab
 ***** **    ** ** **   PROGRAM PROCESS ID                               2883054
  **** **  *******  **  PROGRAM STARTED IN /hppfs/scratch/04/di38fab/09_GTH/Delt
                                           a_Set/Ca/aug-TZVP-MOLOPT-GTH-tier-2/8
                                           x8x8

 CP2K| version string:                 CP2K version 2025.1 (Development Version)
 CP2K| source code revision number:                                  git:3130539
 CP2K| cp2kflags: omp libint fftw3 libxc parallel scalapack max_contr=4         
 CP2K| is freely available from                            https://www.cp2k.org/
 CP2K| Program compiled at                         Tue Jun  3 16:14:32 CEST 2025
 CP2K| Program compiled on                                               login01
 CP2K| Program compiled for                                        Supermuc-foss
 CP2K| Data directory path                  /hppfs/work/pn36zo/di38fab/cp2k/data
 CP2K| Input file name                                                    GW.inp

 GLOBAL| Force Environment number                                              1
 GLOBAL| Basis set file name            /hppfs/scratch/04/di38fab/09_GTH/BASIS_A
 GLOBAL| Potential file name            /hppfs/work/pn36zo/di38fab/cp2k/data/GTH
 GLOBAL| MM Potential file name                                     MM_POTENTIAL
 GLOBAL| Coordinate file name                                             Ca.cif
 GLOBAL| Method name                                                        CP2K
 GLOBAL| Project name                                                       WSe2
 GLOBAL| Run type                                                         ENERGY
 GLOBAL| FFT library                                                       FFTW3
 GLOBAL| Diagonalization library                                       ScaLAPACK
 GLOBAL| Cholesky decomposition library                                ScaLAPACK
 GLOBAL| DGEMM library                                                      BLAS
 GLOBAL| Orthonormality check for eigenvectors                          DISABLED
 GLOBAL| Matrix multiplication library                                 ScaLAPACK
 GLOBAL| All-to-all communication in single precision                          F
 GLOBAL| FFTs using library dependent lengths                                  F
 GLOBAL| Grid backend                                                       AUTO
 GLOBAL| Global print level                                               MEDIUM
 GLOBAL| MPI I/O enabled                                                       T
 GLOBAL| Total number of message passing processes                            16
 GLOBAL| Number of threads for this process                                   12
 GLOBAL| This output is from process                                           0
 GLOBAL| OpenMP stack size per thread (OMP_STACKSIZE)                    default
 GLOBAL| CPU model name             Intel(R) Xeon(R) Platinum 8174 CPU @ 3.10GHz

 MEMORY| system memory details [Kb]
 MEMORY|                        rank 0           min           max       average
 MEMORY| MemTotal             98436660      98436660      98436664      98436662
 MEMORY| MemFree              84531352      84457140      84809996      84605231
 MEMORY| Buffers                     0             0             0             0
 MEMORY| Cached                2387480       2375876       2411396       2394692
 MEMORY| Slab                  1299552       1293912       1307432       1298930
 MEMORY| SReclaimable           285504        283332        290016        286497
 MEMORY| MemLikelyFree        87204336      87158552      87469204      87286420


 *** Fundamental physical constants (SI units) ***

 *** Literature: B. J. Mohr and B. N. Taylor,
 ***             CODATA recommended values of the fundamental physical
 ***             constants: 2006, Web Version 5.1
 ***             http://physics.nist.gov/constants

 Speed of light in vacuum [m/s]                             2.99792458000000E+08
 Magnetic constant or permeability of vacuum [N/A**2]       1.25663706143592E-06
 Electric constant or permittivity of vacuum [F/m]          8.85418781762039E-12
 Planck constant (h) [J*s]                                  6.62606896000000E-34
 Planck constant (h-bar) [J*s]                              1.05457162825177E-34
 Elementary charge [C]                                      1.60217648700000E-19
 Electron mass [kg]                                         9.10938215000000E-31
 Electron g factor [ ]                                     -2.00231930436220E+00
 Proton mass [kg]                                           1.67262163700000E-27
 Fine-structure constant                                    7.29735253760000E-03
 Rydberg constant [1/m]                                     1.09737315685270E+07
 Avogadro constant [1/mol]                                  6.02214179000000E+23
 Boltzmann constant [J/K]                                   1.38065040000000E-23
 Atomic mass unit [kg]                                      1.66053878200000E-27
 Bohr radius [m]                                            5.29177208590000E-11

 *** Conversion factors ***

 [u] -> [a.u.]                                              1.82288848426455E+03
 [Angstrom] -> [Bohr] = [a.u.]                              1.88972613288564E+00
 [a.u.] = [Bohr] -> [Angstrom]                              5.29177208590000E-01
 [a.u.] -> [s]                                              2.41888432650478E-17
 [a.u.] -> [fs]                                             2.41888432650478E-02
 [a.u.] -> [J]                                              4.35974393937059E-18
 [a.u.] -> [N]                                              8.23872205491840E-08
 [a.u.] -> [K]                                              3.15774647902944E+05
 [a.u.] -> [kJ/mol]                                         2.62549961709828E+03
 [a.u.] -> [kcal/mol]                                       6.27509468713739E+02
 [a.u.] -> [Pa]                                             2.94210107994716E+13
 [a.u.] -> [bar]                                            2.94210107994716E+08
 [a.u.] -> [atm]                                            2.90362800883016E+08
 [a.u.] -> [eV]                                             2.72113838565563E+01
 [a.u.] -> [Hz]                                             6.57968392072181E+15
 [a.u.] -> [1/cm] (wave numbers)                            2.19474631370540E+05
 [a.u./Bohr**2] -> [1/cm]                                   5.14048714338585E+03
 

 CELL_TOP| Volume [angstrom^3]:                                       168.660489
 CELL_TOP| Vector a [angstrom     5.525     0.000     0.000   |a| =     5.525070
 CELL_TOP| Vector b [angstrom     0.000     5.525     0.000   |b| =     5.525070
 CELL_TOP| Vector c [angstrom     0.000     0.000     5.525   |c| =     5.525070
 CELL_TOP| Angle (b,c), alpha [degree]:                                90.000000
 CELL_TOP| Angle (a,c), beta  [degree]:                                90.000000
 CELL_TOP| Angle (a,b), gamma [degree]:                                90.000000
 CELL_TOP| Numerically orthorhombic:                                         YES
 CELL_TOP| Periodicity                                                       XYZ

 CELL_CIF| Volume [angstrom^3]:                                       168.660489
 CELL_CIF| Vector a [angstrom     5.525     0.000     0.000   |a| =     5.525070
 CELL_CIF| Vector b [angstrom     0.000     5.525     0.000   |b| =     5.525070
 CELL_CIF| Vector c [angstrom     0.000     0.000     5.525   |c| =     5.525070
 CELL_CIF| Angle (b,c), alpha [degree]:                                90.000000
 CELL_CIF| Angle (a,c), beta  [degree]:                                90.000000
 CELL_CIF| Angle (a,b), gamma [degree]:                                90.000000
 CELL_CIF| Numerically orthorhombic:                                         YES
 CELL_CIF| Periodicity                                                       XYZ

 GENERATE|  Preliminary Number of Bonds generated:                             0
 GENERATE|  Achieved consistency in connectivity generation.

 CELL| Volume [angstrom^3]:                                           168.660489
 CELL| Vector a [angstrom]:       5.525     0.000     0.000   |a| =     5.525070
 CELL| Vector b [angstrom]:       0.000     5.525     0.000   |b| =     5.525070
 CELL| Vector c [angstrom]:       0.000     0.000     5.525   |c| =     5.525070
 CELL| Angle (b,c), alpha [degree]:                                    90.000000
 CELL| Angle (a,c), beta  [degree]:                                    90.000000
 CELL| Angle (a,b), gamma [degree]:                                    90.000000
 CELL| Numerically orthorhombic:                                             YES
 CELL| Periodicity                                                           XYZ

 CELL_REF| Volume [angstrom^3]:                                       168.660489
 CELL_REF| Vector a [angstrom     5.525     0.000     0.000   |a| =     5.525070
 CELL_REF| Vector b [angstrom     0.000     5.525     0.000   |b| =     5.525070
 CELL_REF| Vector c [angstrom     0.000     0.000     5.525   |c| =     5.525070
 CELL_REF| Angle (b,c), alpha [degree]:                                90.000000
 CELL_REF| Angle (a,c), beta  [degree]:                                90.000000
 CELL_REF| Angle (a,b), gamma [degree]:                                90.000000
 CELL_REF| Numerically orthorhombic:                                         YES
 CELL_REF| Periodicity                                                       XYZ

 *** WARNING in cryssym.F:180 :: Symmetry library SPGLIB not available ***


 *******************************************************************************
                                    Kpoints
 *******************************************************************************
 BRILLOUIN| K-point scheme                                        Monkhorst-Pack
 BRILLOUIN| K-Point grid                                             8    8    8
 BRILLOUIN| Accuracy in Symmetry determination                      0.100000E-05
 BRILLOUIN| K-Point point group symmetrization                               OFF
 BRILLOUIN| Wavefunction type                                            COMPLEX
 BRILLOUIN| List of Kpoints [2 Pi/Bohr]                                      256
 BRILLOUIN| Number           Weight            X              Y              Z
 BRILLOUIN|     1           0.00391       -0.43750       -0.43750       -0.43750
 BRILLOUIN|     2           0.00391       -0.43750       -0.43750       -0.31250
 BRILLOUIN|     3           0.00391       -0.43750       -0.43750       -0.18750
 BRILLOUIN|     4           0.00391       -0.43750       -0.43750       -0.06250
 BRILLOUIN|     5           0.00391       -0.43750       -0.43750        0.06250
 BRILLOUIN|     6           0.00391       -0.43750       -0.43750        0.18750
 BRILLOUIN|     7           0.00391       -0.43750       -0.43750        0.31250
 BRILLOUIN|     8           0.00391       -0.43750       -0.43750        0.43750
 BRILLOUIN|     9           0.00391       -0.43750       -0.31250       -0.43750
 BRILLOUIN|    10           0.00391       -0.43750       -0.31250       -0.31250
 BRILLOUIN|    11           0.00391       -0.43750       -0.31250       -0.18750
 BRILLOUIN|    12           0.00391       -0.43750       -0.31250       -0.06250
 BRILLOUIN|    13           0.00391       -0.43750       -0.31250        0.06250
 BRILLOUIN|    14           0.00391       -0.43750       -0.31250        0.18750
 BRILLOUIN|    15           0.00391       -0.43750       -0.31250        0.31250
 BRILLOUIN|    16           0.00391       -0.43750       -0.31250        0.43750
 BRILLOUIN|    17           0.00391       -0.43750       -0.18750       -0.43750
 BRILLOUIN|    18           0.00391       -0.43750       -0.18750       -0.31250
 BRILLOUIN|    19           0.00391       -0.43750       -0.18750       -0.18750
 BRILLOUIN|    20           0.00391       -0.43750       -0.18750       -0.06250
 BRILLOUIN|    21           0.00391       -0.43750       -0.18750        0.06250
 BRILLOUIN|    22           0.00391       -0.43750       -0.18750        0.18750
 BRILLOUIN|    23           0.00391       -0.43750       -0.18750        0.31250
 BRILLOUIN|    24           0.00391       -0.43750       -0.18750        0.43750
 BRILLOUIN|    25           0.00391       -0.43750       -0.06250       -0.43750
 BRILLOUIN|    26           0.00391       -0.43750       -0.06250       -0.31250
 BRILLOUIN|    27           0.00391       -0.43750       -0.06250       -0.18750
 BRILLOUIN|    28           0.00391       -0.43750       -0.06250       -0.06250
 BRILLOUIN|    29           0.00391       -0.43750       -0.06250        0.06250
 BRILLOUIN|    30           0.00391       -0.43750       -0.06250        0.18750
 BRILLOUIN|    31           0.00391       -0.43750       -0.06250        0.31250
 BRILLOUIN|    32           0.00391       -0.43750       -0.06250        0.43750
 BRILLOUIN|    33           0.00391       -0.43750        0.06250       -0.43750
 BRILLOUIN|    34           0.00391       -0.43750        0.06250       -0.31250
 BRILLOUIN|    35           0.00391       -0.43750        0.06250       -0.18750
 BRILLOUIN|    36           0.00391       -0.43750        0.06250       -0.06250
 BRILLOUIN|    37           0.00391       -0.43750        0.06250        0.06250
 BRILLOUIN|    38           0.00391       -0.43750        0.06250        0.18750
 BRILLOUIN|    39           0.00391       -0.43750        0.06250        0.31250
 BRILLOUIN|    40           0.00391       -0.43750        0.06250        0.43750
 BRILLOUIN|    41           0.00391       -0.43750        0.18750       -0.43750
 BRILLOUIN|    42           0.00391       -0.43750        0.18750       -0.31250
 BRILLOUIN|    43           0.00391       -0.43750        0.18750       -0.18750
 BRILLOUIN|    44           0.00391       -0.43750        0.18750       -0.06250
 BRILLOUIN|    45           0.00391       -0.43750        0.18750        0.06250
 BRILLOUIN|    46           0.00391       -0.43750        0.18750        0.18750
 BRILLOUIN|    47           0.00391       -0.43750        0.18750        0.31250
 BRILLOUIN|    48           0.00391       -0.43750        0.18750        0.43750
 BRILLOUIN|    49           0.00391       -0.43750        0.31250       -0.43750
 BRILLOUIN|    50           0.00391       -0.43750        0.31250       -0.31250
 BRILLOUIN|    51           0.00391       -0.43750        0.31250       -0.18750
 BRILLOUIN|    52           0.00391       -0.43750        0.31250       -0.06250
 BRILLOUIN|    53           0.00391       -0.43750        0.31250        0.06250
 BRILLOUIN|    54           0.00391       -0.43750        0.31250        0.18750
 BRILLOUIN|    55           0.00391       -0.43750        0.31250        0.31250
 BRILLOUIN|    56           0.00391       -0.43750        0.31250        0.43750
 BRILLOUIN|    57           0.00391       -0.43750        0.43750       -0.43750
 BRILLOUIN|    58           0.00391       -0.43750        0.43750       -0.31250
 BRILLOUIN|    59           0.00391       -0.43750        0.43750       -0.18750
 BRILLOUIN|    60           0.00391       -0.43750        0.43750       -0.06250
 BRILLOUIN|    61           0.00391       -0.43750        0.43750        0.06250
 BRILLOUIN|    62           0.00391       -0.43750        0.43750        0.18750
 BRILLOUIN|    63           0.00391       -0.43750        0.43750        0.31250
 BRILLOUIN|    64           0.00391       -0.43750        0.43750        0.43750
 BRILLOUIN|    65           0.00391       -0.31250       -0.43750       -0.43750
 BRILLOUIN|    66           0.00391       -0.31250       -0.43750       -0.31250
 BRILLOUIN|    67           0.00391       -0.31250       -0.43750       -0.18750
 BRILLOUIN|    68           0.00391       -0.31250       -0.43750       -0.06250
 BRILLOUIN|    69           0.00391       -0.31250       -0.43750        0.06250
 BRILLOUIN|    70           0.00391       -0.31250       -0.43750        0.18750
 BRILLOUIN|    71           0.00391       -0.31250       -0.43750        0.31250
 BRILLOUIN|    72           0.00391       -0.31250       -0.43750        0.43750
 BRILLOUIN|    73           0.00391       -0.31250       -0.31250       -0.43750
 BRILLOUIN|    74           0.00391       -0.31250       -0.31250       -0.31250
 BRILLOUIN|    75           0.00391       -0.31250       -0.31250       -0.18750
 BRILLOUIN|    76           0.00391       -0.31250       -0.31250       -0.06250
 BRILLOUIN|    77           0.00391       -0.31250       -0.31250        0.06250
 BRILLOUIN|    78           0.00391       -0.31250       -0.31250        0.18750
 BRILLOUIN|    79           0.00391       -0.31250       -0.31250        0.31250
 BRILLOUIN|    80           0.00391       -0.31250       -0.31250        0.43750
 BRILLOUIN|    81           0.00391       -0.31250       -0.18750       -0.43750
 BRILLOUIN|    82           0.00391       -0.31250       -0.18750       -0.31250
 BRILLOUIN|    83           0.00391       -0.31250       -0.18750       -0.18750
 BRILLOUIN|    84           0.00391       -0.31250       -0.18750       -0.06250
 BRILLOUIN|    85           0.00391       -0.31250       -0.18750        0.06250
 BRILLOUIN|    86           0.00391       -0.31250       -0.18750        0.18750
 BRILLOUIN|    87           0.00391       -0.31250       -0.18750        0.31250
 BRILLOUIN|    88           0.00391       -0.31250       -0.18750        0.43750
 BRILLOUIN|    89           0.00391       -0.31250       -0.06250       -0.43750
 BRILLOUIN|    90           0.00391       -0.31250       -0.06250       -0.31250
 BRILLOUIN|    91           0.00391       -0.31250       -0.06250       -0.18750
 BRILLOUIN|    92           0.00391       -0.31250       -0.06250       -0.06250
 BRILLOUIN|    93           0.00391       -0.31250       -0.06250        0.06250
 BRILLOUIN|    94           0.00391       -0.31250       -0.06250        0.18750
 BRILLOUIN|    95           0.00391       -0.31250       -0.06250        0.31250
 BRILLOUIN|    96           0.00391       -0.31250       -0.06250        0.43750
 BRILLOUIN|    97           0.00391       -0.31250        0.06250       -0.43750
 BRILLOUIN|    98           0.00391       -0.31250        0.06250       -0.31250
 BRILLOUIN|    99           0.00391       -0.31250        0.06250       -0.18750
 BRILLOUIN|   100           0.00391       -0.31250        0.06250       -0.06250
 BRILLOUIN|   101           0.00391       -0.31250        0.06250        0.06250
 BRILLOUIN|   102           0.00391       -0.31250        0.06250        0.18750
 BRILLOUIN|   103           0.00391       -0.31250        0.06250        0.31250
 BRILLOUIN|   104           0.00391       -0.31250        0.06250        0.43750
 BRILLOUIN|   105           0.00391       -0.31250        0.18750       -0.43750
 BRILLOUIN|   106           0.00391       -0.31250        0.18750       -0.31250
 BRILLOUIN|   107           0.00391       -0.31250        0.18750       -0.18750
 BRILLOUIN|   108           0.00391       -0.31250        0.18750       -0.06250
 BRILLOUIN|   109           0.00391       -0.31250        0.18750        0.06250
 BRILLOUIN|   110           0.00391       -0.31250        0.18750        0.18750
 BRILLOUIN|   111           0.00391       -0.31250        0.18750        0.31250
 BRILLOUIN|   112           0.00391       -0.31250        0.18750        0.43750
 BRILLOUIN|   113           0.00391       -0.31250        0.31250       -0.43750
 BRILLOUIN|   114           0.00391       -0.31250        0.31250       -0.31250
 BRILLOUIN|   115           0.00391       -0.31250        0.31250       -0.18750
 BRILLOUIN|   116           0.00391       -0.31250        0.31250       -0.06250
 BRILLOUIN|   117           0.00391       -0.31250        0.31250        0.06250
 BRILLOUIN|   118           0.00391       -0.31250        0.31250        0.18750
 BRILLOUIN|   119           0.00391       -0.31250        0.31250        0.31250
 BRILLOUIN|   120           0.00391       -0.31250        0.31250        0.43750
 BRILLOUIN|   121           0.00391       -0.31250        0.43750       -0.43750
 BRILLOUIN|   122           0.00391       -0.31250        0.43750       -0.31250
 BRILLOUIN|   123           0.00391       -0.31250        0.43750       -0.18750
 BRILLOUIN|   124           0.00391       -0.31250        0.43750       -0.06250
 BRILLOUIN|   125           0.00391       -0.31250        0.43750        0.06250
 BRILLOUIN|   126           0.00391       -0.31250        0.43750        0.18750
 BRILLOUIN|   127           0.00391       -0.31250        0.43750        0.31250
 BRILLOUIN|   128           0.00391       -0.31250        0.43750        0.43750
 BRILLOUIN|   129           0.00391       -0.18750       -0.43750       -0.43750
 BRILLOUIN|   130           0.00391       -0.18750       -0.43750       -0.31250
 BRILLOUIN|   131           0.00391       -0.18750       -0.43750       -0.18750
 BRILLOUIN|   132           0.00391       -0.18750       -0.43750       -0.06250
 BRILLOUIN|   133           0.00391       -0.18750       -0.43750        0.06250
 BRILLOUIN|   134           0.00391       -0.18750       -0.43750        0.18750
 BRILLOUIN|   135           0.00391       -0.18750       -0.43750        0.31250
 BRILLOUIN|   136           0.00391       -0.18750       -0.43750        0.43750
 BRILLOUIN|   137           0.00391       -0.18750       -0.31250       -0.43750
 BRILLOUIN|   138           0.00391       -0.18750       -0.31250       -0.31250
 BRILLOUIN|   139           0.00391       -0.18750       -0.31250       -0.18750
 BRILLOUIN|   140           0.00391       -0.18750       -0.31250       -0.06250
 BRILLOUIN|   141           0.00391       -0.18750       -0.31250        0.06250
 BRILLOUIN|   142           0.00391       -0.18750       -0.31250        0.18750
 BRILLOUIN|   143           0.00391       -0.18750       -0.31250        0.31250
 BRILLOUIN|   144           0.00391       -0.18750       -0.31250        0.43750
 BRILLOUIN|   145           0.00391       -0.18750       -0.18750       -0.43750
 BRILLOUIN|   146           0.00391       -0.18750       -0.18750       -0.31250
 BRILLOUIN|   147           0.00391       -0.18750       -0.18750       -0.18750
 BRILLOUIN|   148           0.00391       -0.18750       -0.18750       -0.06250
 BRILLOUIN|   149           0.00391       -0.18750       -0.18750        0.06250
 BRILLOUIN|   150           0.00391       -0.18750       -0.18750        0.18750
 BRILLOUIN|   151           0.00391       -0.18750       -0.18750        0.31250
 BRILLOUIN|   152           0.00391       -0.18750       -0.18750        0.43750
 BRILLOUIN|   153           0.00391       -0.18750       -0.06250       -0.43750
 BRILLOUIN|   154           0.00391       -0.18750       -0.06250       -0.31250
 BRILLOUIN|   155           0.00391       -0.18750       -0.06250       -0.18750
 BRILLOUIN|   156           0.00391       -0.18750       -0.06250       -0.06250
 BRILLOUIN|   157           0.00391       -0.18750       -0.06250        0.06250
 BRILLOUIN|   158           0.00391       -0.18750       -0.06250        0.18750
 BRILLOUIN|   159           0.00391       -0.18750       -0.06250        0.31250
 BRILLOUIN|   160           0.00391       -0.18750       -0.06250        0.43750
 BRILLOUIN|   161           0.00391       -0.18750        0.06250       -0.43750
 BRILLOUIN|   162           0.00391       -0.18750        0.06250       -0.31250
 BRILLOUIN|   163           0.00391       -0.18750        0.06250       -0.18750
 BRILLOUIN|   164           0.00391       -0.18750        0.06250       -0.06250
 BRILLOUIN|   165           0.00391       -0.18750        0.06250        0.06250
 BRILLOUIN|   166           0.00391       -0.18750        0.06250        0.18750
 BRILLOUIN|   167           0.00391       -0.18750        0.06250        0.31250
 BRILLOUIN|   168           0.00391       -0.18750        0.06250        0.43750
 BRILLOUIN|   169           0.00391       -0.18750        0.18750       -0.43750
 BRILLOUIN|   170           0.00391       -0.18750        0.18750       -0.31250
 BRILLOUIN|   171           0.00391       -0.18750        0.18750       -0.18750
 BRILLOUIN|   172           0.00391       -0.18750        0.18750       -0.06250
 BRILLOUIN|   173           0.00391       -0.18750        0.18750        0.06250
 BRILLOUIN|   174           0.00391       -0.18750        0.18750        0.18750
 BRILLOUIN|   175           0.00391       -0.18750        0.18750        0.31250
 BRILLOUIN|   176           0.00391       -0.18750        0.18750        0.43750
 BRILLOUIN|   177           0.00391       -0.18750        0.31250       -0.43750
 BRILLOUIN|   178           0.00391       -0.18750        0.31250       -0.31250
 BRILLOUIN|   179           0.00391       -0.18750        0.31250       -0.18750
 BRILLOUIN|   180           0.00391       -0.18750        0.31250       -0.06250
 BRILLOUIN|   181           0.00391       -0.18750        0.31250        0.06250
 BRILLOUIN|   182           0.00391       -0.18750        0.31250        0.18750
 BRILLOUIN|   183           0.00391       -0.18750        0.31250        0.31250
 BRILLOUIN|   184           0.00391       -0.18750        0.31250        0.43750
 BRILLOUIN|   185           0.00391       -0.18750        0.43750       -0.43750
 BRILLOUIN|   186           0.00391       -0.18750        0.43750       -0.31250
 BRILLOUIN|   187           0.00391       -0.18750        0.43750       -0.18750
 BRILLOUIN|   188           0.00391       -0.18750        0.43750       -0.06250
 BRILLOUIN|   189           0.00391       -0.18750        0.43750        0.06250
 BRILLOUIN|   190           0.00391       -0.18750        0.43750        0.18750
 BRILLOUIN|   191           0.00391       -0.18750        0.43750        0.31250
 BRILLOUIN|   192           0.00391       -0.18750        0.43750        0.43750
 BRILLOUIN|   193           0.00391       -0.06250       -0.43750       -0.43750
 BRILLOUIN|   194           0.00391       -0.06250       -0.43750       -0.31250
 BRILLOUIN|   195           0.00391       -0.06250       -0.43750       -0.18750
 BRILLOUIN|   196           0.00391       -0.06250       -0.43750       -0.06250
 BRILLOUIN|   197           0.00391       -0.06250       -0.43750        0.06250
 BRILLOUIN|   198           0.00391       -0.06250       -0.43750        0.18750
 BRILLOUIN|   199           0.00391       -0.06250       -0.43750        0.31250
 BRILLOUIN|   200           0.00391       -0.06250       -0.43750        0.43750
 BRILLOUIN|   201           0.00391       -0.06250       -0.31250       -0.43750
 BRILLOUIN|   202           0.00391       -0.06250       -0.31250       -0.31250
 BRILLOUIN|   203           0.00391       -0.06250       -0.31250       -0.18750
 BRILLOUIN|   204           0.00391       -0.06250       -0.31250       -0.06250
 BRILLOUIN|   205           0.00391       -0.06250       -0.31250        0.06250
 BRILLOUIN|   206           0.00391       -0.06250       -0.31250        0.18750
 BRILLOUIN|   207           0.00391       -0.06250       -0.31250        0.31250
 BRILLOUIN|   208           0.00391       -0.06250       -0.31250        0.43750
 BRILLOUIN|   209           0.00391       -0.06250       -0.18750       -0.43750
 BRILLOUIN|   210           0.00391       -0.06250       -0.18750       -0.31250
 BRILLOUIN|   211           0.00391       -0.06250       -0.18750       -0.18750
 BRILLOUIN|   212           0.00391       -0.06250       -0.18750       -0.06250
 BRILLOUIN|   213           0.00391       -0.06250       -0.18750        0.06250
 BRILLOUIN|   214           0.00391       -0.06250       -0.18750        0.18750
 BRILLOUIN|   215           0.00391       -0.06250       -0.18750        0.31250
 BRILLOUIN|   216           0.00391       -0.06250       -0.18750        0.43750
 BRILLOUIN|   217           0.00391       -0.06250       -0.06250       -0.43750
 BRILLOUIN|   218           0.00391       -0.06250       -0.06250       -0.31250
 BRILLOUIN|   219           0.00391       -0.06250       -0.06250       -0.18750
 BRILLOUIN|   220           0.00391       -0.06250       -0.06250       -0.06250
 BRILLOUIN|   221           0.00391       -0.06250       -0.06250        0.06250
 BRILLOUIN|   222           0.00391       -0.06250       -0.06250        0.18750
 BRILLOUIN|   223           0.00391       -0.06250       -0.06250        0.31250
 BRILLOUIN|   224           0.00391       -0.06250       -0.06250        0.43750
 BRILLOUIN|   225           0.00391       -0.06250        0.06250       -0.43750
 BRILLOUIN|   226           0.00391       -0.06250        0.06250       -0.31250
 BRILLOUIN|   227           0.00391       -0.06250        0.06250       -0.18750
 BRILLOUIN|   228           0.00391       -0.06250        0.06250       -0.06250
 BRILLOUIN|   229           0.00391       -0.06250        0.06250        0.06250
 BRILLOUIN|   230           0.00391       -0.06250        0.06250        0.18750
 BRILLOUIN|   231           0.00391       -0.06250        0.06250        0.31250
 BRILLOUIN|   232           0.00391       -0.06250        0.06250        0.43750
 BRILLOUIN|   233           0.00391       -0.06250        0.18750       -0.43750
 BRILLOUIN|   234           0.00391       -0.06250        0.18750       -0.31250
 BRILLOUIN|   235           0.00391       -0.06250        0.18750       -0.18750
 BRILLOUIN|   236           0.00391       -0.06250        0.18750       -0.06250
 BRILLOUIN|   237           0.00391       -0.06250        0.18750        0.06250
 BRILLOUIN|   238           0.00391       -0.06250        0.18750        0.18750
 BRILLOUIN|   239           0.00391       -0.06250        0.18750        0.31250
 BRILLOUIN|   240           0.00391       -0.06250        0.18750        0.43750
 BRILLOUIN|   241           0.00391       -0.06250        0.31250       -0.43750
 BRILLOUIN|   242           0.00391       -0.06250        0.31250       -0.31250
 BRILLOUIN|   243           0.00391       -0.06250        0.31250       -0.18750
 BRILLOUIN|   244           0.00391       -0.06250        0.31250       -0.06250
 BRILLOUIN|   245           0.00391       -0.06250        0.31250        0.06250
 BRILLOUIN|   246           0.00391       -0.06250        0.31250        0.18750
 BRILLOUIN|   247           0.00391       -0.06250        0.31250        0.31250
 BRILLOUIN|   248           0.00391       -0.06250        0.31250        0.43750
 BRILLOUIN|   249           0.00391       -0.06250        0.43750       -0.43750
 BRILLOUIN|   250           0.00391       -0.06250        0.43750       -0.31250
 BRILLOUIN|   251           0.00391       -0.06250        0.43750       -0.18750
 BRILLOUIN|   252           0.00391       -0.06250        0.43750       -0.06250
 BRILLOUIN|   253           0.00391       -0.06250        0.43750        0.06250
 BRILLOUIN|   254           0.00391       -0.06250        0.43750        0.18750
 BRILLOUIN|   255           0.00391       -0.06250        0.43750        0.31250
 BRILLOUIN|   256           0.00391       -0.06250        0.43750        0.43750
 *******************************************************************************

 *******************************************************************************
 *******************************************************************************
 **                                                                           **
 **     #####                         ##              ##                      **
 **    ##   ##            ##          ##              ##                      **
 **   ##     ##                       ##            ######                    **
 **   ##     ##  ##   ##  ##   #####  ##  ##   ####   ##    #####    #####    **
 **   ##     ##  ##   ##  ##  ##      ## ##   ##      ##   ##   ##  ##   ##   **
 **   ##  ## ##  ##   ##  ##  ##      ####     ###    ##   ######   ######    **
 **    ##  ###   ##   ##  ##  ##      ## ##      ##   ##   ##       ##        **
 **     #######   #####   ##   #####  ##  ##  ####    ##    #####   ##        **
 **           ##                                                    ##        **
 **                                                                           **
 **                                                ... make the atoms dance   **
 **                                                                           **
 **            Copyright (C) by CP2K developers group (2000-2025)             **
 **                      J. Chem. Phys. 152, 194103 (2020)                    **
 **                                                                           **
 *******************************************************************************

 DFT| Spin restricted Kohn-Sham (RKS) calculation                            RKS
 DFT| Multiplicity                                                             1
 DFT| Number of spin states                                                    1
 DFT| Charge                                                                   0
 DFT| Self-interaction correction (SIC)                                       NO
 DFT| Cutoffs: density                                              1.000000E-10
 DFT|          gradient                                             1.000000E-10
 DFT|          tau                                                  1.000000E-10
 DFT|          cutoff_smoothing_range                               0.000000E+00
 DFT| XC density smoothing                                                  NONE
 DFT| XC derivatives                                                          PW

 FUNCTIONAL| PBE:
 FUNCTIONAL| J.P.Perdew, K.Burke, M.Ernzerhof, Phys. Rev. Letter, vol. 77, n 18,
 FUNCTIONAL|  pp. 3865-3868, (1996) {spin unpolarized}                          


 QS| Method:                                                                 GPW
 QS| Density plane wave grid type                        NON-SPHERICAL FULLSPACE
 QS| Number of grid levels:                                                    4
 QS| Density cutoff [a.u.]:                                                500.0
 QS| Multi grid cutoff [a.u.]: 1) grid level                               500.0
 QS|                           2) grid level                               166.7
 QS|                           3) grid level                                55.6
 QS|                           4) grid level                                18.5
 QS| Grid level progression factor:                                          3.0
 QS| Relative density cutoff [a.u.]:                                        50.0
 QS| Interaction thresholds: eps_pgf_orb:                                1.0E-16
 QS|                         eps_filter_matrix:                          0.0E+00
 QS|                         eps_core_charge:                            1.0E-18
 QS|                         eps_rho_gspace:                             1.0E-16
 QS|                         eps_rho_rspace:                             1.0E-16
 QS|                         eps_gvg_rspace:                             1.0E-08
 QS|                         eps_ppl:                                    1.0E-02
 QS|                         eps_ppnl:                                   1.0E-10


 ATOMIC KIND INFORMATION

  1. Atomic kind: Ca                                    Number of atoms:       4

     Orbital Basis Set                                aug-TZVP-MOLOPT-GTH-tier-2

       Number of orbital shell sets:                                           1
       Number of orbital shells:                                              13
       Number of primitive Cartesian functions:                                7
       Number of Cartesian basis functions:                                   45
       Number of spherical basis functions:                                   39
       Norm type:                                                              2

       Normalised Cartesian orbitals:

                        Set   Shell   Orbital            Exponent    Coefficient

                          1       1    2s                0.030000       0.000000
                                                         0.048448       0.035794
                                                         0.169547       0.041481
                                                         0.472314      -0.399615
                                                         1.196021      -0.411678
                                                         3.944817       1.750626
                                                         4.585536      -1.066355

                          1       2    3s                0.030000       0.000000
                                                         0.048448       0.061350
                                                         0.169547       0.039560
                                                         0.472314      -0.019242
                                                         1.196021       0.111545
                                                         3.944817      -0.723358
                                                         4.585536       0.519258

                          1       3    4s                0.030000       0.000000
                                                         0.048448       0.105595
                                                         0.169547      -0.509790
                                                         0.472314       0.593158
                                                         1.196021      -0.213659
                                                         3.944817       1.972938
                                                         4.585536      -1.571255

                          1       4    5s                0.030000       0.000000
                                                         0.048448       0.001138
                                                         0.169547       0.014870
                                                         0.472314       0.035706
                                                         1.196021       0.150756
                                                         3.944817       0.766555
                                                         4.585536       0.852023

                          1       5    6s                0.030000       0.123776
                                                         0.048448      -0.115777
                                                         0.169547      -0.006129
                                                         0.472314       0.000636
                                                         1.196021       0.001277
                                                         3.944817       0.003125
                                                         4.585536       0.000000

                          1       6    3px               0.030000       0.000000
                                                         0.048448      -0.011438
                                                         0.169547      -0.036304
                                                         0.472314      -0.190329
                                                         1.196021      -0.665984
                                                         3.944817      -0.970410
                                                         4.585536       1.341992
                          1       6    3py               0.030000       0.000000
                                                         0.048448      -0.011438
                                                         0.169547      -0.036304
                                                         0.472314      -0.190329
                                                         1.196021      -0.665984
                                                         3.944817      -0.970410
                                                         4.585536       1.341992
                          1       6    3pz               0.030000       0.000000
                                                         0.048448      -0.011438
                                                         0.169547      -0.036304
                                                         0.472314      -0.190329
                                                         1.196021      -0.665984
                                                         3.944817      -0.970410
                                                         4.585536       1.341992

                          1       7    4px               0.030000       0.000000
                                                         0.048448       0.024445
                                                         0.169547       0.037357
                                                         0.472314      -0.234475
                                                         1.196021      -0.663997
                                                         3.944817      -1.233971
                                                         4.585536       1.450863
                          1       7    4py               0.030000       0.000000
                                                         0.048448       0.024445
                                                         0.169547       0.037357
                                                         0.472314      -0.234475
                                                         1.196021      -0.663997
                                                         3.944817      -1.233971
                                                         4.585536       1.450863
                          1       7    4pz               0.030000       0.000000
                                                         0.048448       0.024445
                                                         0.169547       0.037357
                                                         0.472314      -0.234475
                                                         1.196021      -0.663997
                                                         3.944817      -1.233971
                                                         4.585536       1.450863

                          1       8    5px               0.030000       0.000000
                                                         0.048448      -0.016486
                                                         0.169547       0.188861
                                                         0.472314       0.088556
                                                         1.196021      -0.840429
                                                         3.944817       0.176301
                                                         4.585536      -0.939831
                          1       8    5py               0.030000       0.000000
                                                         0.048448      -0.016486
                                                         0.169547       0.188861
                                                         0.472314       0.088556
                                                         1.196021      -0.840429
                                                         3.944817       0.176301
                                                         4.585536      -0.939831
                          1       8    5pz               0.030000       0.000000
                                                         0.048448      -0.016486
                                                         0.169547       0.188861
                                                         0.472314       0.088556
                                                         1.196021      -0.840429
                                                         3.944817       0.176301
                                                         4.585536      -0.939831

                          1       9    6px               0.030000       0.032436
                                                         0.048448      -0.030825
                                                         0.169547       0.001115
                                                         0.472314       0.001327
                                                         1.196021       0.004239
                                                         3.944817       0.018841
                                                         4.585536       0.000000
                          1       9    6py               0.030000       0.032436
                                                         0.048448      -0.030825
                                                         0.169547       0.001115
                                                         0.472314       0.001327
                                                         1.196021       0.004239
                                                         3.944817       0.018841
                                                         4.585536       0.000000
                          1       9    6pz               0.030000       0.032436
                                                         0.048448      -0.030825
                                                         0.169547       0.001115
                                                         0.472314       0.001327
                                                         1.196021       0.004239
                                                         3.944817       0.018841
                                                         4.585536       0.000000

                          1      10    4dx2              0.030000       0.000000
                                                         0.048448      -0.007580
                                                         0.169547      -0.011581
                                                         0.472314       0.123670
                                                         1.196021       0.107067
                                                         3.944817       5.902740
                                                         4.585536      -6.424111
                          1      10    4dxy              0.030000       0.000000
                                                         0.048448      -0.013128
                                                         0.169547      -0.020060
                                                         0.472314       0.214203
                                                         1.196021       0.185445
                                                         3.944817      10.223846
                                                         4.585536     -11.126886
                          1      10    4dxz              0.030000       0.000000
                                                         0.048448      -0.013128
                                                         0.169547      -0.020060
                                                         0.472314       0.214203
                                                         1.196021       0.185445
                                                         3.944817      10.223846
                                                         4.585536     -11.126886
                          1      10    4dy2              0.030000       0.000000
                                                         0.048448      -0.007580
                                                         0.169547      -0.011581
                                                         0.472314       0.123670
                                                         1.196021       0.107067
                                                         3.944817       5.902740
                                                         4.585536      -6.424111
                          1      10    4dyz              0.030000       0.000000
                                                         0.048448      -0.013128
                                                         0.169547      -0.020060
                                                         0.472314       0.214203
                                                         1.196021       0.185445
                                                         3.944817      10.223846
                                                         4.585536     -11.126886
                          1      10    4dz2              0.030000       0.000000
                                                         0.048448      -0.007580
                                                         0.169547      -0.011581
                                                         0.472314       0.123670
                                                         1.196021       0.107067
                                                         3.944817       5.902740
                                                         4.585536      -6.424111

                          1      11    5dx2              0.030000       0.000000
                                                         0.048448       0.002045
                                                         0.169547       0.032521
                                                         0.472314       0.145243
                                                         1.196021       0.555567
                                                         3.944817       6.871566
                                                         4.585536      -6.244965
                          1      11    5dxy              0.030000       0.000000
                                                         0.048448       0.003541
                                                         0.169547       0.056327
                                                         0.472314       0.251568
                                                         1.196021       0.962270
                                                         3.944817      11.901901
                                                         4.585536     -10.816596
                          1      11    5dxz              0.030000       0.000000
                                                         0.048448       0.003541
                                                         0.169547       0.056327
                                                         0.472314       0.251568
                                                         1.196021       0.962270
                                                         3.944817      11.901901
                                                         4.585536     -10.816596
                          1      11    5dy2              0.030000       0.000000
                                                         0.048448       0.002045
                                                         0.169547       0.032521
                                                         0.472314       0.145243
                                                         1.196021       0.555567
                                                         3.944817       6.871566
                                                         4.585536      -6.244965
                          1      11    5dyz              0.030000       0.000000
                                                         0.048448       0.003541
                                                         0.169547       0.056327
                                                         0.472314       0.251568
                                                         1.196021       0.962270
                                                         3.944817      11.901901
                                                         4.585536     -10.816596
                          1      11    5dz2              0.030000       0.000000
                                                         0.048448       0.002045
                                                         0.169547       0.032521
                                                         0.472314       0.145243
                                                         1.196021       0.555567
                                                         3.944817       6.871566
                                                         4.585536      -6.244965

                          1      12    6dx2              0.030000       0.000014
                                                         0.048448       0.000357
                                                         0.169547       0.050985
                                                         0.472314       0.166825
                                                         1.196021       0.008965
                                                         3.944817       0.072370
                                                         4.585536       0.000000
                          1      12    6dxy              0.030000       0.000025
                                                         0.048448       0.000619
                                                         0.169547       0.088308
                                                         0.472314       0.288949
                                                         1.196021       0.015528
                                                         3.944817       0.125348
                                                         4.585536       0.000000
                          1      12    6dxz              0.030000       0.000025
                                                         0.048448       0.000619
                                                         0.169547       0.088308
                                                         0.472314       0.288949
                                                         1.196021       0.015528
                                                         3.944817       0.125348
                                                         4.585536       0.000000
                          1      12    6dy2              0.030000       0.000014
                                                         0.048448       0.000357
                                                         0.169547       0.050985
                                                         0.472314       0.166825
                                                         1.196021       0.008965
                                                         3.944817       0.072370
                                                         4.585536       0.000000
                          1      12    6dyz              0.030000       0.000025
                                                         0.048448       0.000619
                                                         0.169547       0.088308
                                                         0.472314       0.288949
                                                         1.196021       0.015528
                                                         3.944817       0.125348
                                                         4.585536       0.000000
                          1      12    6dz2              0.030000       0.000014
                                                         0.048448       0.000357
                                                         0.169547       0.050985
                                                         0.472314       0.166825
                                                         1.196021       0.008965
                                                         3.944817       0.072370
                                                         4.585536       0.000000

                          1      13    5fx3              0.030000      -0.000066
                                                         0.048448       0.000144
                                                         0.169547       0.010050
                                                         0.472314       0.163827
                                                         1.196021       0.344751
                                                         3.944817       5.054211
                                                         4.585536       0.000000
                          1      13    5fx2y             0.030000      -0.000149
                                                         0.048448       0.000322
                                                         0.169547       0.022471
                                                         0.472314       0.366329
                                                         1.196021       0.770886
                                                         3.944817      11.301558
                                                         4.585536       0.000000
                          1      13    5fx2z             0.030000      -0.000149
                                                         0.048448       0.000322
                                                         0.169547       0.022471
                                                         0.472314       0.366329
                                                         1.196021       0.770886
                                                         3.944817      11.301558
                                                         4.585536       0.000000
                          1      13    5fxy2             0.030000      -0.000149
                                                         0.048448       0.000322
                                                         0.169547       0.022471
                                                         0.472314       0.366329
                                                         1.196021       0.770886
                                                         3.944817      11.301558
                                                         4.585536       0.000000
                          1      13    5fxyz             0.030000      -0.000258
                                                         0.048448       0.000558
                                                         0.169547       0.038922
                                                         0.472314       0.634501
                                                         1.196021       1.335214
                                                         3.944817      19.574873
                                                         4.585536       0.000000
                          1      13    5fxz2             0.030000      -0.000149
                                                         0.048448       0.000322
                                                         0.169547       0.022471
                                                         0.472314       0.366329
                                                         1.196021       0.770886
                                                         3.944817      11.301558
                                                         4.585536       0.000000
                          1      13    5fy3              0.030000      -0.000066
                                                         0.048448       0.000144
                                                         0.169547       0.010050
                                                         0.472314       0.163827
                                                         1.196021       0.344751
                                                         3.944817       5.054211
                                                         4.585536       0.000000
                          1      13    5fy2z             0.030000      -0.000149
                                                         0.048448       0.000322
                                                         0.169547       0.022471
                                                         0.472314       0.366329
                                                         1.196021       0.770886
                                                         3.944817      11.301558
                                                         4.585536       0.000000
                          1      13    5fyz2             0.030000      -0.000149
                                                         0.048448       0.000322
                                                         0.169547       0.022471
                                                         0.472314       0.366329
                                                         1.196021       0.770886
                                                         3.944817      11.301558
                                                         4.585536       0.000000
                          1      13    5fz3              0.030000      -0.000066
                                                         0.048448       0.000144
                                                         0.169547       0.010050
                                                         0.472314       0.163827
                                                         1.196021       0.344751
                                                         3.944817       5.054211
                                                         4.585536       0.000000

       Atomic covalent radius [Angstrom]:                                  1.740

       Atomic van der Waals radius [Angstrom]:                             2.310

     GTH Potential information for                                       GTH-PBE

       Description:                       Goedecker-Teter-Hutter pseudopotential
                                           Goedecker et al., PRB 54, 1703 (1996)
                                          Hartwigsen et al., PRB 58, 3641 (1998)
                                                      Krack, TCA 114, 145 (2005)

       Gaussian exponent of the core charge distribution:               3.287311
       Electronic configuration (s p d ...):                               4   6

       Parameters of the local part of the GTH pseudopotential:

                          rloc        C1          C2          C3          C4
                        0.390000   -4.167072   -1.583798

       Parameters of the non-local part of the GTH (SOC) pseudopotential:

                   l      r(l)      h(i,j,l)
                                    k(i,j,l)
                   0    0.289356   20.531876   -7.129786
                                   -7.129786    9.204514
                   1    0.327882    5.805605   -0.428753
                                   -0.428753    0.507308
                                    0.159923   -0.199679
                                   -0.199679    0.236263
                   2    0.679617    0.058068
                                    0.000465


 MOLECULE KIND INFORMATION


 All atoms are their own molecule, skipping detailed information


 TOTAL NUMBERS AND MAXIMUM NUMBERS

  Total number of            - Atomic kinds:                                   1
                             - Atoms:                                          4
                             - Shell sets:                                     4
                             - Shells:                                        52
                             - Primitive Cartesian functions:                 28
                             - Cartesian basis functions:                    180
                             - Spherical basis functions:                    156

  Maximum angular momentum of- Orbital basis functions:                        3
                             - Local part of the GTH pseudopotential:          2
                             - Non-local part of the GTH pseudopotential:      3


 MODULE QUICKSTEP: ATOMIC COORDINATES IN ANGSTROM

   Atom Kind Element         X             Y             Z       Z(eff)     Mass
      1    1 Ca   20      0.000000      0.000000      0.000000  10.0000  40.0780
      2    1 Ca   20      0.000000      2.762535      2.762535  10.0000  40.0780
      3    1 Ca   20      2.762535      0.000000      2.762535  10.0000  40.0780
      4    1 Ca   20      2.762535      2.762535      0.000000  10.0000  40.0780



 SCF PARAMETERS         Density guess:                                    ATOMIC
                        --------------------------------------------------------
                        max_scf:                                             500
                        max_scf_history:                                       0
                        max_diis:                                              4
                        --------------------------------------------------------
                        eps_scf:                                        1.00E-09
                        eps_scf_history:                                0.00E+00
                        eps_diis:                                       1.00E-01
                        eps_eigval:                                     1.00E-05
                        --------------------------------------------------------
                        level_shift [a.u.]:                             0.000000
                        added MOs                                       136    0
                        --------------------------------------------------------
                        Mixing method:                            BROYDEN_MIXING
                                                charge density mixing in g-space
                        --------------------------------------------------------
                        Smear method:                                FERMI_DIRAC
                        Electronic temperature [K]:                        300.0
                        Electronic temperature [a.u.]:                  9.50E-04
                        Accuracy threshold:                             1.00E-10
                        --------------------------------------------------------
                        No outer SCF

 PW_GRID| Information for grid number                                          1
 PW_GRID| Grid distributed over                                    16 processors
 PW_GRID| Real space group dimensions                                    16    1
 PW_GRID| the grid is blocked:                                                NO
 PW_GRID| Cutoff [a.u.]                                                    500.0
 PW_GRID| spherical cutoff:                                                   NO
 PW_GRID|   Bounds   1            -54      53                Points:         108
 PW_GRID|   Bounds   2            -54      53                Points:         108
 PW_GRID|   Bounds   3            -54      53                Points:         108
 PW_GRID| Volume element (a.u.^3)  0.9035E-03     Volume (a.u.^3)      1138.1774
 PW_GRID| Grid span                                                    FULLSPACE
 PW_GRID|   Distribution                         Average         Max         Min
 PW_GRID|   G-Vectors                            78732.0       78732       78732
 PW_GRID|   G-Rays                                 729.0         729         729
 PW_GRID|   Real Space Points                    78732.0       81648       69984

 PW_GRID| Information for grid number                                          2
 PW_GRID| Number of the reference grid                                         1
 PW_GRID| Grid distributed over                                    16 processors
 PW_GRID| Real space group dimensions                                    16    1
 PW_GRID| the grid is blocked:                                                NO
 PW_GRID| Cutoff [a.u.]                                                    166.7
 PW_GRID| spherical cutoff:                                                   NO
 PW_GRID|   Bounds   1            -32      31                Points:          64
 PW_GRID|   Bounds   2            -32      31                Points:          64
 PW_GRID|   Bounds   3            -32      31                Points:          64
 PW_GRID| Volume element (a.u.^3)  0.4342E-02     Volume (a.u.^3)      1138.1774
 PW_GRID| Grid span                                                    FULLSPACE
 PW_GRID|   Distribution                         Average         Max         Min
 PW_GRID|   G-Vectors                            16384.0       16448       16320
 PW_GRID|   G-Rays                                 256.0         257         255
 PW_GRID|   Real Space Points                    16384.0       16384       16384

 PW_GRID| Information for grid number                                          3
 PW_GRID| Number of the reference grid                                         1
 PW_GRID| Grid distributed over                                    16 processors
 PW_GRID| Real space group dimensions                                    16    1
 PW_GRID| the grid is blocked:                                                NO
 PW_GRID| Cutoff [a.u.]                                                     55.6
 PW_GRID| spherical cutoff:                                                   NO
 PW_GRID|   Bounds   1            -18      17                Points:          36
 PW_GRID|   Bounds   2            -18      17                Points:          36
 PW_GRID|   Bounds   3            -18      17                Points:          36
 PW_GRID| Volume element (a.u.^3)  0.2440E-01     Volume (a.u.^3)      1138.1774
 PW_GRID| Grid span                                                    FULLSPACE
 PW_GRID|   Distribution                         Average         Max         Min
 PW_GRID|   G-Vectors                             2916.0        2952        2880
 PW_GRID|   G-Rays                                  81.0          82          80
 PW_GRID|   Real Space Points                     2916.0        3888        2592

 PW_GRID| Information for grid number                                          4
 PW_GRID| Number of the reference grid                                         1
 PW_GRID| Grid distributed over                                    16 processors
 PW_GRID| Real space group dimensions                                    16    1
 PW_GRID| the grid is blocked:                                                NO
 PW_GRID| Cutoff [a.u.]                                                     18.5
 PW_GRID| spherical cutoff:                                                   NO
 PW_GRID|   Bounds   1            -12      11                Points:          24
 PW_GRID|   Bounds   2            -12      11                Points:          24
 PW_GRID|   Bounds   3            -12      11                Points:          24
 PW_GRID| Volume element (a.u.^3)  0.8233E-01     Volume (a.u.^3)      1138.1774
 PW_GRID| Grid span                                                    FULLSPACE
 PW_GRID|   Distribution                         Average         Max         Min
 PW_GRID|   G-Vectors                              864.0         912         840
 PW_GRID|   G-Rays                                  36.0          38          35
 PW_GRID|   Real Space Points                      864.0        1152         576

 POISSON| Solver                                                        PERIODIC
 POISSON| Periodicity                                                        XYZ

 RS_GRID| Information for grid number                                          1
 RS_GRID|   Bounds   1            -54      53                Points:         108
 RS_GRID|   Bounds   2            -54      53                Points:         108
 RS_GRID|   Bounds   3            -54      53                Points:         108
 RS_GRID| Real space fully replicated
 RS_GRID| Group size                                                           1

 RS_GRID| Information for grid number                                          2
 RS_GRID|   Bounds   1            -32      31                Points:          64
 RS_GRID|   Bounds   2            -32      31                Points:          64
 RS_GRID|   Bounds   3            -32      31                Points:          64
 RS_GRID| Real space fully replicated
 RS_GRID| Group size                                                           1

 RS_GRID| Information for grid number                                          3
 RS_GRID|   Bounds   1            -18      17                Points:          36
 RS_GRID|   Bounds   2            -18      17                Points:          36
 RS_GRID|   Bounds   3            -18      17                Points:          36
 RS_GRID| Real space fully replicated
 RS_GRID| Group size                                                           1

 RS_GRID| Information for grid number                                          4
 RS_GRID|   Bounds   1            -12      11                Points:          24
 RS_GRID|   Bounds   2            -12      11                Points:          24
 RS_GRID|   Bounds   3            -12      11                Points:          24
 RS_GRID| Real space fully replicated
 RS_GRID| Group size                                                           1

 Number of electrons:                                                         40
 Number of occupied orbitals:                                                 20
 Number of molecular orbitals:                                               156

 Number of orbital functions:                                                156
 Number of independent orbital functions:                                    156

 Extrapolation method: initial_guess

 Atomic guess: The first density matrix is obtained in terms of atomic orbitals
               and electronic configurations assigned to each atomic kind

 Guess for atomic kind: Ca

 Electronic structure
    Total number of core electrons                                         10.00
    Total number of valence electrons                                      10.00
    Total number of electrons                                              20.00
    Multiplicity                                                   not specified
    S   [  2.00  2.00] 2.00  2.00
    P   [  6.00] 6.00


 *******************************************************************************
                  Iteration          Convergence                     Energy [au]
 *******************************************************************************
                          1        0.260638                     -36.441072509130
                          2        0.112816                     -36.450806445360
                          3        0.785945E-02                 -36.453090649298
                          4        0.206394E-04                 -36.453113379085
                          5        0.289375E-06                 -36.453113379163

 Energy components [Hartree]           Total Energy ::          -36.453113379163
                                        Band Energy ::           -9.770177366562
                                     Kinetic Energy ::           13.037791159695
                                   Potential Energy ::          -49.490904538858
                                      Virial (-V/T) ::            3.795957760994
                                        Core Energy ::          -59.816742779015
                                          XC Energy ::           -4.815644693061
                                     Coulomb Energy ::           28.179274092913
                       Total Pseudopotential Energy ::          -72.916812479045
                       Local Pseudopotential Energy ::          -81.170854535351
                    Nonlocal Pseudopotential Energy ::            8.254042056306
                                        Confinement ::            0.622785403346

 Orbital energies  State     L     Occupation   Energy[a.u.]          Energy[eV]

                       1     0          2.000      -1.734994          -47.211575
                       2     0          2.000      -0.110453           -3.005587

                       1     1          6.000      -1.013214          -27.570954


 Total Electron Density at R=0:                                         0.000088
 Re-scaling the density matrix to get the right number of electrons
                  # Electrons              Trace(P)               Scaling factor
                           40                40.000                        1.000


 SCF WAVEFUNCTION OPTIMIZATION

  Step     Update method      Time    Convergence         Total energy    Change
  ------------------------------------------------------------------------------
     1 NoMix/Diag. 0.10E+00    8.6     3.54288139      -147.2599849135 -1.47E+02
     2 Broy./Diag. 0.10E+00    8.9     0.00980657      -146.2248288526  1.04E+00
     3 Broy./Diag. 0.10E+00    8.8     0.11171168      -146.5733701728 -3.49E-01
     4 Broy./Diag. 0.10E+00    8.9     0.00736961      -146.9522319125 -3.79E-01
     5 Broy./Diag. 0.10E+00    8.9     0.04329609      -146.8955358651  5.67E-02
     6 Broy./Diag. 0.10E+00    8.9     0.00106679      -146.8644898969  3.10E-02
     7 Broy./Diag. 0.10E+00    8.9     0.00661983      -146.8693164442 -4.83E-03
     8 Broy./Diag. 0.10E+00    8.8     0.00051453      -146.8626491468  6.67E-03
     9 Broy./Diag. 0.10E+00    9.0     0.00460141      -146.8623337205  3.15E-04
    10 Broy./Diag. 0.10E+00    8.8     0.00010320      -146.8599180718  2.42E-03
    11 Broy./Diag. 0.10E+00    8.8     0.00074134      -146.8601945168 -2.76E-04
    12 Broy./Diag. 0.10E+00    8.9     0.00000244      -146.8601331442  6.14E-05
    13 Broy./Diag. 0.10E+00    8.9     0.00004230      -146.8599596742  1.73E-04
    14 Broy./Diag. 0.10E+00    8.8     0.00000226      -146.8598555027  1.04E-04
    15 Broy./Diag. 0.10E+00    8.8     0.00002635      -146.8598640166 -8.51E-06
[...]
 -------------------------------------------------------------------------------

 MEMORY| Estimated peak process memory [MiB]                                 651

 -------------------------------------------------------------------------------
 ----                             MULTIGRID INFO                            ----
 -------------------------------------------------------------------------------
 count for grid        1:         276352          cutoff [a.u.]          500.00
 count for grid        2:         107492          cutoff [a.u.]          166.67
 count for grid        3:          89068          cutoff [a.u.]           55.56
 count for grid        4:         158412          cutoff [a.u.]           18.52
 total gridlevel count  :         631324

 -------------------------------------------------------------------------------
 -                                                                             -
 -                         MESSAGE PASSING PERFORMANCE                         -
 -                                                                             -
 -------------------------------------------------------------------------------

 ROUTINE             CALLS      AVE VOLUME [Bytes]
 MP_Group                6
 MP_Bcast           317091                   1151.
 MP_Allreduce       179145                     72.
 MP_Sync                 4
 MP_Alltoall           617                3554854.
 MP_SendRecv          2130                 212440.
 MP_ISendRecv         2055                 209407.
 MP_Wait            216731
 MP_comm_split           4
 MP_ISend           221500                   2921.
 MP_IRecv           370452                   1757.
 -------------------------------------------------------------------------------


 -------------------------------------------------------------------------------
 -                                                                             -
 -                           R E F E R E N C E S                               -
 -                                                                             -
 -------------------------------------------------------------------------------
 
 CP2K version 2025.1 (Development Version), the CP2K developers group (2025).
 CP2K is freely available from https://www.cp2k.org/ .
 
 T. D. Kuehne, M. Iannuzzi, M. Del Ben, V. V. Rybkin, P. Seewald, F. Stein, T. 
 Laino, R. Z. Khaliullin, O. Schuett, F. Schiffmann, D. Golze, J. Wilhelm, S. 
 Chulkov, M. H. Bani-Hashemian, V. Weber, U. Borstnik, M. Taillefumier, A. S. 
 Jakobovits, A. Lazzaro, H. Pabst, T. Mueller, R. Schade, M. Guidon, S. 
 Andermatt, N. Holmberg, G. K. Schenter, A. Hehn, A. Bussy, F. Belleflamme, G. 
 Tabacchi, A. Gloess, M. Lass, I. Bethune, C. J. Mundy, C. Plessl, M. Watkins, 
 J. VandeVondele, M. Krack, J. Hutter.
 J. Chem. Phys. 152, 194103 (2020).
 CP2K: An electronic structure and molecular dynamics software package - 
 Quickstep: Efficient and accurate electronic structure calculations.
 https://doi.org/10.1063/5.0007045

 O. Schuett, P. Messmer, J. Hutter, J. VandeVondele.
 Electronic Structure Calculations on Graphics Processing Units, 173-190 (2016).
 GPU-Accelerated Sparse Matrix-Matrix Multiplication for Linear Scaling Density 
 Functional Theory.
 https://doi.org/10.1002/9781118670712.ch8

 J. Hutter, M. Iannuzzi, F. Schiffmann, J. VandeVondele.
 WIREs Comput Mol Sci. 4, 15-25 (2014).
 CP2K: atomistic simulations of condensed matter systems.
 https://doi.org/10.1002/wcms.1159

 U. Borstnik, J. VandeVondele, V. Weber, J. Hutter.
 Parallel Comput. 40, 47-58 (2014).
 Sparse matrix multiplication: The distributed block-compressed sparse row 
 library.
 https://doi.org/10.1016/j.parco.2014.03.012

 J. VandeVondele, J. Hutter.
 J. Chem. Phys. 127, 114105 (2007).
 Gaussian basis sets for accurate calculations on molecular systems in gas and 
 condensed phases.
 https://doi.org/10.1063/1.2770708

 J. VandeVondele, M. Krack, F. Mohamed, M. Parrinello, T. Chassaing, J. Hutter.
 Comput. Phys. Commun. 167, 103-128 (2005).
 QUICKSTEP: Fast and accurate density functional calculations using a mixed 
 Gaussian and plane waves approach.
 https://doi.org/10.1016/j.cpc.2004.12.014

 M. Krack.
 Theor. Chem. Acc. 114, 145-152 (2005).
 Pseudopotentials for H to Kr optimized for gradient-corrected 
 exchange-correlation functionals.
 https://doi.org/10.1007/s00214-005-0655-y

 M. Frigo, S. G. Johnson.
 Proc. IEEE 93, 216-231 (2005).
 The design and implementation of FFTW3.
 https://doi.org/10.1109/JPROC.2004.840301

 C. Hartwigsen, S. Goedecker, J. Hutter.
 Phys. Rev. B 58, 3641-3662 (1998).
 Relativistic separable dual-space Gaussian pseudopotentials from H to Rn.
 https://doi.org/10.1103/PhysRevB.58.3641

 G. Lippert, J. Hutter, M. Parrinello.
 Mol. Phys. 92, 477-487 (1997).
 A hybrid Gaussian and plane wave density functional scheme.
 https://doi.org/10.1080/002689797170220

 S. Goedecker, M. Teter, J. Hutter.
 Phys. Rev. B 54, 1703-1710 (1996).
 Separable dual-space Gaussian pseudopotentials.
 https://doi.org/10.1103/PhysRevB.54.1703

 J. P. Perdew, K. Burke, M. Ernzerhof.
 Phys. Rev. Lett. 77, 3865-3868 (1996).
 Generalized gradient approximation made simple.
 https://doi.org/10.1103/PhysRevLett.77.3865


 -------------------------------------------------------------------------------
 -                                                                             -
 -                                T I M I N G                                  -
 -                                                                             -
 -------------------------------------------------------------------------------
 SUBROUTINE                       CALLS  ASD         SELF TIME        TOTAL TIME
                                MAXIMUM       AVERAGE  MAXIMUM  AVERAGE  MAXIMUM
 CP2K                                 1  1.0    0.016    0.020  312.221  312.221
 qs_energies                          1  2.0    0.010    0.065  311.954  311.998
 scf_env_do_scf                       1  3.0    0.000    0.000  305.955  305.955
 scf_env_do_scf_inner_loop           34  4.0    0.053    0.057  305.955  305.955
 do_general_diag_kp                  35  5.9    0.218    0.255  271.214  284.501
 qs_scf_new_mos_kp                   34  5.0    0.000    0.000  267.539  280.779
 mp_alltoall_i22                 130612  8.8   94.390  232.227   94.390  232.227
 dbcsr_desymmetrize_deep          74306  7.4    1.272    1.419   74.520  173.327
 rskp_transform                   17704  6.9   84.876  139.234   84.876  139.234
 dbcsr_complete_redistribute      56306  8.2    2.294    2.533   46.064   84.997
 kpoint_density_transform            34  7.0    0.109    0.129   76.520   76.816
 copy_fm_to_dbcsr                 17408  8.0    0.110    0.123   31.228   69.771
 transform_dmat                    8704  8.0   38.643   63.720   38.643   63.720
 qs_ks_update_qs_env                 34  5.0    0.000    0.000   17.377   25.511
 copy_dbcsr_to_fm                 38898  6.9    0.444    0.475   23.903   24.318
 rebuild_ks_matrix                   34  6.0    0.000    0.000   15.133   23.267
 qs_ks_build_kohn_sham_matrix        34  7.0    0.100    0.105   15.133   23.266
 sum_up_and_integrate                34  8.0    0.000    0.001   13.965   22.063
 integrate_v_rspace                  34  9.0    0.112    0.189   13.964   22.062
 grid_integrate_task_list            34 10.0   13.279   21.345   13.279   21.345
 transfer_rs2pw                     142  8.0    0.002    0.002    6.714   15.798
 transfer_rs2pw_500                  37  8.9    0.162    0.170    6.552   15.631
 mp_sendrecv_dv                    2130 10.0    6.503   15.597    6.503   15.597
 qs_rho_update_rho_low               35  5.0    0.000    0.000   15.309   15.365
 calculate_rho_elec                  35  6.0    0.040    0.067   15.308   15.365
 density_rs2pw                       35  7.0    0.001    0.002    6.436   15.014
 grid_collocate_task_list            35  7.0    8.828   14.241    8.828   14.241
 cp_fm_start_copy_general         52816  7.3    1.251    1.634   11.569   11.860
 cp_cfm_geeig_canon                 581  6.8    0.007    0.008    9.434    9.539
 cp_cfm_heevd                      1162  7.8    0.002    0.002    8.154    8.253
 cp_cfm_heevd_base                 1162  8.8    8.152    8.251    8.152    8.251
 mp_allgather_i                  105632  8.3    7.910    8.241    7.910    8.241
 dbcsr_finalize                  158944  8.3    0.681    0.726    4.768    5.119
 mp_alltoall_d11v                391836  9.3    4.546    4.875    4.546    4.875
 mp_cart_sub                      77798  8.9    4.463    4.504    4.463    4.504
 write_kpoints_restart               34  5.0    0.014    0.020    3.873    3.873
 hybrid_alltoall_any              74306  8.4    0.315    0.336    2.799    3.036
 mp_alltoall_i11v                243224  9.0    2.845    2.962    2.845    2.962
 dbcsr_merge_all                  56306 10.2    1.402    1.724    2.589    2.910
 mp_cart_create                   38905  8.9    2.481    2.559    2.481    2.559
 dbcsr_dot                       118661  8.0    0.689    0.852    2.250    2.404
 evaluate_core_matrix_traces         34  6.0    0.000    0.000    2.244    2.244
 calculate_ptrace_kp                 68  7.0    0.087    0.090    2.243    2.243
 kpoint_set_mo_occupation            34  7.0    1.919    1.937    2.116    2.191
 cp_fm_write_unformatted           3490  6.0    0.953    1.680    1.049    1.881
 mp_sum_d                        119355  9.0    1.303    1.807    1.303    1.807
 mp_bcast_iv                     211288  8.3    1.579    1.709    1.579    1.709
 kpoint_density_matrices             34  7.0    0.021    0.023    1.389    1.657
 parallel_gemm_fm                  2176  8.0    0.002    0.003    1.348    1.616
 parallel_gemm_fm_gemm             2176  9.0    0.002    0.002    1.346    1.613
 cp_fm_gemm                        2176 10.0    1.344    1.611    1.344    1.611
 self_consistency_check              34  5.0    0.084    0.088    1.341    1.493
 dbcsr_create_new                318035  7.9    1.130    1.202    1.393    1.490
 dbcsr_work_create               130612  8.8    0.814    0.851    1.353    1.433
 dbcsr_copy                      137813  6.8    0.737    0.808    1.224    1.359
 cp_sm_mix                        59330  6.0    0.262    0.346    1.127    1.336
 cp_cfm_gemm                       1743  7.8    1.222    1.237    1.222    1.237
 qs_energies_init_hamiltonians        1  3.0    0.000    0.000    1.207    1.207
 dbcsr_iterator_start            535574  8.8    0.965    0.993    1.149    1.169
 dbcsr_data_new                 1417802  9.7    0.975    1.074    0.975    1.074
 mp_max_d                         59332  7.0    0.725    1.062    0.725    1.062
 dbcsr_work_destroy_all          130612  9.8    0.631    0.648    0.992    1.017
 build_core_hamiltonian_matrix        1  4.0    0.006    0.007    0.616    1.004
 tree_to_linear_d                 56306 11.2    0.937    0.984    0.937    0.984
 cp_fm_finish_copy_general        19732  7.9    0.858    0.880    0.899    0.939
 qs_env_update_s_mstruct              1  4.0    0.000    0.000    0.514    0.923
 copy_dbcsr_to_fm_bc              38898  7.9    0.424    0.448    0.891    0.909
 calculate_rho_core                   1  5.0    0.001    0.002    0.407    0.906
 copy_fm_to_dbcsr_bc              17408  9.0    0.248    0.277    0.832    0.901
 cp_dbcsr_alloc_block_from_nbl    12421  5.0    0.462    0.733    0.566    0.891
 dbcsr_data_release             2101988 10.0    0.838    0.884    0.838    0.884
 fft_wrap_pw1pw2                    617 10.0    0.005    0.006    0.741    0.792
 dbcsr_iterator_stop             535574  8.8    0.621    0.632    0.748    0.764
 init_scf_run                         1  3.0    0.000    0.000    0.589    0.740
 scf_env_initial_rho_setup            1  4.0    0.000    0.000    0.589    0.740
 dbcsr_destroy                   199375  7.9    0.346    0.365    0.684    0.737
 fft_wrap_pw1pw2_500                410 11.3    0.054    0.056    0.671    0.724
 fft3d_ps                           617 12.0    0.260    0.273    0.592    0.644
 mp_send_dv                        3490  7.0    0.083    0.634    0.083    0.634
 potential_pw2rs                     34 10.0    0.002    0.002    0.573    0.625
 mp_waitall_1                    216731  8.4    0.308    0.526    0.308    0.526
 dbcsr_set                       220981  7.5    0.205    0.215    0.417    0.519
 qs_vxc_create                       34  8.0    0.001    0.001    0.502    0.505
 xc_vxc_pw_create                    34  9.0    0.022    0.023    0.502    0.504
 mp_bcast_im                     105632  8.3    0.468    0.480    0.468    0.480
 quick_finalize                   74306  9.4    0.242    0.253    0.453    0.474
 transfer_pw2rs                     137 11.0    0.001    0.001    0.457    0.459
 gspace_mixing                       33  5.0    0.019    0.019    0.451    0.451
 mp_comm_free                    116737  8.9    0.384    0.430    0.384    0.430
 broyden_mixing                      33  6.0    0.362    0.369    0.373    0.375
 dbcsr_copy_into_existing         19153  9.6    0.178    0.229    0.288    0.342
 transfer_pw2rs_500                  35 11.9    0.181    0.193    0.327    0.337
 mp_alltoall_z22v                   617 14.0    0.271    0.335    0.271    0.335
 xc_pw_derive                       204 11.0    0.001    0.001    0.312    0.329
 dbcsr_zero                      220981  8.5    0.212    0.303    0.212    0.303
 mixing_allocate                      1  3.0    0.010    0.011    0.187    0.281
 mp_sum_dm3                          34  8.0    0.198    0.279    0.198    0.279
 dbcsr_reserve_blocks             29829  8.9    0.187    0.251    0.211    0.278
 xc_rho_set_and_dset_create          34 10.0    0.014    0.017    0.268    0.276
 mp_isend_dv                      54592  8.3    0.244    0.267    0.244    0.267
 build_core_ppnl                      1  5.0    0.148    0.262    0.148    0.262
 calculate_first_density_matrix       1  5.0    0.001    0.001    0.103    0.253
 calculate_atomic_block_dm            1  6.0    0.001    0.001    0.098    0.250
 xc_pw_divergence                    34 10.0    0.000    0.000    0.207    0.221
 build_core_ppl                       1  5.0    0.113    0.217    0.113    0.217
 yz_to_x                            277 12.8    0.019    0.022    0.164    0.217
 dbcsr_iterator_seek             535574  9.8    0.184    0.206    0.184    0.206
 mp_recv_dv                       10470  7.0    0.013    0.201    0.013    0.201
 dbcsr_make_index_exist          318035  8.9    0.170    0.186    0.170    0.186
 build_overlap_matrix_low             1  5.0    0.032    0.050    0.118    0.181
 dbcsr_sort_indices              160441 10.7    0.161    0.181    0.161    0.181
 build_kinetic_matrix_low             1  5.0    0.031    0.048    0.115    0.178
 x_to_yz                            340 13.2    0.036    0.038    0.163    0.170
 dbcsr_reserve_all_blocks         17408 10.0    0.029    0.034    0.142    0.158
 calculate_ecore_overlap              1  4.0    0.000    0.000    0.065    0.154
 qs_env_rebuild_rho                   1  5.0    0.000    0.000    0.093    0.150
 qs_rho_rebuild                       1  6.0    0.005    0.005    0.093    0.150
 mp_sum_dv                          329  3.4    0.089    0.147    0.089    0.147
 transfer_rs2pw_170                  35  9.0    0.039    0.041    0.129    0.135
 merge_index                      56306 11.2    0.110    0.126    0.110    0.126
 mp_sum_iv                           24  5.3    0.047    0.122    0.047    0.122
 qs_scf_ensure_work_matrices          1  3.0    0.000    0.000    0.047    0.122
 dbcsr_switch_data_area           74306 10.4    0.074    0.076    0.105    0.108
 mp_irecv_iv                     211264  8.3    0.007    0.108    0.007    0.108
 scf_post_calculation_gpw             1  3.0    0.000    0.000    0.107    0.107
 write_available_results              1  4.0    0.000    0.000    0.107    0.107
 write_mo_free_results                1  5.0    0.001    0.001    0.107    0.107
 xc_functional_eval                  34 11.0    0.000    0.000    0.094    0.101
 pbe_lda_eval                        34 12.0    0.094    0.100    0.094    0.100
 transfer_pw2rs_170                  34 12.0    0.046    0.050    0.094    0.099
 mp_isendrecv_dv                   2055 13.0    0.041    0.099    0.041    0.099
 parser_read_line                  5256  4.1    0.002    0.002    0.083    0.084
 parser_read_line_low                23  6.2    0.006    0.031    0.081    0.083
 cp_fm_cleanup_copy_general       36496  7.0    0.055    0.056    0.080    0.082
 cp_cfm_scale_and_add_fm           2324  6.8    0.080    0.082    0.080    0.082
 broadcast_input_information         23  7.2    0.027    0.029    0.074    0.078
 mp_isend_iv                     112456  8.3    0.010    0.073    0.010    0.073
 dbcsr_data_copy_aa2              56306 11.1    0.055    0.069    0.055    0.069
 topology_control                     1  2.0    0.000    0.000    0.064    0.064
 dbcsr_make_dbcsr_index          160441 10.7    0.055    0.061    0.055    0.061
 restraint_control                    1  2.0    0.000    0.000    0.044    0.060
 mp_sum_i                             4  2.8    0.044    0.060    0.044    0.060
 dbcsr_distribution_new           56308  8.5    0.051    0.059    0.051    0.059
 dbcsr_get_data_size_used        130612  9.8    0.052    0.058    0.052    0.058
 qs_init_subsys                       1  2.0    0.002    0.002    0.053    0.053
 mp_irecv_im2                    105632  8.3    0.003    0.052    0.003    0.052
 create_qs_kind_set                   1  2.0    0.000    0.000    0.051    0.051
 read_qs_kind                         1  3.0    0.026    0.028    0.051    0.051
 qs_env_setup                         1  3.0    0.000    0.000    0.050    0.051
 qs_env_rebuild_pw_env                2  3.5    0.000    0.000    0.050    0.050
 pw_env_rebuild                       1  5.0    0.000    0.001    0.049    0.050
 pw_scatter_p                       340 12.2    0.047    0.048    0.047    0.048
 calculate_hirshfeld_normalizat       1  6.0    0.006    0.026    0.044    0.048
 pw_poisson_solve                    34  8.0    0.000    0.000    0.047    0.047
 read_cell_cif                        2  4.5    0.002    0.005    0.043    0.044
 fft_wrap_pw1pw2_170                 69 10.5    0.003    0.003    0.039    0.043
 hirshfeld_integration                1  6.0    0.008    0.034    0.042    0.042
 coordinate_control                   1  3.0    0.001    0.002    0.040    0.040
 coordinate_control_READ_COORDI       1  4.0    0.000    0.000    0.039    0.040
 read_coordinate_cif                  1  5.0    0.002    0.002    0.039    0.040
 mp_comm_size                    119767  9.0    0.031    0.038    0.031    0.038
 mp_isend_im2                     56228  8.3    0.005    0.034    0.005    0.034
 cp_cfm_to_fm                       581  6.8    0.032    0.033    0.032    0.033
 mp_bcast_i_src                      92  8.2    0.029    0.033    0.029    0.033
 mp_irecv_dv                      53556  8.3    0.031    0.033    0.031    0.033
 -------------------------------------------------------------------------------

 The number of warnings for this run is : 1
 
 -------------------------------------------------------------------------------
  **** **** ******  **  PROGRAM ENDED AT                 2025-08-05 21:33:58.637
 ***** ** ***  *** **   PROGRAM RAN ON                              i04r01c05s01
 **    ****   ******    PROGRAM RAN BY                                   di38fab
 ***** **    ** ** **   PROGRAM PROCESS ID                               2883054
  **** **  *******  **  PROGRAM STOPPED IN /hppfs/scratch/04/di38fab/09_GTH/Delt
                                           a_Set/Ca/aug-TZVP-MOLOPT-GTH-tier-2/8
                                           x8x8
