V                                       
   1.00000000000000     
     2.998940    0.000000    0.000000
     0.000000    2.998940    0.000000
     0.000000    0.000000    2.998940
   V 
     2
Direct
  0.000000  0.000000  0.000000
  0.500000  0.500000  0.500000
 
   28   28   28
  394.91      381.47      342.02      280.74      207.22      135.16      77.087      39.036      19.312      11.442    
  8.4583      7.1674      6.6388      6.4187      6.3530      6.4187      6.6388      7.1674      8.4583      11.442    
  19.312      39.036      77.087      135.16      207.22      280.74      342.02      381.47      381.47      368.28    
  329.69      270.01      198.76      129.27      73.568      37.295      18.647      11.254      8.3959      7.1518    
  6.6402      6.4265      6.3629      6.4265      6.6402      7.1518      8.3959      11.254      18.647      37.295    
  73.568      129.27      198.76      270.01      329.69      368.28      342.02      329.69      293.87      239.14    
  174.69      112.72      63.801      32.547      16.875      10.745      8.2222      7.1082      6.6439      6.4487    
  6.3906      6.4487      6.6439      7.1082      8.2222      10.745      16.875      32.547      63.801      112.72    
  174.69      239.14      293.87      329.69      280.74      270.01      239.14      192.74      139.19      88.825    
  50.065      26.105      14.577      10.035      7.9722      7.0441      6.6487      6.4808      6.4311      6.4808    
  6.6487      7.0441      7.9722      10.035      14.577      26.105      50.065      88.825      139.19      192.74    
  239.14      270.01      207.22      198.76      174.69      139.19      99.211      62.694      35.622      19.692    
  12.394      9.2496      7.6911      6.9697      6.6529      6.5166      6.4766      6.5166      6.6529      6.9697    
  7.6911      9.2496      12.394      19.692      35.622      62.694      99.211      139.19      174.69      198.76    
  135.16      129.27      112.72      88.825      62.694      39.752      23.617      14.717      10.631      8.5129    
  7.4201      6.8940      6.6536      6.5485      6.5179      6.5485      6.6536      6.8940      7.4201      8.5129    
  10.631      14.717      23.617      39.752      62.694      88.825      112.72      129.27      77.087      73.568    
  63.801      50.065      35.622      23.617      15.743      11.555      9.2345      7.9022      7.1862      6.8230    
  6.6481      6.5695      6.5466      6.5695      6.6481      6.8230      7.1862      7.9022      9.2345      11.555    
  15.743      23.617      35.622      50.065      63.801      73.568      39.036      37.295      32.547      26.105    
  19.692      14.717      11.555      9.5249      8.2214      7.4423      6.9996      6.7587      6.6338      6.5745    
  6.5569      6.5745      6.6338      6.7587      6.9996      7.4423      8.2214      9.5249      11.555      14.717    
  19.692      26.105      32.547      37.295      19.312      18.647      16.875      14.577      12.394      10.631    
  9.2345      8.2214      7.5453      7.1180      6.8563      6.6995      6.6087      6.5614      6.5466      6.5614    
  6.6087      6.6995      6.8563      7.1180      7.5453      8.2214      9.2345      10.631      12.394      14.577    
  16.875      18.647      11.442      11.254      10.745      10.035      9.2496      8.5129      7.9022      7.4423    
  7.1180      6.8966      6.7457      6.6421      6.5726      6.5315      6.5179      6.5315      6.5726      6.6421    
  6.7457      6.8966      7.1180      7.4423      7.9022      8.5129      9.2496      10.035      10.745      11.254    
  8.4583      8.3959      8.2222      7.9722      7.6911      7.4201      7.1862      6.9996      6.8563      6.7457    
  6.6572      6.5845      6.5273      6.4898      6.4766      6.4898      6.5273      6.5845      6.6572      6.7457    
  6.8563      6.9996      7.1862      7.4201      7.6911      7.9722      8.2222      8.3959      7.1674      7.1518    
  7.1082      7.0441      6.9697      6.8940      6.8230      6.7587      6.6995      6.6421      6.5845      6.5280    
  6.4783      6.4436      6.4311      6.4436      6.4783      6.5280      6.5845      6.6421      6.6995      6.7587    
  6.8230      6.8940      6.9697      7.0441      7.1082      7.1518      6.6388      6.6402      6.6439      6.6487    
  6.6529      6.6536      6.6481      6.6338      6.6087      6.5726      6.5273      6.4783      6.4336      6.4020    
  6.3906      6.4020      6.4336      6.4783      6.5273      6.5726      6.6087      6.6338      6.6481      6.6536    
  6.6529      6.6487      6.6439      6.6402      6.4187      6.4265      6.4487      6.4808      6.5166      6.5485    
  6.5695      6.5745      6.5614      6.5315      6.4898      6.4436      6.4020      6.3732      6.3629      6.3732    
  6.4020      6.4436      6.4898      6.5315      6.5614      6.5745      6.5695      6.5485      6.5166      6.4808    
  6.4487      6.4265      6.3530      6.3629      6.3906      6.4311      6.4766      6.5179      6.5466      6.5569    
  6.5466      6.5179      6.4766      6.4311      6.3906      6.3629      6.3530      6.3629      6.3906      6.4311    
  6.4766      6.5179      6.5466      6.5569      6.5466      6.5179      6.4766      6.4311      6.3906      6.3629    
  6.4187      6.4265      6.4487      6.4808      6.5166      6.5485      6.5695      6.5745      6.5614      6.5315    
  6.4898      6.4436      6.4020      6.3732      6.3629      6.3732      6.4020      6.4436      6.4898      6.5315    
  6.5614      6.5745      6.5695      6.5485      6.5166      6.4808      6.4487      6.4265      6.6388      6.6402    
  6.6439      6.6487      6.6529      6.6536      6.6481      6.6338      6.6087      6.5726      6.5273      6.4783    
  6.4336      6.4020      6.3906      6.4020      6.4336      6.4783      6.5273      6.5726      6.6087      6.6338    
  6.6481      6.6536      6.6529      6.6487      6.6439      6.6402      7.1674      7.1518      7.1082      7.0441    
  6.9697      6.8940      6.8230      6.7587      6.6995      6.6421      6.5845      6.5280      6.4783      6.4436    
  6.4311      6.4436      6.4783      6.5280      6.5845      6.6421      6.6995      6.7587      6.8230      6.8940    
  6.9697      7.0441      7.1082      7.1518      8.4583      8.3959      8.2222      7.9722      7.6911      7.4201    
  7.1862      6.9996      6.8563      6.7457      6.6572      6.5845      6.5273      6.4898      6.4766      6.4898    
  6.5273      6.5845      6.6572      6.7457      6.8563      6.9996      7.1862      7.4201      7.6911      7.9722    
  8.2222      8.3959      11.442      11.254      10.745      10.035      9.2496      8.5129      7.9022      7.4423    
  7.1180      6.8966      6.7457      6.6421      6.5726      6.5315      6.5179      6.5315      6.5726      6.6421    
  6.7457      6.8966      7.1180      7.4423      7.9022      8.5129      9.2496      10.035      10.745      11.254    
  19.312      18.647      16.875      14.577      12.394      10.631      9.2345      8.2214      7.5453      7.1180    
  6.8563      6.6995      6.6087      6.5614      6.5466      6.5614      6.6087      6.6995      6.8563      7.1180    
  7.5453      8.2214      9.2345      10.631      12.394      14.577      16.875      18.647      39.036      37.295    
  32.547      26.105      19.692      14.717      11.555      9.5249      8.2214      7.4423      6.9996      6.7587    
  6.6338      6.5745      6.5569      6.5745      6.6338      6.7587      6.9996      7.4423      8.2214      9.5249    
  11.555      14.717      19.692      26.105      32.547      37.295      77.087      73.568      63.801      50.065    
  35.622      23.617      15.743      11.555      9.2345      7.9022      7.1862      6.8230      6.6481      6.5695    
  6.5466      6.5695      6.6481      6.8230      7.1862      7.9022      9.2345      11.555      15.743      23.617    
  35.622      50.065      63.801      73.568      135.16      129.27      112.72      88.825      62.694      39.752    
  23.617      14.717      10.631      8.5129      7.4201      6.8940      6.6536      6.5485      6.5179      6.5485    
  6.6536      6.8940      7.4201      8.5129      10.631      14.717      23.617      39.752      62.694      88.825    
  112.72      129.27      207.22      198.76      174.69      139.19      99.211      62.694      35.622      19.692    
  12.394      9.2496      7.6911      6.9697      6.6529      6.5166      6.4766      6.5166      6.6529      6.9697    
  7.6911      9.2496      12.394      19.692      35.622      62.694      99.211      139.19      174.69      198.76    
  280.74      270.01      239.14      192.74      139.19      88.825      50.065      26.105      14.577      10.035    
  7.9722      7.0441      6.6487      6.4808      6.4311      6.4808      6.6487      7.0441      7.9722      10.035    
  14.577      26.105      50.065      88.825      139.19      192.74      239.14      270.01      342.02      329.69    
  293.87      239.14      174.69      112.72      63.801      32.547      16.875      10.745      8.2222      7.1082    
  6.6439      6.4487      6.3906      6.4487      6.6439      7.1082      8.2222      10.745      16.875      32.547    
  63.801      112.72      174.69      239.14      293.87      329.69      381.47      368.28      329.69      270.01    
  198.76      129.27      73.568      37.295      18.647      11.254      8.3959      7.1518      6.6402      6.4265    
  6.3629      6.4265      6.6402      7.1518      8.3959      11.254      18.647      37.295      73.568      129.27    
  198.76      270.01      329.69      368.28      381.47      368.28      329.69      270.01      198.76      129.27    
  73.568      37.295      18.647      11.254      8.3959      7.1518      6.6402      6.4265      6.3629      6.4265    
  6.6402      7.1518      8.3959      11.254      18.647      37.295      73.568      129.27      198.76      270.01    
  329.69      368.28      368.28      355.35      317.63      259.55      190.56      123.59      70.191      35.638    
  18.022      11.076      8.3369      7.1377      6.6423      6.4349      6.3732      6.4349      6.6423      7.1377    
  8.3369      11.076      18.022      35.638      70.191      123.59      190.56      259.55      317.63      355.35    
  329.69      317.63      282.71      229.56      167.26      107.65      60.838      31.131      16.361      10.596    
  8.1722      7.0978      6.6479      6.4584      6.4020      6.4584      6.6479      7.0978      8.1722      10.596    
  16.361      31.131      60.838      107.65      167.26      229.56      282.71      317.63      270.01      259.55    
  229.56      184.65      133.03      84.702      47.728      25.038      14.212      9.9172      7.9344      7.0385    
  6.6551      6.4919      6.4436      6.4919      6.6551      7.0385      7.9344      9.9172      14.212      25.038    
  47.728      84.702      133.03      184.65      229.56      259.55      198.76      190.56      167.26      133.03    
  94.620      59.722      34.014      19.007      12.169      9.1657      7.6659      6.9687      6.6612      6.5287    
  6.4898      6.5287      6.6612      6.9687      7.6659      9.1657      12.169      19.007      34.014      59.722    
  94.620      133.03      167.26      190.56      129.27      123.59      107.65      84.702      59.722      37.916    
  22.690      14.353      10.494      8.4589      7.4060      6.8970      6.6635      6.5613      6.5315      6.5613    
  6.6635      6.8970      7.4060      8.4589      10.494      14.353      22.690      37.916      59.722      84.702    
  107.65      123.59      73.568      70.191      60.838      47.728      34.014      22.690      15.314      11.379    
  9.1533      7.8720      7.1813      6.8296      6.6599      6.5836      6.5614      6.5836      6.6599      6.8296    
  7.1813      7.8720      9.1533      11.379      15.314      22.690      34.014      47.728      60.838      70.191    
  37.295      35.638      31.131      25.038      19.007      14.353      11.379      9.4323      8.1799      7.4296    
  7.0023      6.7695      6.6487      6.5914      6.5745      6.5914      6.6487      6.7695      7.0023      7.4296    
  8.1799      9.4323      11.379      14.353      19.007      25.038      31.131      35.638      18.647      18.022    
  16.361      14.212      12.169      10.494      9.1533      8.1799      7.5293      7.1179      6.8661      6.7156    
  6.6287      6.5836      6.5695      6.5836      6.6287      6.7156      6.8661      7.1179      7.5293      8.1799    
  9.1533      10.494      12.169      14.212      16.361      18.022      11.254      11.076      10.596      9.9172    
  9.1657      8.4589      7.8720      7.4296      7.1179      6.9060      6.7626      6.6649      6.5997      6.5613    
  6.5485      6.5613      6.5997      6.6649      6.7626      6.9060      7.1179      7.4296      7.8720      8.4589    
  9.1657      9.9172      10.596      11.076      8.3959      8.3369      8.1722      7.9344      7.6659      7.4060    
  7.1813      7.0023      6.8661      6.7626      6.6811      6.6148      6.5629      6.5287      6.5166      6.5287    
  6.5629      6.6148      6.6811      6.7626      6.8661      7.0023      7.1813      7.4060      7.6659      7.9344    
  8.1722      8.3369      7.1518      7.1377      7.0978      7.0385      6.9687      6.8970      6.8296      6.7695    
  6.7156      6.6649      6.6148      6.5659      6.5225      6.4919      6.4808      6.4919      6.5225      6.5659    
  6.6148      6.6649      6.7156      6.7695      6.8296      6.8970      6.9687      7.0385      7.0978      7.1377    
  6.6402      6.6423      6.6479      6.6551      6.6612      6.6635      6.6599      6.6487      6.6287      6.5997    
  6.5629      6.5225      6.4850      6.4584      6.4487      6.4584      6.4850      6.5225      6.5629      6.5997    
  6.6287      6.6487      6.6599      6.6635      6.6612      6.6551      6.6479      6.6423      6.4265      6.4349    
  6.4584      6.4919      6.5287      6.5613      6.5836      6.5914      6.5836      6.5613      6.5287      6.4919    
  6.4584      6.4349      6.4265      6.4349      6.4584      6.4919      6.5287      6.5613      6.5836      6.5914    
  6.5836      6.5613      6.5287      6.4919      6.4584      6.4349      6.3629      6.3732      6.4020      6.4436    
  6.4898      6.5315      6.5614      6.5745      6.5695      6.5485      6.5166      6.4808      6.4487      6.4265    
  6.4187      6.4265      6.4487      6.4808      6.5166      6.5485      6.5695      6.5745      6.5614      6.5315    
  6.4898      6.4436      6.4020      6.3732      6.4265      6.4349      6.4584      6.4919      6.5287      6.5613    
  6.5836      6.5914      6.5836      6.5613      6.5287      6.4919      6.4584      6.4349      6.4265      6.4349    
  6.4584      6.4919      6.5287      6.5613      6.5836      6.5914      6.5836      6.5613      6.5287      6.4919    
  6.4584      6.4349      6.6402      6.6423      6.6479      6.6551      6.6612      6.6635      6.6599      6.6487    
  6.6287      6.5997      6.5629      6.5225      6.4850      6.4584      6.4487      6.4584      6.4850      6.5225    
  6.5629      6.5997      6.6287      6.6487      6.6599      6.6635      6.6612      6.6551      6.6479      6.6423    
  7.1518      7.1377      7.0978      7.0385      6.9687      6.8970      6.8296      6.7695      6.7156      6.6649    
  6.6148      6.5659      6.5225      6.4919      6.4808      6.4919      6.5225      6.5659      6.6148      6.6649    
  6.7156      6.7695      6.8296      6.8970      6.9687      7.0385      7.0978      7.1377      8.3959      8.3369    
  8.1722      7.9344      7.6659      7.4060      7.1813      7.0023      6.8661      6.7626      6.6811      6.6148    
  6.5629      6.5287      6.5166      6.5287      6.5629      6.6148      6.6811      6.7626      6.8661      7.0023    
  7.1813      7.4060      7.6659      7.9344      8.1722      8.3369      11.254      11.076      10.596      9.9172    
  9.1657      8.4589      7.8720      7.4296      7.1179      6.9060      6.7626      6.6649      6.5997      6.5613    
  6.5485      6.5613      6.5997      6.6649      6.7626      6.9060      7.1179      7.4296      7.8720      8.4589    
  9.1657      9.9172      10.596      11.076      18.647      18.022      16.361      14.212      12.169      10.494    
  9.1533      8.1799      7.5293      7.1179      6.8661      6.7156      6.6287      6.5836      6.5695      6.5836    
  6.6287      6.7156      6.8661      7.1179      7.5293      8.1799      9.1533      10.494      12.169      14.212    
  16.361      18.022      37.295      35.638      31.131      25.038      19.007      14.353      11.379      9.4323    
  8.1799      7.4296      7.0023      6.7695      6.6487      6.5914      6.5745      6.5914      6.6487      6.7695    
  7.0023      7.4296      8.1799      9.4323      11.379      14.353      19.007      25.038      31.131      35.638    
  73.568      70.191      60.838      47.728      34.014      22.690      15.314      11.379      9.1533      7.8720    
  7.1813      6.8296      6.6599      6.5836      6.5614      6.5836      6.6599      6.8296      7.1813      7.8720    
  9.1533      11.379      15.314      22.690      34.014      47.728      60.838      70.191      129.27      123.59    
  107.65      84.702      59.722      37.916      22.690      14.353      10.494      8.4589      7.4060      6.8970    
  6.6635      6.5613      6.5315      6.5613      6.6635      6.8970      7.4060      8.4589      10.494      14.353    
  22.690      37.916      59.722      84.702      107.65      123.59      198.76      190.56      167.26      133.03    
  94.620      59.722      34.014      19.007      12.169      9.1657      7.6659      6.9687      6.6612      6.5287    
  6.4898      6.5287      6.6612      6.9687      7.6659      9.1657      12.169      19.007      34.014      59.722    
  94.620      133.03      167.26      190.56      270.01      259.55      229.56      184.65      133.03      84.702    
  47.728      25.038      14.212      9.9172      7.9344      7.0385      6.6551      6.4919      6.4436      6.4919    
  6.6551      7.0385      7.9344      9.9172      14.212      25.038      47.728      84.702      133.03      184.65    
  229.56      259.55      329.69      317.63      282.71      229.56      167.26      107.65      60.838      31.131    
  16.361      10.596      8.1722      7.0978      6.6479      6.4584      6.4020      6.4584      6.6479      7.0978    
  8.1722      10.596      16.361      31.131      60.838      107.65      167.26      229.56      282.71      317.63    
  368.28      355.35      317.63      259.55      190.56      123.59      70.191      35.638      18.022      11.076    
  8.3369      7.1377      6.6423      6.4349      6.3732      6.4349      6.6423      7.1377      8.3369      11.076    
  18.022      35.638      70.191      123.59      190.56      259.55      317.63      355.35      342.02      329.69    
  293.87      239.14      174.69      112.72      63.801      32.547      16.875      10.745      8.2222      7.1082    
  6.6439      6.4487      6.3906      6.4487      6.6439      7.1082      8.2222      10.745      16.875      32.547    
  63.801      112.72      174.69      239.14      293.87      329.69      329.69      317.63      282.71      229.56    
  167.26      107.65      60.838      31.131      16.361      10.596      8.1722      7.0978      6.6479      6.4584    
  6.4020      6.4584      6.6479      7.0978      8.1722      10.596      16.361      31.131      60.838      107.65    
  167.26      229.56      282.71      317.63      293.87      282.71      250.60      202.25      146.29      93.479    
  52.673      27.300      15.001      10.182      8.0320      7.0678      6.6586      6.4850      6.4336      6.4850    
  6.6586      7.0678      8.0320      10.182      15.001      27.300      52.673      93.479      146.29      202.25    
  250.60      282.71      239.14      229.56      202.25      161.74      115.73      73.277      41.347      22.182    
  13.250      9.5898      7.8277      7.0217      6.6721      6.5225      6.4783      6.5225      6.6721      7.0217    
  7.8277      9.5898      13.250      22.182      41.347      73.277      115.73      161.74      202.25      229.56    
  174.69      167.26      146.29      115.73      81.874      51.573      29.677      17.196      11.567      8.9311    
  7.5946      6.9654      6.6845      6.5629      6.5273      6.5629      6.6845      6.9654      7.5946      8.9311    
  11.567      17.196      29.677      51.573      81.874      115.73      146.29      167.26      112.72      107.65    
  93.479      73.277      51.573      32.950      20.227      13.395      10.110      8.3085      7.3670      6.9066    
  6.6932      6.5997      6.5726      6.5997      6.6932      6.9066      7.3670      8.3085      10.110      13.395    
  20.227      32.950      51.573      73.277      93.479      107.65      63.801      60.838      52.673      41.347    
  29.677      20.227      14.187      10.893      8.9280      7.7894      7.1702      6.8523      6.6980      6.6287    
  6.6087      6.6287      6.6980      6.8523      7.1702      7.7894      8.9280      10.893      14.187      20.227    
  29.677      41.347      52.673      60.838      32.547      31.131      27.300      22.182      17.196      13.395    
  10.893      9.1759      8.0663      7.3980      7.0158      6.8072      6.6994      6.6487      6.6338      6.6487    
  6.6994      6.8072      7.0158      7.3980      8.0663      9.1759      10.893      13.395      17.196      22.182    
  27.300      31.131      16.875      16.361      15.001      13.250      11.567      10.110      8.9280      8.0663    
  7.4891      7.1246      6.9030      6.7722      6.6980      6.6599      6.6481      6.6599      6.6980      6.7722    
  6.9030      7.1246      7.4891      8.0663      8.9280      10.110      11.567      13.250      15.001      16.361    
  10.745      10.596      10.182      9.5898      8.9311      8.3085      7.7894      7.3980      7.1246      6.9423    
  6.8230      6.7444      6.6932      6.6635      6.6536      6.6635      6.6932      6.7444      6.8230      6.9423    
  7.1246      7.3980      7.7894      8.3085      8.9311      9.5898      10.182      10.596      8.2222      8.1722    
  8.0320      7.8277      7.5946      7.3670      7.1702      7.0158      6.9030      6.8230      6.7646      6.7195    
  6.6845      6.6612      6.6529      6.6612      6.6845      6.7195      6.7646      6.8230      6.9030      7.0158    
  7.1702      7.3670      7.5946      7.8277      8.0320      8.1722      7.1082      7.0978      7.0678      7.0217    
  6.9654      6.9066      6.8523      6.8072      6.7722      6.7444      6.7195      6.6950      6.6721      6.6551    
  6.6487      6.6551      6.6721      6.6950      6.7195      6.7444      6.7722      6.8072      6.8523      6.9066    
  6.9654      7.0217      7.0678      7.0978      6.6439      6.6479      6.6586      6.6721      6.6845      6.6932    
  6.6980      6.6994      6.6980      6.6932      6.6845      6.6721      6.6586      6.6479      6.6439      6.6479    
  6.6586      6.6721      6.6845      6.6932      6.6980      6.6994      6.6980      6.6932      6.6845      6.6721    
  6.6586      6.6479      6.4487      6.4584      6.4850      6.5225      6.5629      6.5997      6.6287      6.6487    
  6.6599      6.6635      6.6612      6.6551      6.6479      6.6423      6.6402      6.6423      6.6479      6.6551    
  6.6612      6.6635      6.6599      6.6487      6.6287      6.5997      6.5629      6.5225      6.4850      6.4584    
  6.3906      6.4020      6.4336      6.4783      6.5273      6.5726      6.6087      6.6338      6.6481      6.6536    
  6.6529      6.6487      6.6439      6.6402      6.6388      6.6402      6.6439      6.6487      6.6529      6.6536    
  6.6481      6.6338      6.6087      6.5726      6.5273      6.4783      6.4336      6.4020      6.4487      6.4584    
  6.4850      6.5225      6.5629      6.5997      6.6287      6.6487      6.6599      6.6635      6.6612      6.6551    
  6.6479      6.6423      6.6402      6.6423      6.6479      6.6551      6.6612      6.6635      6.6599      6.6487    
  6.6287      6.5997      6.5629      6.5225      6.4850      6.4584      6.6439      6.6479      6.6586      6.6721    
  6.6845      6.6932      6.6980      6.6994      6.6980      6.6932      6.6845      6.6721      6.6586      6.6479    
  6.6439      6.6479      6.6586      6.6721      6.6845      6.6932      6.6980      6.6994      6.6980      6.6932    
  6.6845      6.6721      6.6586      6.6479      7.1082      7.0978      7.0678      7.0217      6.9654      6.9066    
  6.8523      6.8072      6.7722      6.7444      6.7195      6.6950      6.6721      6.6551      6.6487      6.6551    
  6.6721      6.6950      6.7195      6.7444      6.7722      6.8072      6.8523      6.9066      6.9654      7.0217    
  7.0678      7.0978      8.2222      8.1722      8.0320      7.8277      7.5946      7.3670      7.1702      7.0158    
  6.9030      6.8230      6.7646      6.7195      6.6845      6.6612      6.6529      6.6612      6.6845      6.7195    
  6.7646      6.8230      6.9030      7.0158      7.1702      7.3670      7.5946      7.8277      8.0320      8.1722    
  10.745      10.596      10.182      9.5898      8.9311      8.3085      7.7894      7.3980      7.1246      6.9423    
  6.8230      6.7444      6.6932      6.6635      6.6536      6.6635      6.6932      6.7444      6.8230      6.9423    
  7.1246      7.3980      7.7894      8.3085      8.9311      9.5898      10.182      10.596      16.875      16.361    
  15.001      13.250      11.567      10.110      8.9280      8.0663      7.4891      7.1246      6.9030      6.7722    
  6.6980      6.6599      6.6481      6.6599      6.6980      6.7722      6.9030      7.1246      7.4891      8.0663    
  8.9280      10.110      11.567      13.250      15.001      16.361      32.547      31.131      27.300      22.182    
  17.196      13.395      10.893      9.1759      8.0663      7.3980      7.0158      6.8072      6.6994      6.6487    
  6.6338      6.6487      6.6994      6.8072      7.0158      7.3980      8.0663      9.1759      10.893      13.395    
  17.196      22.182      27.300      31.131      63.801      60.838      52.673      41.347      29.677      20.227    
  14.187      10.893      8.9280      7.7894      7.1702      6.8523      6.6980      6.6287      6.6087      6.6287    
  6.6980      6.8523      7.1702      7.7894      8.9280      10.893      14.187      20.227      29.677      41.347    
  52.673      60.838      112.72      107.65      93.479      73.277      51.573      32.950      20.227      13.395    
  10.110      8.3085      7.3670      6.9066      6.6932      6.5997      6.5726      6.5997      6.6932      6.9066    
  7.3670      8.3085      10.110      13.395      20.227      32.950      51.573      73.277      93.479      107.65    
  174.69      167.26      146.29      115.73      81.874      51.573      29.677      17.196      11.567      8.9311    
  7.5946      6.9654      6.6845      6.5629      6.5273      6.5629      6.6845      6.9654      7.5946      8.9311    
  11.567      17.196      29.677      51.573      81.874      115.73      146.29      167.26      239.14      229.56    
  202.25      161.74      115.73      73.277      41.347      22.182      13.250      9.5898      7.8277      7.0217    
  6.6721      6.5225      6.4783      6.5225      6.6721      7.0217      7.8277      9.5898      13.250      22.182    
  41.347      73.277      115.73      161.74      202.25      229.56      293.87      282.71      250.60      202.25    
  146.29      93.479      52.673      27.300      15.001      10.182      8.0320      7.0678      6.6586      6.4850    
  6.4336      6.4850      6.6586      7.0678      8.0320      10.182      15.001      27.300      52.673      93.479    
  146.29      202.25      250.60      282.71      329.69      317.63      282.71      229.56      167.26      107.65    
  60.838      31.131      16.361      10.596      8.1722      7.0978      6.6479      6.4584      6.4020      6.4584    
  6.6479      7.0978      8.1722      10.596      16.361      31.131      60.838      107.65      167.26      229.56    
  282.71      317.63      280.74      270.01      239.14      192.74      139.19      88.825      50.065      26.105    
  14.577      10.035      7.9722      7.0441      6.6487      6.4808      6.4311      6.4808      6.6487      7.0441    
  7.9722      10.035      14.577      26.105      50.065      88.825      139.19      192.74      239.14      270.01    
  270.01      259.55      229.56      184.65      133.03      84.702      47.728      25.038      14.212      9.9172    
  7.9344      7.0385      6.6551      6.4919      6.4436      6.4919      6.6551      7.0385      7.9344      9.9172    
  14.212      25.038      47.728      84.702      133.03      184.65      229.56      259.55      239.14      229.56    
  202.25      161.74      115.73      73.277      41.347      22.182      13.250      9.5898      7.8277      7.0217    
  6.6721      6.5225      6.4783      6.5225      6.6721      7.0217      7.8277      9.5898      13.250      22.182    
  41.347      73.277      115.73      161.74      202.25      229.56      192.74      184.65      161.74      128.23    
  90.897      57.231      32.645      18.437      12.002      9.1191      7.6706      6.9944      6.6950      6.5659    