V                                       
   1.00000000000000     
     2.998940    0.000000    0.000000
     0.000000    2.998940    0.000000
     0.000000    0.000000    2.998940
   V 
     2
Direct
  0.000000  0.000000  0.000000
  0.500000  0.500000  0.500000
 
   28   28   28
 0.39491137124E+03 0.38146772234E+03 0.34202282272E+03 0.28074353708E+03 0.20722149124E+03
 0.13516064735E+03 0.77086686492E+02 0.39035968632E+02 0.19312207642E+02 0.11442109734E+02
 0.84582831470E+01 0.71673712647E+01 0.66388373372E+01 0.64186737289E+01 0.63530103367E+01
 0.64186737289E+01 0.66388373372E+01 0.71673712647E+01 0.84582831470E+01 0.11442109734E+02
 0.19312207642E+02 0.39035968632E+02 0.77086686492E+02 0.13516064735E+03 0.20722149124E+03
 0.28074353708E+03 0.34202282272E+03 0.38146772234E+03 0.38146772234E+03 0.36827772791E+03
 0.32968739060E+03 0.27000649105E+03 0.19875898449E+03 0.12927445308E+03 0.73567565547E+02
 0.37294632998E+02 0.18646668211E+02 0.11253512519E+02 0.83959234393E+01 0.71518307950E+01
 0.66401802635E+01 0.64265358334E+01 0.63628571193E+01 0.64265358334E+01 0.66401802635E+01
 0.71518307950E+01 0.83959234393E+01 0.11253512519E+02 0.18646668211E+02 0.37294632998E+02
 0.73567565547E+02 0.12927445308E+03 0.19875898449E+03 0.27000649105E+03 0.32968739060E+03
 0.36827772791E+03 0.34202282272E+03 0.32968739060E+03 0.29386668321E+03 0.23913561222E+03
 0.17468854075E+03 0.11272158873E+03 0.63801451868E+02 0.32547144592E+02 0.16875329373E+02
 0.10744986756E+02 0.82221502738E+01 0.71081522641E+01 0.66438579494E+01 0.64486666726E+01
 0.63906145341E+01 0.64486666726E+01 0.66438579494E+01 0.71081522641E+01 0.82221502738E+01
 0.10744986756E+02 0.16875329373E+02 0.32547144592E+02 0.63801451868E+02 0.11272158873E+03
 0.17468854075E+03 0.23913561222E+03 0.29386668321E+03 0.32968739060E+03 0.28074353708E+03
 0.27000649105E+03 0.23913561222E+03 0.19274494822E+03 0.13919481731E+03 0.88824801258E+02
 0.50064566278E+02 0.26104612837E+02 0.14576854588E+02 0.10034577762E+02 0.79721649030E+01
 0.70441102570E+01 0.66487432782E+01 0.64808410418E+01 0.64311237180E+01 0.64808410418E+01
 0.66487432782E+01 0.70441102570E+01 0.79721649030E+01 0.10034577762E+02 0.14576854588E+02
 0.26104612837E+02 0.50064566278E+02 0.88824801258E+02 0.13919481731E+03 0.19274494822E+03
 0.23913561222E+03 0.27000649105E+03 0.20722149124E+03 0.19875898449E+03 0.17468854075E+03
 0.13919481731E+03 0.99210666037E+02 0.62694016946E+02 0.35621532659E+02 0.19691555335E+02
 0.12393671264E+02 0.92496268075E+01 0.76910873547E+01 0.69696731804E+01 0.66528687153E+01
 0.65166243074E+01 0.64765627747E+01 0.65166243074E+01 0.66528687153E+01 0.69696731804E+01
 0.76910873547E+01 0.92496268075E+01 0.12393671264E+02 0.19691555335E+02 0.35621532659E+02
 0.62694016946E+02 0.99210666037E+02 0.13919481731E+03 0.17468854075E+03 0.19875898449E+03
 0.13516064735E+03 0.12927445308E+03 0.11272158873E+03 0.88824801258E+02 0.62694016946E+02
 0.39751700497E+02 0.23616793547E+02 0.14716533000E+02 0.10631446659E+02 0.85128816469E+01
 0.74200766793E+01 0.68939762874E+01 0.66536126604E+01 0.65485157618E+01 0.65178575757E+01
 0.65485157618E+01 0.66536126604E+01 0.68939762874E+01 0.74200766793E+01 0.85128816469E+01
 0.10631446659E+02 0.14716533000E+02 0.23616793547E+02 0.39751700497E+02 0.62694016946E+02
 0.88824801258E+02 0.11272158873E+03 0.12927445308E+03 0.77086686492E+02 0.73567565547E+02
 0.63801451868E+02 0.50064566278E+02 0.35621532659E+02 0.23616793547E+02 0.15742656005E+02
 0.11555035536E+02 0.92345182378E+01 0.79022198769E+01 0.71862479023E+01 0.68230243685E+01
 0.66481239493E+01 0.65694932047E+01 0.65465946390E+01 0.65694932047E+01 0.66481239493E+01
 0.68230243685E+01 0.71862479023E+01 0.79022198769E+01 0.92345182378E+01 0.11555035536E+02
 0.15742656005E+02 0.23616793547E+02 0.35621532659E+02 0.50064566278E+02 0.63801451868E+02
 0.73567565547E+02 0.39035968632E+02 0.37294632998E+02 0.32547144592E+02 0.26104612837E+02
 0.19691555335E+02 0.14716533000E+02 0.11555035536E+02 0.95248819459E+01 0.82214168175E+01
 0.74423093828E+01 0.69995714214E+01 0.67587365225E+01 0.66337897271E+01 0.65744817219E+01
 0.65568774061E+01 0.65744817219E+01 0.66337897271E+01 0.67587365225E+01 0.69995714214E+01
 0.74423093828E+01 0.82214168175E+01 0.95248819459E+01 0.11555035536E+02 0.14716533000E+02
 0.19691555335E+02 0.26104612837E+02 0.32547144592E+02 0.37294632998E+02 0.19312207642E+02
 0.18646668211E+02 0.16875329373E+02 0.14576854588E+02 0.12393671264E+02 0.10631446659E+02
 0.92345182378E+01 0.82214168175E+01 0.75453122724E+01 0.71180071869E+01 0.68562770018E+01
 0.66995019761E+01 0.66087324809E+01 0.65613756380E+01 0.65465946390E+01 0.65613756380E+01
 0.66087324809E+01 0.66995019761E+01 0.68562770018E+01 0.71180071869E+01 0.75453122724E+01
 0.82214168175E+01 0.92345182378E+01 0.10631446659E+02 0.12393671264E+02 0.14576854588E+02
 0.16875329373E+02 0.18646668211E+02 0.11442109734E+02 0.11253512519E+02 0.10744986756E+02
 0.10034577762E+02 0.92496268075E+01 0.85128816469E+01 0.79022198769E+01 0.74423093828E+01
 0.71180071869E+01 0.68965712154E+01 0.67457063117E+01 0.66421079017E+01 0.65725539671E+01
 0.65315381311E+01 0.65178575757E+01 0.65315381311E+01 0.65725539671E+01 0.66421079017E+01
 0.67457063117E+01 0.68965712154E+01 0.71180071869E+01 0.74423093828E+01 0.79022198769E+01
 0.85128816469E+01 0.92496268075E+01 0.10034577762E+02 0.10744986756E+02 0.11253512519E+02
 0.84582831470E+01 0.83959234393E+01 0.82221502738E+01 0.79721649030E+01 0.76910873547E+01
 0.74200766793E+01 0.71862479023E+01 0.69995714214E+01 0.68562770018E+01 0.67457063117E+01
 0.66571625546E+01 0.65844662064E+01 0.65273361881E+01 0.64897752750E+01 0.64765627747E+01
 0.64897752750E+01 0.65273361881E+01 0.65844662064E+01 0.66571625546E+01 0.67457063117E+01
 0.68562770018E+01 0.69995714214E+01 0.71862479023E+01 0.74200766793E+01 0.76910873547E+01
 0.79721649030E+01 0.82221502738E+01 0.83959234393E+01 0.71673712647E+01 0.71518307950E+01
 0.71081522641E+01 0.70441102570E+01 0.69696731804E+01 0.68939762874E+01 0.68230243685E+01
 0.67587365225E+01 0.66995019761E+01 0.66421079017E+01 0.65844662064E+01 0.65280002874E+01
 0.64783439092E+01 0.64436473452E+01 0.64311237180E+01 0.64436473452E+01 0.64783439092E+01
 0.65280002874E+01 0.65844662064E+01 0.66421079017E+01 0.66995019761E+01 0.67587365225E+01
 0.68230243685E+01 0.68939762874E+01 0.69696731804E+01 0.70441102570E+01 0.71081522641E+01
 0.71518307950E+01 0.66388373372E+01 0.66401802635E+01 0.66438579494E+01 0.66487432782E+01
 0.66528687153E+01 0.66536126604E+01 0.66481239493E+01 0.66337897271E+01 0.66087324809E+01
 0.65725539671E+01 0.65273361881E+01 0.64783439092E+01 0.64336054891E+01 0.64020269021E+01
 0.63906145341E+01 0.64020269021E+01 0.64336054891E+01 0.64783439092E+01 0.65273361881E+01
 0.65725539671E+01 0.66087324809E+01 0.66337897271E+01 0.66481239493E+01 0.66536126604E+01
 0.66528687153E+01 0.66487432782E+01 0.66438579494E+01 0.66401802635E+01 0.64186737289E+01
 0.64265358334E+01 0.64486666726E+01 0.64808410418E+01 0.65166243074E+01 0.65485157618E+01
 0.65694932047E+01 0.65744817219E+01 0.65613756380E+01 0.65315381311E+01 0.64897752750E+01
 0.64436473452E+01 0.64020269021E+01 0.63731675886E+01 0.63628571193E+01 0.63731675886E+01
 0.64020269021E+01 0.64436473452E+01 0.64897752750E+01 0.65315381311E+01 0.65613756380E+01
 0.65744817219E+01 0.65694932047E+01 0.65485157618E+01 0.65166243074E+01 0.64808410418E+01
 0.64486666726E+01 0.64265358334E+01 0.63530103367E+01 0.63628571193E+01 0.63906145341E+01
 0.64311237180E+01 0.64765627747E+01 0.65178575757E+01 0.65465946390E+01 0.65568774061E+01
 0.65465946390E+01 0.65178575757E+01 0.64765627747E+01 0.64311237180E+01 0.63906145341E+01
 0.63628571193E+01 0.63530103367E+01 0.63628571193E+01 0.63906145341E+01 0.64311237180E+01
 0.64765627747E+01 0.65178575757E+01 0.65465946390E+01 0.65568774061E+01 0.65465946390E+01
 0.65178575757E+01 0.64765627747E+01 0.64311237180E+01 0.63906145341E+01 0.63628571193E+01
 0.64186737289E+01 0.64265358334E+01 0.64486666726E+01 0.64808410418E+01 0.65166243074E+01
 0.65485157618E+01 0.65694932047E+01 0.65744817219E+01 0.65613756380E+01 0.65315381311E+01
 0.64897752750E+01 0.64436473452E+01 0.64020269021E+01 0.63731675886E+01 0.63628571193E+01
 0.63731675886E+01 0.64020269021E+01 0.64436473452E+01 0.64897752750E+01 0.65315381311E+01
 0.65613756380E+01 0.65744817219E+01 0.65694932047E+01 0.65485157618E+01 0.65166243074E+01
 0.64808410418E+01 0.64486666726E+01 0.64265358334E+01 0.66388373372E+01 0.66401802635E+01
 0.66438579494E+01 0.66487432782E+01 0.66528687153E+01 0.66536126604E+01 0.66481239493E+01
 0.66337897271E+01 0.66087324809E+01 0.65725539671E+01 0.65273361881E+01 0.64783439092E+01
 0.64336054891E+01 0.64020269021E+01 0.63906145341E+01 0.64020269021E+01 0.64336054891E+01
 0.64783439092E+01 0.65273361881E+01 0.65725539671E+01 0.66087324809E+01 0.66337897271E+01
 0.66481239493E+01 0.66536126604E+01 0.66528687153E+01 0.66487432782E+01 0.66438579494E+01
 0.66401802635E+01 0.71673712647E+01 0.71518307950E+01 0.71081522641E+01 0.70441102570E+01
 0.69696731804E+01 0.68939762874E+01 0.68230243685E+01 0.67587365225E+01 0.66995019761E+01
 0.66421079017E+01 0.65844662064E+01 0.65280002874E+01 0.64783439092E+01 0.64436473452E+01
 0.64311237180E+01 0.64436473452E+01 0.64783439092E+01 0.65280002874E+01 0.65844662064E+01
 0.66421079017E+01 0.66995019761E+01 0.67587365225E+01 0.68230243685E+01 0.68939762874E+01
 0.69696731804E+01 0.70441102570E+01 0.71081522641E+01 0.71518307950E+01 0.84582831470E+01
 0.83959234393E+01 0.82221502738E+01 0.79721649030E+01 0.76910873547E+01 0.74200766793E+01
 0.71862479023E+01 0.69995714214E+01 0.68562770018E+01 0.67457063117E+01 0.66571625546E+01
 0.65844662064E+01 0.65273361881E+01 0.64897752750E+01 0.64765627747E+01 0.64897752750E+01
 0.65273361881E+01 0.65844662064E+01 0.66571625546E+01 0.67457063117E+01 0.68562770018E+01
 0.69995714214E+01 0.71862479023E+01 0.74200766793E+01 0.76910873547E+01 0.79721649030E+01
 0.82221502738E+01 0.83959234393E+01 0.11442109734E+02 0.11253512519E+02 0.10744986756E+02
 0.10034577762E+02 0.92496268075E+01 0.85128816469E+01 0.79022198769E+01 0.74423093828E+01
 0.71180071869E+01 0.68965712154E+01 0.67457063117E+01 0.66421079017E+01 0.65725539671E+01
 0.65315381311E+01 0.65178575757E+01 0.65315381311E+01 0.65725539671E+01 0.66421079017E+01
 0.67457063117E+01 0.68965712154E+01 0.71180071869E+01 0.74423093828E+01 0.79022198769E+01
 0.85128816469E+01 0.92496268075E+01 0.10034577762E+02 0.10744986756E+02 0.11253512519E+02
 0.19312207642E+02 0.18646668211E+02 0.16875329373E+02 0.14576854588E+02 0.12393671264E+02
 0.10631446659E+02 0.92345182378E+01 0.82214168175E+01 0.75453122724E+01 0.71180071869E+01
 0.68562770018E+01 0.66995019761E+01 0.66087324809E+01 0.65613756380E+01 0.65465946390E+01
 0.65613756380E+01 0.66087324809E+01 0.66995019761E+01 0.68562770018E+01 0.71180071869E+01
 0.75453122724E+01 0.82214168175E+01 0.92345182378E+01 0.10631446659E+02 0.12393671264E+02
 0.14576854588E+02 0.16875329373E+02 0.18646668211E+02 0.39035968632E+02 0.37294632998E+02
 0.32547144592E+02 0.26104612837E+02 0.19691555335E+02 0.14716533000E+02 0.11555035536E+02
 0.95248819459E+01 0.82214168175E+01 0.74423093828E+01 0.69995714214E+01 0.67587365225E+01
 0.66337897271E+01 0.65744817219E+01 0.65568774061E+01 0.65744817219E+01 0.66337897271E+01
 0.67587365225E+01 0.69995714214E+01 0.74423093828E+01 0.82214168175E+01 0.95248819459E+01
 0.11555035536E+02 0.14716533000E+02 0.19691555335E+02 0.26104612837E+02 0.32547144592E+02
 0.37294632998E+02 0.77086686492E+02 0.73567565547E+02 0.63801451868E+02 0.50064566278E+02
 0.35621532659E+02 0.23616793547E+02 0.15742656005E+02 0.11555035536E+02 0.92345182378E+01
 0.79022198769E+01 0.71862479023E+01 0.68230243685E+01 0.66481239493E+01 0.65694932047E+01
 0.65465946390E+01 0.65694932047E+01 0.66481239493E+01 0.68230243685E+01 0.71862479023E+01
 0.79022198769E+01 0.92345182378E+01 0.11555035536E+02 0.15742656005E+02 0.23616793547E+02
 0.35621532659E+02 0.50064566278E+02 0.63801451868E+02 0.73567565547E+02 0.13516064735E+03
 0.12927445308E+03 0.11272158873E+03 0.88824801258E+02 0.62694016946E+02 0.39751700497E+02
 0.23616793547E+02 0.14716533000E+02 0.10631446659E+02 0.85128816469E+01 0.74200766793E+01
 0.68939762874E+01 0.66536126604E+01 0.65485157618E+01 0.65178575757E+01 0.65485157618E+01
 0.66536126604E+01 0.68939762874E+01 0.74200766793E+01 0.85128816469E+01 0.10631446659E+02
 0.14716533000E+02 0.23616793547E+02 0.39751700497E+02 0.62694016946E+02 0.88824801258E+02
 0.11272158873E+03 0.12927445308E+03 0.20722149124E+03 0.19875898449E+03 0.17468854075E+03
 0.13919481731E+03 0.99210666037E+02 0.62694016946E+02 0.35621532659E+02 0.19691555335E+02
 0.12393671264E+02 0.92496268075E+01 0.76910873547E+01 0.69696731804E+01 0.66528687153E+01
 0.65166243074E+01 0.64765627747E+01 0.65166243074E+01 0.66528687153E+01 0.69696731804E+01
 0.76910873547E+01 0.92496268075E+01 0.12393671264E+02 0.19691555335E+02 0.35621532659E+02
 0.62694016946E+02 0.99210666037E+02 0.13919481731E+03 0.17468854075E+03 0.19875898449E+03
 0.28074353708E+03 0.27000649105E+03 0.23913561222E+03 0.19274494822E+03 0.13919481731E+03
 0.88824801258E+02 0.50064566278E+02 0.26104612837E+02 0.14576854588E+02 0.10034577762E+02
 0.79721649030E+01 0.70441102570E+01 0.66487432782E+01 0.64808410418E+01 0.64311237180E+01
 0.64808410418E+01 0.66487432782E+01 0.70441102570E+01 0.79721649030E+01 0.10034577762E+02
 0.14576854588E+02 0.26104612837E+02 0.50064566278E+02 0.88824801258E+02 0.13919481731E+03
 0.19274494822E+03 0.23913561222E+03 0.27000649105E+03 0.34202282272E+03 0.32968739060E+03
 0.29386668321E+03 0.23913561222E+03 0.17468854075E+03 0.11272158873E+03 0.63801451868E+02
 0.32547144592E+02 0.16875329373E+02 0.10744986756E+02 0.82221502738E+01 0.71081522641E+01
 0.66438579494E+01 0.64486666726E+01 0.63906145341E+01 0.64486666726E+01 0.66438579494E+01
 0.71081522641E+01 0.82221502738E+01 0.10744986756E+02 0.16875329373E+02 0.32547144592E+02
 0.63801451868E+02 0.11272158873E+03 0.17468854075E+03 0.23913561222E+03 0.29386668321E+03
 0.32968739060E+03 0.38146772234E+03 0.36827772791E+03 0.32968739060E+03 0.27000649105E+03
 0.19875898449E+03 0.12927445308E+03 0.73567565547E+02 0.37294632998E+02 0.18646668211E+02
 0.11253512519E+02 0.83959234393E+01 0.71518307950E+01 0.66401802635E+01 0.64265358334E+01
 0.63628571193E+01 0.64265358334E+01 0.66401802635E+01 0.71518307950E+01 0.83959234393E+01
 0.11253512519E+02 0.18646668211E+02 0.37294632998E+02 0.73567565547E+02 0.12927445308E+03
 0.19875898449E+03 0.27000649105E+03 0.32968739060E+03 0.36827772791E+03 0.38146772234E+03
 0.36827772791E+03 0.32968739060E+03 0.27000649105E+03 0.19875898449E+03 0.12927445308E+03
 0.73567565547E+02 0.37294632998E+02 0.18646668211E+02 0.11253512519E+02 0.83959234393E+01
 0.71518307950E+01 0.66401802635E+01 0.64265358334E+01 0.63628571193E+01 0.64265358334E+01
 0.66401802635E+01 0.71518307950E+01 0.83959234393E+01 0.11253512519E+02 0.18646668211E+02
 0.37294632998E+02 0.73567565547E+02 0.12927445308E+03 0.19875898449E+03 0.27000649105E+03
 0.32968739060E+03 0.36827772791E+03 0.36827772791E+03 0.35535084556E+03 0.31763284939E+03
 0.25955398446E+03 0.19055518990E+03 0.12359437556E+03 0.70191113724E+02 0.35637952031E+02
 0.18021652569E+02 0.11076472468E+02 0.83369145392E+01 0.71377150212E+01 0.66422939069E+01
 0.64349323863E+01 0.63731675886E+01 0.64349323863E+01 0.66422939069E+01 0.71377150212E+01
 0.83369145392E+01 0.11076472468E+02 0.18021652569E+02 0.35637952031E+02 0.70191113724E+02
 0.12359437556E+03 0.19055518990E+03 0.25955398446E+03 0.31763284939E+03 0.35535084556E+03
 0.32968739060E+03 0.31763284939E+03 0.28271122010E+03 0.22956247687E+03 0.16726272709E+03
 0.10764878348E+03 0.60838042501E+02 0.31130553396E+02 0.16361175939E+02 0.10595862247E+02
 0.81721778081E+01 0.70977740538E+01 0.66479164261E+01 0.64583599264E+01 0.64020269021E+01
 0.64583599264E+01 0.66479164261E+01 0.70977740538E+01 0.81721778081E+01 0.10595862248E+02
 0.16361175939E+02 0.31130553396E+02 0.60838042501E+02 0.10764878348E+03 0.16726272709E+03
 0.22956247687E+03 0.28271122010E+03 0.31763284939E+03 0.27000649105E+03 0.25955398446E+03
 0.22956247687E+03 0.18464971765E+03 0.13302629344E+03 0.84702468512E+02 0.47728201015E+02
 0.25038134751E+02 0.14212106661E+02 0.99171722094E+01 0.79343965963E+01 0.70385177705E+01
 0.66550911642E+01 0.64919192718E+01 0.64436473452E+01 0.64919192718E+01 0.66550911642E+01
 0.70385177705E+01 0.79343965963E+01 0.99171722094E+01 0.14212106661E+02 0.25038134751E+02
 0.47728201015E+02 0.84702468512E+02 0.13302629344E+03 0.18464971765E+03 0.22956247687E+03
 0.25955398446E+03 0.19875898449E+03 0.19055518990E+03 0.16726272709E+03 0.13302629344E+03
 0.94619914192E+02 0.59722420172E+02 0.34014104662E+02 0.19007037629E+02 0.12169148876E+02
 0.91656815558E+01 0.76659095808E+01 0.69687003107E+01 0.66611693078E+01 0.65286869430E+01
 0.64897752750E+01 0.65286869430E+01 0.66611693078E+01 0.69687003107E+01 0.76659095808E+01
 0.91656815558E+01 0.12169148876E+02 0.19007037629E+02 0.34014104662E+02 0.59722420172E+02
 0.94619914192E+02 0.13302629344E+03 0.16726272709E+03 0.19055518990E+03 0.12927445308E+03
 0.12359437556E+03 0.10764878348E+03 0.84702468512E+02 0.59722420172E+02 0.37915653370E+02
 0.22689976570E+02 0.14352808820E+02 0.10493529988E+02 0.84589460382E+01 0.74059991596E+01
 0.68969547870E+01 0.66634955677E+01 0.65613077650E+01 0.65315381311E+01 0.65613077650E+01
 0.66634955677E+01 0.68969547870E+01 0.74059991596E+01 0.84589460382E+01 0.10493529988E+02
 0.14352808820E+02 0.22689976570E+02 0.37915653370E+02 0.59722420172E+02 0.84702468512E+02
 0.10764878348E+03 0.12359437556E+03 0.73567565547E+02 0.70191113724E+02 0.60838042501E+02
 0.47728201015E+02 0.34014104662E+02 0.22689976570E+02 0.15313935360E+02 0.11379233246E+02
 0.91532967138E+01 0.78720421232E+01 0.71812784139E+01 0.68296355489E+01 0.66598835894E+01
 0.65835649857E+01 0.65613756380E+01 0.65835649857E+01 0.66598835894E+01 0.68296355489E+01
 0.71812784139E+01 0.78720421232E+01 0.91532967138E+01 0.11379233246E+02 0.15313935360E+02
 0.22689976570E+02 0.34014104662E+02 0.47728201015E+02 0.60838042501E+02 0.70191113724E+02
 0.37294632998E+02 0.35637952031E+02 0.31130553396E+02 0.25038134751E+02 0.19007037629E+02
 0.14352808820E+02 0.11379233246E+02 0.94323101709E+01 0.81798642722E+01 0.74295653683E+01
 0.70022703310E+01 0.67694825164E+01 0.66486877407E+01 0.65914406975E+01 0.65744817219E+01
 0.65914406975E+01 0.66486877407E+01 0.67694825164E+01 0.70022703310E+01 0.74295653683E+01
 0.81798642722E+01 0.94323101709E+01 0.11379233246E+02 0.14352808820E+02 0.19007037629E+02
 0.25038134751E+02 0.31130553396E+02 0.35637952031E+02 0.18646668211E+02 0.18021652569E+02
 0.16361175939E+02 0.14212106661E+02 0.12169148876E+02 0.10493529988E+02 0.91532967138E+01
 0.81798642722E+01 0.75293021219E+01 0.71178806974E+01 0.68660802570E+01 0.67155929031E+01
 0.66287382029E+01 0.65835649857E+01 0.65694932047E+01 0.65835649857E+01 0.66287382029E+01
 0.67155929031E+01 0.68660802570E+01 0.71178806974E+01 0.75293021219E+01 0.81798642722E+01
 0.91532967138E+01 0.10493529988E+02 0.12169148876E+02 0.14212106661E+02 0.16361175939E+02
 0.18021652569E+02 0.11253512519E+02 0.11076472468E+02 0.10595862247E+02 0.99171722094E+01
 0.91656815558E+01 0.84589460382E+01 0.78720421232E+01 0.74295653683E+01 0.71178806974E+01
 0.69059571194E+01 0.67626002389E+01 0.66649118794E+01 0.65996815784E+01 0.65613077650E+01
 0.65485157618E+01 0.65613077650E+01 0.65996815784E+01 0.66649118794E+01 0.67626002389E+01
 0.69059571194E+01 0.71178806974E+01 0.74295653683E+01 0.78720421232E+01 0.84589460382E+01
 0.91656815558E+01 0.99171722094E+01 0.10595862247E+02 0.11076472468E+02 0.83959234393E+01
 0.83369145392E+01 0.81721778081E+01 0.79343965963E+01 0.76659095808E+01 0.74059991596E+01
 0.71812784139E+01 0.70022703310E+01 0.68660802570E+01 0.67626002389E+01 0.66810900225E+01
 0.66148489883E+01 0.65629068407E+01 0.65286869430E+01 0.65166243074E+01 0.65286869430E+01
 0.65629068407E+01 0.66148489883E+01 0.66810900225E+01 0.67626002389E+01 0.68660802570E+01
 0.70022703310E+01 0.71812784139E+01 0.74059991596E+01 0.76659095808E+01 0.79343965963E+01
 0.81721778081E+01 0.83369145392E+01 0.71518307950E+01 0.71377150212E+01 0.70977740538E+01
 0.70385177705E+01 0.69687003107E+01 0.68969547870E+01 0.68296355489E+01 0.67694825164E+01
 0.67155929031E+01 0.66649118794E+01 0.66148489883E+01 0.65658569776E+01 0.65224705006E+01
 0.64919192718E+01 0.64808410418E+01 0.64919192718E+01 0.65224705006E+01 0.65658569776E+01
 0.66148489883E+01 0.66649118794E+01 0.67155929031E+01 0.67694825164E+01 0.68296355489E+01
 0.68969547870E+01 0.69687003107E+01 0.70385177705E+01 0.70977740538E+01 0.71377150212E+01
 0.66401802635E+01 0.66422939069E+01 0.66479164261E+01 0.66550911642E+01 0.66611693078E+01
 0.66634955677E+01 0.66598835894E+01 0.66486877407E+01 0.66287382029E+01 0.65996815784E+01
 0.65629068407E+01 0.65224705006E+01 0.64850425500E+01 0.64583599264E+01 0.64486666726E+01
 0.64583599264E+01 0.64850425500E+01 0.65224705006E+01 0.65629068407E+01 0.65996815784E+01
 0.66287382029E+01 0.66486877407E+01 0.66598835894E+01 0.66634955677E+01 0.66611693078E+01
 0.66550911642E+01 0.66479164261E+01 0.66422939069E+01 0.64265358334E+01 0.64349323863E+01
 0.64583599264E+01 0.64919192718E+01 0.65286869430E+01 0.65613077650E+01 0.65835649857E+01
 0.65914406975E+01 0.65835649857E+01 0.65613077650E+01 0.65286869430E+01 0.64919192718E+01
 0.64583599264E+01 0.64349323863E+01 0.64265358334E+01 0.64349323863E+01 0.64583599264E+01
 0.64919192718E+01 0.65286869430E+01 0.65613077650E+01 0.65835649857E+01 0.65914406975E+01
 0.65835649857E+01 0.65613077650E+01 0.65286869430E+01 0.64919192718E+01 0.64583599264E+01
 0.64349323863E+01 0.63628571193E+01 0.63731675886E+01 0.64020269021E+01 0.64436473452E+01
 0.64897752750E+01 0.65315381311E+01 0.65613756380E+01 0.65744817219E+01 0.65694932047E+01
 0.65485157618E+01 0.65166243074E+01 0.64808410418E+01 0.64486666726E+01 0.64265358334E+01
 0.64186737289E+01 0.64265358334E+01 0.64486666726E+01 0.64808410418E+01 0.65166243074E+01
 0.65485157618E+01 0.65694932047E+01 0.65744817219E+01 0.65613756380E+01 0.65315381311E+01
 0.64897752750E+01 0.64436473452E+01 0.64020269021E+01 0.63731675886E+01 0.64265358334E+01
 0.64349323863E+01 0.64583599264E+01 0.64919192718E+01 0.65286869430E+01 0.65613077650E+01
 0.65835649857E+01 0.65914406975E+01 0.65835649857E+01 0.65613077650E+01 0.65286869430E+01
 0.64919192718E+01 0.64583599264E+01 0.64349323863E+01 0.64265358334E+01 0.64349323863E+01
 0.64583599264E+01 0.64919192718E+01 0.65286869430E+01 0.65613077650E+01 0.65835649857E+01
 0.65914406975E+01 0.65835649857E+01 0.65613077650E+01 0.65286869430E+01 0.64919192718E+01
 0.64583599264E+01 0.64349323863E+01 0.66401802635E+01 0.66422939069E+01 0.66479164261E+01
 0.66550911642E+01 0.66611693078E+01 0.66634955677E+01 0.66598835894E+01 0.66486877407E+01
 0.66287382029E+01 0.65996815784E+01 0.65629068407E+01 0.65224705006E+01 0.64850425500E+01
 0.64583599264E+01 0.64486666726E+01 0.64583599264E+01 0.64850425500E+01 0.65224705006E+01
 0.65629068407E+01 0.65996815784E+01 0.66287382029E+01 0.66486877407E+01 0.66598835894E+01
 0.66634955677E+01 0.66611693078E+01 0.66550911642E+01 0.66479164261E+01 0.66422939069E+01
 0.71518307950E+01 0.71377150212E+01 0.70977740538E+01 0.70385177705E+01 0.69687003107E+01
 0.68969547870E+01 0.68296355489E+01 0.67694825164E+01 0.67155929031E+01 0.66649118794E+01
 0.66148489883E+01 0.65658569776E+01 0.65224705006E+01 0.64919192718E+01 0.64808410418E+01
 0.64919192718E+01 0.65224705006E+01 0.65658569776E+01 0.66148489883E+01 0.66649118794E+01
 0.67155929031E+01 0.67694825164E+01 0.68296355489E+01 0.68969547870E+01 0.69687003107E+01
 0.70385177705E+01 0.70977740538E+01 0.71377150212E+01 0.83959234393E+01 0.83369145392E+01
 0.81721778081E+01 0.79343965963E+01 0.76659095808E+01 0.74059991596E+01 0.71812784139E+01
 0.70022703310E+01 0.68660802570E+01 0.67626002389E+01 0.66810900225E+01 0.66148489883E+01
 0.65629068407E+01 0.65286869430E+01 0.65166243074E+01 0.65286869430E+01 0.65629068407E+01
 0.66148489883E+01 0.66810900225E+01 0.67626002389E+01 0.68660802570E+01 0.70022703310E+01
 0.71812784139E+01 0.74059991596E+01 0.76659095808E+01 0.79343965963E+01 0.81721778081E+01
 0.83369145392E+01 0.11253512519E+02 0.11076472468E+02 0.10595862247E+02 0.99171722094E+01
 0.91656815558E+01 0.84589460382E+01 0.78720421232E+01 0.74295653683E+01 0.71178806974E+01
 0.69059571194E+01 0.67626002389E+01 0.66649118794E+01 0.65996815784E+01 0.65613077650E+01
 0.65485157618E+01 0.65613077650E+01 0.65996815784E+01 0.66649118794E+01 0.67626002389E+01
 0.69059571194E+01 0.71178806974E+01 0.74295653683E+01 0.78720421232E+01 0.84589460382E+01
 0.91656815558E+01 0.99171722094E+01 0.10595862248E+02 0.11076472468E+02 0.18646668211E+02
 0.18021652569E+02 0.16361175939E+02 0.14212106661E+02 0.12169148876E+02 0.10493529988E+02
 0.91532967138E+01 0.81798642722E+01 0.75293021219E+01 0.71178806974E+01 0.68660802570E+01
 0.67155929031E+01 0.66287382029E+01 0.65835649857E+01 0.65694932047E+01 0.65835649857E+01
 0.66287382029E+01 0.67155929031E+01 0.68660802570E+01 0.71178806974E+01 0.75293021219E+01
 0.81798642722E+01 0.91532967138E+01 0.10493529988E+02 0.12169148876E+02 0.14212106661E+02
 0.16361175939E+02 0.18021652569E+02 0.37294632998E+02 0.35637952031E+02 0.31130553396E+02
 0.25038134751E+02 0.19007037629E+02 0.14352808820E+02 0.11379233246E+02 0.94323101709E+01
 0.81798642722E+01 0.74295653683E+01 0.70022703310E+01 0.67694825164E+01 0.66486877407E+01
 0.65914406975E+01 0.65744817219E+01 0.65914406975E+01 0.66486877407E+01 0.67694825164E+01
 0.70022703310E+01 0.74295653683E+01 0.81798642722E+01 0.94323101709E+01 0.11379233246E+02
 0.14352808820E+02 0.19007037629E+02 0.25038134751E+02 0.31130553396E+02 0.35637952031E+02
 0.73567565547E+02 0.70191113724E+02 0.60838042501E+02 0.47728201015E+02 0.34014104662E+02
 0.22689976570E+02 0.15313935360E+02 0.11379233246E+02 0.91532967138E+01 0.78720421232E+01
 0.71812784139E+01 0.68296355489E+01 0.66598835894E+01 0.65835649857E+01 0.65613756380E+01
 0.65835649857E+01 0.66598835894E+01 0.68296355489E+01 0.71812784139E+01 0.78720421232E+01
 0.91532967138E+01 0.11379233246E+02 0.15313935360E+02 0.22689976570E+02 0.34014104662E+02
 0.47728201015E+02 0.60838042501E+02 0.70191113724E+02 0.12927445308E+03 0.12359437556E+03
 0.10764878348E+03 0.84702468512E+02 0.59722420172E+02 0.37915653370E+02 0.22689976570E+02
 0.14352808820E+02 0.10493529988E+02 0.84589460382E+01 0.74059991596E+01 0.68969547870E+01
 0.66634955677E+01 0.65613077650E+01 0.65315381311E+01 0.65613077650E+01 0.66634955677E+01
 0.68969547870E+01 0.74059991596E+01 0.84589460382E+01 0.10493529988E+02 0.14352808820E+02
 0.22689976570E+02 0.37915653370E+02 0.59722420172E+02 0.84702468512E+02 0.10764878348E+03
 0.12359437556E+03 0.19875898449E+03 0.19055518990E+03 0.16726272709E+03 0.13302629344E+03
 0.94619914192E+02 0.59722420172E+02 0.34014104662E+02 0.19007037629E+02 0.12169148876E+02
 0.91656815558E+01 0.76659095808E+01 0.69687003107E+01 0.66611693078E+01 0.65286869430E+01
 0.64897752750E+01 0.65286869430E+01 0.66611693078E+01 0.69687003107E+01 0.76659095808E+01
 0.91656815558E+01 0.12169148876E+02 0.19007037629E+02 0.34014104662E+02 0.59722420172E+02
 0.94619914192E+02 0.13302629344E+03 0.16726272709E+03 0.19055518990E+03 0.27000649105E+03
 0.25955398446E+03 0.22956247687E+03 0.18464971765E+03 0.13302629344E+03 0.84702468512E+02
 0.47728201015E+02 0.25038134751E+02 0.14212106661E+02 0.99171722094E+01 0.79343965963E+01
 0.70385177705E+01 0.66550911642E+01 0.64919192718E+01 0.64436473452E+01 0.64919192718E+01
 0.66550911642E+01 0.70385177705E+01 0.79343965963E+01 0.99171722094E+01 0.14212106661E+02
 0.25038134751E+02 0.47728201015E+02 0.84702468512E+02 0.13302629344E+03 0.18464971765E+03
 0.22956247687E+03 0.25955398446E+03 0.32968739060E+03 0.31763284939E+03 0.28271122010E+03
 0.22956247687E+03 0.16726272709E+03 0.10764878348E+03 0.60838042501E+02 0.31130553396E+02
 0.16361175939E+02 0.10595862247E+02 0.81721778081E+01 0.70977740538E+01 0.66479164261E+01
 0.64583599264E+01 0.64020269021E+01 0.64583599264E+01 0.66479164261E+01 0.70977740538E+01
 0.81721778081E+01 0.10595862248E+02 0.16361175939E+02 0.31130553396E+02 0.60838042501E+02
 0.10764878348E+03 0.16726272709E+03 0.22956247687E+03 0.28271122010E+03 0.31763284939E+03
 0.36827772791E+03 0.35535084556E+03 0.31763284939E+03 0.25955398446E+03 0.19055518990E+03
 0.12359437556E+03 0.70191113724E+02 0.35637952031E+02 0.18021652569E+02 0.11076472468E+02
 0.83369145392E+01 0.71377150212E+01 0.66422939069E+01 0.64349323863E+01 0.63731675886E+01
 0.64349323863E+01 0.66422939069E+01 0.71377150212E+01 0.83369145392E+01 0.11076472468E+02
 0.18021652569E+02 0.35637952031E+02 0.70191113724E+02 0.12359437556E+03 0.19055518990E+03
 0.25955398446E+03 0.31763284939E+03 0.35535084556E+03 0.34202282272E+03 0.32968739060E+03
 0.29386668321E+03 0.23913561222E+03 0.17468854075E+03 0.11272158873E+03 0.63801451868E+02
 0.32547144592E+02 0.16875329373E+02 0.10744986756E+02 0.82221502738E+01 0.71081522641E+01
 0.66438579494E+01 0.64486666726E+01 0.63906145341E+01 0.64486666726E+01 0.66438579494E+01
 0.71081522641E+01 0.82221502738E+01 0.10744986756E+02 0.16875329373E+02 0.32547144592E+02
 0.63801451868E+02 0.11272158873E+03 0.17468854075E+03 0.23913561222E+03 0.29386668321E+03
 0.32968739060E+03 0.32968739060E+03 0.31763284939E+03 0.28271122010E+03 0.22956247687E+03
 0.16726272709E+03 0.10764878348E+03 0.60838042501E+02 0.31130553396E+02 0.16361175939E+02
 0.10595862247E+02 0.81721778081E+01 0.70977740538E+01 0.66479164261E+01 0.64583599264E+01
 0.64020269021E+01 0.64583599264E+01 0.66479164261E+01 0.70977740538E+01 0.81721778081E+01
 0.10595862248E+02 0.16361175939E+02 0.31130553396E+02 0.60838042501E+02 0.10764878348E+03
 0.16726272709E+03 0.22956247687E+03 0.28271122010E+03 0.31763284939E+03 0.29386668321E+03
 0.28271122010E+03 0.25059990483E+03 0.20224700711E+03 0.14628559362E+03 0.93478665264E+02