   2   2   0   0
  0.1348570E+02  0.2998940E-09  0.2998940E-09  0.2998940E-09  0.5000000E-15
  1.000000000000000E-004
  CAR 
 V                                       
     75.17018023    -60.17191167  301      9.67213905      1.00000000
    -60.172  0.0000E+00  0.0000E+00
    -59.721  0.0000E+00  0.0000E+00
    -59.270  0.0000E+00  0.0000E+00
    -58.818  0.0000E+00  0.0000E+00
    -58.367  0.0000E+00  0.0000E+00
    -57.916  0.0000E+00  0.0000E+00
    -57.465  0.0000E+00  0.0000E+00
    -57.014  0.0000E+00  0.0000E+00
    -56.563  0.0000E+00  0.0000E+00
    -56.112  0.0000E+00  0.0000E+00
    -55.661  0.0000E+00  0.0000E+00
    -55.209  0.0000E+00  0.0000E+00
    -54.758  0.0000E+00  0.0000E+00
    -54.307  0.1424E-17  0.6425E-18
    -53.856  0.2830E+01  0.1277E+01
    -53.405  0.2564E+01  0.4000E+01
    -52.954  0.0000E+00  0.4000E+01
    -52.503  0.0000E+00  0.4000E+01
    -52.051  0.0000E+00  0.4000E+01
    -51.600  0.0000E+00  0.4000E+01
    -51.149  0.0000E+00  0.4000E+01
    -50.698  0.0000E+00  0.4000E+01
    -50.247  0.0000E+00  0.4000E+01
    -49.796  0.0000E+00  0.4000E+01
    -49.345  0.0000E+00  0.4000E+01
    -48.893  0.0000E+00  0.4000E+01
    -48.442  0.0000E+00  0.4000E+01
    -47.991  0.0000E+00  0.4000E+01
    -47.540  0.0000E+00  0.4000E+01
    -47.089  0.0000E+00  0.4000E+01
    -46.638  0.0000E+00  0.4000E+01
    -46.187  0.0000E+00  0.4000E+01
    -45.735  0.0000E+00  0.4000E+01
    -45.284  0.0000E+00  0.4000E+01
    -44.833  0.0000E+00  0.4000E+01
    -44.382  0.0000E+00  0.4000E+01
    -43.931  0.0000E+00  0.4000E+01
    -43.480  0.0000E+00  0.4000E+01
    -43.029  0.0000E+00  0.4000E+01
    -42.577  0.0000E+00  0.4000E+01
    -42.126  0.0000E+00  0.4000E+01
    -41.675  0.0000E+00  0.4000E+01
    -41.224  0.0000E+00  0.4000E+01
    -40.773  0.0000E+00  0.4000E+01
    -40.322  0.0000E+00  0.4000E+01
    -39.871  0.0000E+00  0.4000E+01
    -39.419  0.0000E+00  0.4000E+01
    -38.968  0.0000E+00  0.4000E+01
    -38.517  0.0000E+00  0.4000E+01
    -38.066  0.0000E+00  0.4000E+01
    -37.615  0.0000E+00  0.4000E+01
    -37.164  0.0000E+00  0.4000E+01
    -36.713  0.0000E+00  0.4000E+01
    -36.261  0.0000E+00  0.4000E+01
    -35.810  0.0000E+00  0.4000E+01
    -35.359  0.0000E+00  0.4000E+01
    -34.908  0.0000E+00  0.4000E+01
    -34.457  0.0000E+00  0.4000E+01
    -34.006  0.0000E+00  0.4000E+01
    -33.555  0.0000E+00  0.4000E+01
    -33.103  0.0000E+00  0.4000E+01
    -32.652  0.0000E+00  0.4000E+01
    -32.201  0.0000E+00  0.4000E+01
    -31.750  0.0000E+00  0.4000E+01
    -31.299  0.0000E+00  0.4000E+01
    -30.848  0.0000E+00  0.4000E+01
    -30.397  0.0000E+00  0.4000E+01
    -29.946  0.0000E+00  0.4000E+01
    -29.494  0.0000E+00  0.4000E+01
    -29.043  0.0000E+00  0.4000E+01
    -28.592  0.0000E+00  0.4000E+01
    -28.141  0.1115E+01  0.4503E+01
    -27.690  0.1054E+02  0.9769E+01
    -27.239  0.1214E+02  0.1600E+02
    -26.788  0.0000E+00  0.1600E+02
    -26.336  0.0000E+00  0.1600E+02
    -25.885  0.0000E+00  0.1600E+02
    -25.434  0.0000E+00  0.1600E+02
    -24.983  0.0000E+00  0.1600E+02
    -24.532  0.0000E+00  0.1600E+02
    -24.081  0.0000E+00  0.1600E+02
    -23.630  0.0000E+00  0.1600E+02
    -23.178  0.0000E+00  0.1600E+02
    -22.727  0.0000E+00  0.1600E+02
    -22.276  0.0000E+00  0.1600E+02
    -21.825  0.0000E+00  0.1600E+02
    -21.374  0.0000E+00  0.1600E+02
    -20.923  0.0000E+00  0.1600E+02
    -20.472  0.0000E+00  0.1600E+02
    -20.020  0.0000E+00  0.1600E+02
    -19.569  0.0000E+00  0.1600E+02
    -19.118  0.0000E+00  0.1600E+02
    -18.667  0.0000E+00  0.1600E+02
    -18.216  0.0000E+00  0.1600E+02
    -17.765  0.0000E+00  0.1600E+02
    -17.314  0.0000E+00  0.1600E+02
    -16.862  0.0000E+00  0.1600E+02
    -16.411  0.0000E+00  0.1600E+02
    -15.960  0.0000E+00  0.1600E+02
    -15.509  0.0000E+00  0.1600E+02
    -15.058  0.0000E+00  0.1600E+02
    -14.607  0.0000E+00  0.1600E+02
    -14.156  0.0000E+00  0.1600E+02
    -13.704  0.0000E+00  0.1600E+02
    -13.253  0.0000E+00  0.1600E+02
    -12.802  0.0000E+00  0.1600E+02
    -12.351  0.0000E+00  0.1600E+02
    -11.900  0.0000E+00  0.1600E+02
    -11.449  0.0000E+00  0.1600E+02
    -10.998  0.0000E+00  0.1600E+02
    -10.546  0.0000E+00  0.1600E+02
    -10.095  0.0000E+00  0.1600E+02
     -9.644  0.0000E+00  0.1600E+02
     -9.193  0.0000E+00  0.1600E+02
     -8.742  0.0000E+00  0.1600E+02
     -8.291  0.0000E+00  0.1600E+02
     -7.840  0.0000E+00  0.1600E+02
     -7.388  0.0000E+00  0.1600E+02
     -6.937  0.0000E+00  0.1600E+02
     -6.486  0.0000E+00  0.1600E+02
     -6.035  0.0000E+00  0.1600E+02
     -5.584  0.0000E+00  0.1600E+02
     -5.133  0.0000E+00  0.1600E+02
     -4.682  0.0000E+00  0.1600E+02
     -4.231  0.0000E+00  0.1600E+02
     -3.779  0.0000E+00  0.1600E+02
     -3.328  0.0000E+00  0.1600E+02
     -2.877  0.0000E+00  0.1600E+02
     -2.426  0.0000E+00  0.1600E+02
     -1.975  0.0000E+00  0.1600E+02
     -1.524  0.0000E+00  0.1600E+02
     -1.073  0.0000E+00  0.1600E+02
     -0.621  0.0000E+00  0.1600E+02
     -0.170  0.0000E+00  0.1600E+02
      0.281  0.0000E+00  0.1600E+02
      0.732  0.0000E+00  0.1600E+02
      1.183  0.0000E+00  0.1600E+02
      1.634  0.0000E+00  0.1600E+02
      2.085  0.0000E+00  0.1600E+02
      2.537  0.0000E+00  0.1600E+02
      2.988  0.1167E-05  0.1600E+02
      3.439  0.4713E-01  0.1602E+02
      3.890  0.1111E+00  0.1607E+02
      4.341  0.1016E+00  0.1614E+02
      4.792  0.1979E+00  0.1623E+02
      5.243  0.2507E+00  0.1635E+02
      5.695  0.3212E+00  0.1651E+02
      6.146  0.3635E+00  0.1670E+02
      6.597  0.8839E+00  0.1712E+02
      7.048  0.1779E+01  0.1799E+02
      7.499  0.2406E+01  0.1916E+02
      7.950  0.1679E+01  0.2011E+02
      8.401  0.8885E+00  0.2065E+02
      8.853  0.3973E+01  0.2264E+02
      9.304  0.3294E+01  0.2438E+02
      9.755  0.3919E+01  0.2623E+02
     10.206  0.2176E+01  0.2731E+02
     10.657  0.8623E+00  0.2775E+02
     11.108  0.9953E+00  0.2826E+02
     11.559  0.2189E+01  0.2943E+02
     12.011  0.3853E+01  0.3128E+02
     12.462  0.4781E+01  0.3366E+02
     12.913  0.3457E+01  0.3589E+02
     13.364  0.1940E+01  0.3691E+02
     13.815  0.1166E+01  0.3753E+02
     14.266  0.7791E+00  0.3790E+02
     14.717  0.4793E+00  0.3815E+02
     15.169  0.6040E+00  0.3851E+02
     15.620  0.4354E+00  0.3873E+02
     16.071  0.4542E+00  0.3902E+02
     16.522  0.3194E+00  0.3920E+02
     16.973  0.4782E+00  0.3944E+02
     17.424  0.3393E+00  0.3961E+02
     17.875  0.2476E+00  0.3976E+02
     18.327  0.1523E+00  0.3986E+02
     18.778  0.1845E+00  0.3994E+02
     19.229  0.8307E-01  0.3999E+02
     19.680  0.3004E+00  0.4012E+02
     20.131  0.1433E+01  0.4086E+02
     20.582  0.8652E+00  0.4131E+02
     21.033  0.8015E+00  0.4172E+02
     21.484  0.9613E+00  0.4225E+02
     21.936  0.6059E+00  0.4259E+02
     22.387  0.1100E+01  0.4314E+02
     22.838  0.7690E+00  0.4349E+02
     23.289  0.7656E+00  0.4388E+02
     23.740  0.8466E+00  0.4433E+02
     24.191  0.8158E+00  0.4473E+02
     24.642  0.1051E+01  0.4525E+02
     25.094  0.9037E+00  0.4568E+02
     25.545  0.7849E+00  0.4611E+02
     25.996  0.1046E+01  0.4664E+02
     26.447  0.7384E+00  0.4702E+02
     26.898  0.1099E+01  0.4760E+02
     27.349  0.1175E+01  0.4818E+02
     27.800  0.9986E+00  0.4868E+02
     28.252  0.1324E+01  0.4933E+02
     28.703  0.1177E+01  0.4994E+02
     29.154  0.1070E+01  0.5050E+02
     29.605  0.5784E+00  0.5084E+02
     30.056  0.1089E+01  0.5152E+02
     30.507  0.7583E+00  0.5194E+02
     30.958  0.7539E+00  0.5231E+02
     31.410  0.8369E+00  0.5274E+02
     31.861  0.5188E+00  0.5298E+02
     32.312  0.7662E+00  0.5334E+02
     32.763  0.7218E+00  0.5367E+02
     33.214  0.1045E+01  0.5420E+02
     33.665  0.1245E+01  0.5486E+02
     34.116  0.6888E+00  0.5527E+02
     34.568  0.7663E+00  0.5564E+02
     35.019  0.5282E+00  0.5590E+02
     35.470  0.1253E+01  0.5650E+02
     35.921  0.1025E+01  0.5705E+02
     36.372  0.1108E+01  0.5760E+02
     36.823  0.9058E+00  0.5805E+02
     37.274  0.1402E+01  0.5875E+02
     37.726  0.1019E+01  0.5925E+02
     38.177  0.1136E+01  0.5981E+02
     38.628  0.1207E+01  0.6046E+02
     39.079  0.8397E+00  0.6086E+02
     39.530  0.9688E+00  0.6140E+02
     39.981  0.1415E+01  0.6212E+02
     40.432  0.9771E+00  0.6268E+02
     40.884  0.7586E+00  0.6305E+02
     41.335  0.9956E+00  0.6362E+02
     41.786  0.7356E+00  0.6404E+02
     42.237  0.1662E+01  0.6481E+02
     42.688  0.1104E+01  0.6534E+02
     43.139  0.1086E+01  0.6594E+02
     43.590  0.1231E+01  0.6659E+02
     44.041  0.1390E+01  0.6728E+02
     44.493  0.1633E+01  0.6809E+02
     44.944  0.1015E+01  0.6858E+02
     45.395  0.7870E+00  0.6901E+02
     45.846  0.1048E+01  0.6956E+02
     46.297  0.1341E+01  0.7021E+02
     46.748  0.1273E+01  0.7083E+02
     47.199  0.4330E+00  0.7107E+02
     47.651  0.1754E+01  0.7186E+02
     48.102  0.1308E+01  0.7252E+02
     48.553  0.7132E+00  0.7288E+02
     49.004  0.1510E+01  0.7356E+02
     49.455  0.1360E+01  0.7425E+02
     49.906  0.1108E+01  0.7481E+02
     50.357  0.8061E+00  0.7523E+02
     50.809  0.1018E+01  0.7573E+02
     51.260  0.1240E+01  0.7636E+02
     51.711  0.1229E+01  0.7700E+02
     52.162  0.1579E+01  0.7777E+02
     52.613  0.1214E+01  0.7845E+02
     53.064  0.1513E+01  0.7916E+02
     53.515  0.1999E+01  0.8014E+02
     53.967  0.1472E+01  0.8083E+02
     54.418  0.2055E+01  0.8177E+02
     54.869  0.1701E+01  0.8260E+02
     55.320  0.1779E+01  0.8360E+02
     55.771  0.1234E+01  0.8420E+02
     56.222  0.1148E+01  0.8474E+02
     56.673  0.9359E+00  0.8522E+02
     57.125  0.7495E+00  0.8556E+02
     57.576  0.1697E+01  0.8643E+02
     58.027  0.8804E+00  0.8688E+02
     58.478  0.7635E+00  0.8724E+02
     58.929  0.1163E+01  0.8786E+02
     59.380  0.8797E+00  0.8829E+02
     59.831  0.8773E+00  0.8870E+02
     60.283  0.1603E+01  0.8943E+02
     60.734  0.9722E+00  0.8997E+02
     61.185  0.1651E+01  0.9075E+02
     61.636  0.1810E+01  0.9161E+02
     62.087  0.1303E+01  0.9229E+02
     62.538  0.1310E+01  0.9295E+02
     62.989  0.9372E+00  0.9340E+02
     63.441  0.8650E+00  0.9382E+02
     63.892  0.7489E+00  0.9416E+02
     64.343  0.6185E+00  0.9446E+02
     64.794  0.8230E+00  0.9485E+02
     65.245  0.6872E+00  0.9518E+02
     65.696  0.5210E+00  0.9544E+02
     66.147  0.5049E+00  0.9567E+02
     66.599  0.2074E+00  0.9580E+02
     67.050  0.2183E+00  0.9591E+02
     67.501  0.7733E-01  0.9595E+02
     67.952  0.1430E-01  0.9596E+02
     68.403  0.5910E-01  0.9599E+02
     68.854  0.2681E-07  0.9599E+02
     69.305  0.1539E-01  0.9600E+02
     69.756  0.0000E+00  0.9600E+02
     70.208  0.0000E+00  0.9600E+02
     70.659  0.0000E+00  0.9600E+02
     71.110  0.0000E+00  0.9600E+02
     71.561  0.0000E+00  0.9600E+02
     72.012  0.0000E+00  0.9600E+02
     72.463  0.0000E+00  0.9600E+02
     72.914  0.0000E+00  0.9600E+02
     73.366  0.0000E+00  0.9600E+02
     73.817  0.0000E+00  0.9600E+02
     74.268  0.0000E+00  0.9600E+02
     74.719  0.0000E+00  0.9600E+02
     75.170  0.0000E+00  0.9600E+02
