    2    2    1    1
  0.1348570E+02  0.2998940E-09  0.2998940E-09  0.2998940E-09  0.5000000E-15
  1.000000000000000E-004
  CAR 
 V                                       
     26     84     48
 
  0.0000000E+00  0.0000000E+00  0.0000000E+00  0.5787037E-03
      1        -54.019998   1.000000
      2        -53.687232   1.000000
      3        -27.949576   1.000000
      4        -27.949576   1.000000
      5        -27.949576   1.000000
      6        -27.336964   1.000000
      7        -27.336964   1.000000
      8        -27.336964   1.000000
      9          3.105010   1.000000
     10          6.702701   1.000000
     11          6.702701   1.000000
     12         10.105686   0.000000
     13         10.105686   0.000000
     14         10.105686   0.000000
     15         12.099856   0.000000
     16         12.099856   0.000000
     17         13.408063   0.000000
     18         13.408063   0.000000
     19         13.408063   0.000000
     20         19.885868   0.000000
     21         19.885868   0.000000
     22         19.885868   0.000000
     23         26.598295   0.000000
     24         26.598295   0.000000
     25         30.172451   0.000000
     26         30.172451   0.000000
     27         30.172451   0.000000
     28         31.523175   0.000000
     29         37.208395   0.000000
     30         37.208395   0.000000
     31         41.468303   0.000000
     32         41.468303   0.000000
     33         41.468303   0.000000
     34         41.971452   0.000000
     35         42.181007   0.000000
     36         42.181007   0.000000
     37         42.181007   0.000000
     38         53.007349   0.000000
     39         53.007349   0.000000
     40         53.007349   0.000000
     41         54.732847   0.000000
     42         54.732847   0.000000
     43         54.732847   0.000000
     44         55.613884   0.000000
     45         63.789547   0.000000
     46         64.942952   0.000000
     47         64.942953   0.000000
     48         64.942953   0.000000
 
  0.8333333E-01  0.6023498E-32  0.0000000E+00  0.3472222E-02
      1        -54.013185   1.000000
      2        -53.692344   1.000000
      3        -27.950726   1.000000
      4        -27.938609   1.000000
      5        -27.938609   1.000000
      6        -27.358941   1.000000
      7        -27.346715   1.000000
      8        -27.346715   1.000000
      9          3.245607   1.000000
     10          6.778098   1.000000
     11          6.782274   1.000000
     12         10.096112   0.000000
     13         10.096112   0.000000
     14         10.155571   0.000000
     15         11.988024   0.000000
     16         12.141840   0.000000
     17         13.191941   0.000000
     18         13.191941   0.000000
     19         13.344224   0.000000
     20         19.282552   0.000000
     21         20.240932   0.000000
     22         20.240932   0.000000
     23         26.599117   0.000000
     24         26.921357   0.000000
     25         29.827364   0.000000
     26         30.289447   0.000000
     27         30.289447   0.000000
     28         31.906671   0.000000
     29         36.293076   0.000000
     30         37.909986   0.000000
     31         40.017057   0.000000
     32         40.017057   0.000000
     33         41.446286   0.000000
     34         41.894976   0.000000
     35         42.856875   0.000000
     36         43.730578   0.000000
     37         43.730578   0.000000
     38         51.391428   0.000000
     39         51.391428   0.000000
     40         52.654068   0.000000
     41         55.122209   0.000000
     42         55.857966   0.000000
     43         56.156033   0.000000
     44         56.156033   0.000000
     45         63.928813   0.000000
     46         64.530485   0.000000
     47         65.195818   0.000000
     48         65.195818   0.000000
 
  0.1666667E+00  0.5318049E-32  0.0000000E+00  0.3472222E-02
      1        -53.993809   1.000000
      2        -53.706660   1.000000
      3        -27.950781   1.000000
      4        -27.906523   1.000000
      5        -27.906523   1.000000
      6        -27.421368   1.000000
      7        -27.375401   1.000000
      8        -27.375401   1.000000
      9          3.655933   1.000000
     10          6.994639   1.000000
     11          7.001352   1.000000
     12         10.077957   0.000000
     13         10.077957   0.000000
     14         10.302912   0.000000
     15         11.664655   0.000000
     16         12.260265   0.000000
     17         12.665945   0.000000
     18         12.665945   0.000000
     19         13.158833   0.000000
     20         17.922317   0.000000
     21         21.180294   0.000000
     22         21.180294   0.000000
     23         26.603344   0.000000
     24         27.367360   0.000000
     25         29.089128   0.000000
     26         30.545395   0.000000
     27         30.545395   0.000000
     28         33.178336   0.000000
     29         34.428587   0.000000
     30         38.503567   0.000000
     31         38.503567   0.000000
     32         39.703774   0.000000
     33         41.385482   0.000000
     34         41.704370   0.000000
     35         44.053369   0.000000
     36         45.627360   0.000000
     37         45.627360   0.000000
     38         49.077244   0.000000
     39         49.077244   0.000000
     40         51.826039   0.000000
     41         56.047392   0.000000
     42         56.241731   0.000000
     43         57.779794   0.000000
     44         57.779794   0.000000
     45         62.249647   0.000000
     46         65.928985   0.000000
     47         65.928985   0.000000
     48         66.476014   0.000000
 
  0.2500000E+00  0.8648018E-32  0.0000000E+00  0.3472222E-02
      1        -53.963908   1.000000
      2        -53.728976   1.000000
      3        -27.943819   1.000000
      4        -27.855375   1.000000
      5        -27.855375   1.000000
      6        -27.513200   1.000000
      7        -27.421666   1.000000
      8        -27.421666   1.000000
      9          4.300651   1.000000
     10          7.254086   1.000000
     11          7.365829   1.000000
     12         10.078961   0.000000
     13         10.078961   0.000000
     14         10.540686   0.000000
     15         11.163422   0.000000
     16         12.034976   0.000000
     17         12.034976   0.000000
     18         12.436276   0.000000
     19         12.869311   0.000000
     20         16.388281   0.000000
     21         22.489660   0.000000
     22         22.489660   0.000000
     23         26.623398   0.000000
     24         27.520214   0.000000
     25         28.334256   0.000000
     26         30.619826   0.000000
     27         30.619826   0.000000
     28         32.436000   0.000000
     29         35.295438   0.000000
     30         37.544428   0.000000
     31         37.544428   0.000000
     32         41.300662   0.000000
     33         41.479904   0.000000
     34         42.171230   0.000000
     35         45.105154   0.000000
     36         46.717023   0.000000
     37         46.717023   0.000000
     38         47.564251   0.000000
     39         47.564251   0.000000
     40         50.869334   0.000000
     41         54.619506   0.000000
     42         57.992706   0.000000
     43         58.454692   0.000000
     44         58.454692   0.000000
     45         62.266910   0.000000
     46         63.600516   0.000000
     47         67.041564   0.000000
     48         67.041564   0.000000
 
  0.3333333E+00  0.2083449E-31  0.0000000E+00  0.3472222E-02
      1        -53.926124   1.000000
      2        -53.760162   1.000000
      3        -27.922539   1.000000
      4        -27.789742   1.000000
      5        -27.789742   1.000000
      6        -27.618950   1.000000
      7        -27.482866   1.000000
      8        -27.482866   1.000000
      9          5.115857   1.000000
     10          7.412094   1.000000
     11          7.856690   1.000000
     12         10.134921   0.000000
     13         10.134921   0.000000
     14         10.534888   0.000000
     15         10.856769   0.000000
     16         11.432389   0.000000
     17         11.432389   0.000000
     18         12.501099   0.000000
     19         12.650214   0.000000
     20         15.000380   0.000000
     21         24.014188   0.000000
     22         24.014188   0.000000
     23         26.673247   0.000000
     24         27.552639   0.000000
     25         27.717320   0.000000
     26         30.072391   0.000000
     27         30.072391   0.000000
     28         30.641861   0.000000
     29         37.563858   0.000000
     30         37.563858   0.000000
     31         37.954159   0.000000
     32         41.202919   0.000000
     33         41.282712   0.000000
     34         44.395973   0.000000
     35         44.395973   0.000000
     36         45.098129   0.000000
     37         45.858059   0.000000
     38         49.538587   0.000000
     39         49.538587   0.000000
     40         49.964501   0.000000
     41         51.839023   0.000000
     42         57.609620   0.000000
     43         57.609620   0.000000
     44         59.735146   0.000000
     45         60.244626   0.000000
     46         63.808880   0.000000
     47         67.442824   0.000000
     48         67.442824   0.000000
 
  0.4166667E+00  0.1127254E-31  0.0000000E+00  0.3472222E-02
      1        -53.883181   1.000000
      2        -53.797411   1.000000
      3        -27.879809   1.000000
      4        -27.722961   1.000000
      5        -27.714009   1.000000
      6        -27.714009   1.000000
      7        -27.555039   1.000000
      8        -27.555039   1.000000
      9          5.997844   1.000000
     10          7.288998   1.000000
     11          8.453700   1.000000
     12          9.837209   0.000002
     13         10.280185   0.000000
     14         10.280185   0.000000
     15         10.924721   0.000000
     16         10.924721   0.000000
     17         11.235020   0.000000
     18         12.085215   0.000000
     19         12.908210   0.000000
     20         13.948098   0.000000
     21         25.652820   0.000000
     22         25.652820   0.000000
     23         26.777603   0.000000
     24         27.267258   0.000000
     25         27.730731   0.000000
     26         28.866177   0.000000
     27         28.866177   0.000000
     28         29.217909   0.000000
     29         38.566621   0.000000
     30         38.566621   0.000000
     31         40.903592   0.000000
     32         41.135748   0.000000
     33         41.155270   0.000000
     34         42.192541   0.000000
     35         42.192541   0.000000
     36         45.880190   0.000000
     37         48.385103   0.000000
     38         49.193261   0.000000
     39         49.273700   0.000000
     40         51.583194   0.000000
     41         51.583194   0.000000
     42         55.778616   0.000000
     43         55.788231   0.000000
     44         55.788231   0.000000
     45         62.932217   0.000000
     46         65.486494   0.000000
     47         67.900071   0.000000
     48         69.018267   0.000000
 
  0.5000000E+00  0.1729604E-31  0.0000000E+00  0.1736111E-02
      1        -53.839562   1.000000
      2        -53.839562   1.000000
      3        -27.812724   1.000000
      4        -27.812724   1.000000
      5        -27.633951   1.000000
      6        -27.633951   1.000000
      7        -27.633951   1.000000
      8        -27.633951   1.000000
      9          6.786053   1.000000
     10          6.786053   1.000000
     11          9.127023   1.000000
     12          9.127023   1.000000
     13         10.539193   0.000000
     14         10.539193   0.000000
     15         10.539193   0.000000
     16         10.539193   0.000000
     17         11.653081   0.000000
     18         11.653081   0.000000
     19         13.288355   0.000000
     20         13.288355   0.000000
     21         26.964546   0.000000
     22         26.964546   0.000000
     23         27.313187   0.000000
     24         27.313187   0.000000
     25         27.313187   0.000000
     26         27.313187   0.000000
     27         28.249820   0.000000
     28         28.249820   0.000000
     29         40.199138   0.000000
     30         40.199138   0.000000
     31         40.199138   0.000000
     32         40.199138   0.000000
     33         41.106738   0.000000
     34         41.106738   0.000000
     35         43.872560   0.000000
     36         43.872560   0.000000
     37         48.678348   0.000000
     38         48.678348   0.000000
     39         51.964161   0.000000
     40         51.964161   0.000000
     41         53.685856   0.000000
     42         53.685856   0.000000
     43         53.685856   0.000000
     44         53.685856   0.000000
     45         65.954517   0.000000
     46         65.954517   0.000000
     47         66.815670   0.000000
     48         66.815670   0.000000
 
  0.8333333E-01  0.8333333E-01  0.0000000E+00  0.6944444E-02
      1        -54.006662   1.000000
      2        -53.696819   1.000000
      3        -27.968988   1.000000
      4        -27.927896   1.000000
      5        -27.910645   1.000000
      6        -27.399379   1.000000
      7        -27.356084   1.000000
      8        -27.337236   1.000000
      9          3.383832   1.000000
     10          6.850753   1.000000
     11          6.862813   1.000000
     12          9.988118   0.000000
     13         10.076954   0.000000
     14         10.304188   0.000000
     15         11.970655   0.000000
     16         12.108158   0.000000
     17         12.859643   0.000000
     18         12.979497   0.000000
     19         13.433576   0.000000
     20         19.420901   0.000000
     21         19.812947   0.000000
     22         20.559624   0.000000
     23         26.748114   0.000000
     24         27.168782   0.000000
     25         29.670676   0.000000
     26         30.110878   0.000000
     27         30.411524   0.000000
     28         32.253707   0.000000
     29         36.384419   0.000000
     30         37.659358   0.000000
     31         39.124071   0.000000
     32         39.420314   0.000000
     33         41.747671   0.000000
     34         41.775621   0.000000
     35         43.755409   0.000000
     36         44.220425   0.000000
     37         44.397170   0.000000
     38         49.915178   0.000000
     39         50.906163   0.000000
     40         53.462846   0.000000
     41         54.475397   0.000000
     42         56.159469   0.000000
     43         56.304076   0.000000
     44         57.543997   0.000000
     45         63.782413   0.000000
     46         64.500230   0.000000
     47         65.249483   0.000000
     48         65.439551   0.000000
 
  0.1666667E+00  0.8333333E-01  0.0000000E+00  0.1388889E-01
      1        -53.987881   1.000000
      2        -53.710437   1.000000
      3        -27.983558   1.000000
      4        -27.896759   1.000000
      5        -27.865677   1.000000
      6        -27.474794   1.000000
      7        -27.383644   1.000000
      8        -27.350485   1.000000
      9          3.786747   1.000000
     10          7.054189   1.000000
     11          7.087543   1.000000
     12          9.893056   0.000000
     13         10.031038   0.000000
     14         10.528809   0.000000
     15         11.719579   0.000000
     16         12.207864   0.000000
     17         12.294948   0.000000
     18         12.469702   0.000000
     19         13.361345   0.000000
     20         18.162450   0.000000
     21         20.549366   0.000000
     22         21.425736   0.000000
     23         26.799216   0.000000
     24         27.736333   0.000000
     25         28.905721   0.000000
     26         30.101763   0.000000
     27         30.684754   0.000000
     28         33.431358   0.000000
     29         35.099771   0.000000
     30         37.765010   0.000000
     31         37.873713   0.000000
     32         39.556509   0.000000
     33         41.460737   0.000000
     34         41.904610   0.000000
     35         44.797269   0.000000
     36         45.832386   0.000000
     37         45.915319   0.000000
     38         47.862342   0.000000
     39         49.335839   0.000000
     40         53.111037   0.000000
     41         54.930107   0.000000
     42         56.509281   0.000000
     43         57.323343   0.000000
     44         59.207107   0.000000
     45         62.164316   0.000000
     46         64.979843   0.000000
     47         66.145850   0.000000
     48         66.342611   0.000000
 
  0.2500000E+00  0.8333333E-01  0.0000000E+00  0.1388889E-01
      1        -53.959029   1.000000
      2        -53.732230   1.000000
      3        -27.986239   1.000000
      4        -27.847292   1.000000
      5        -27.808041   1.000000
      6        -27.572749   1.000000
      7        -27.428195   1.000000
      8        -27.386837   1.000000
      9          4.417828   1.000000
     10          7.317365   1.000000
     11          7.430133   1.000000
     12          9.847004   0.000000
     13          9.978154   0.000000
     14         10.812478   0.000000
     15         11.301656   0.000000
     16         11.673767   0.000000
     17         11.878980   0.000000
     18         12.392308   0.000000
     19         13.130556   0.000000
     20         16.597928   0.000000
     21         21.721727   0.000000
     22         22.668528   0.000000
     23         26.830239   0.000000
     24         28.033046   0.000000
     25         28.079644   0.000000
     26         29.806885   0.000000
     27         30.779414   0.000000
     28         33.604005   0.000000
     29         35.453168   0.000000
     30         36.800766   0.000000
     31         37.198444   0.000000
     32         41.029874   0.000000
     33         41.800622   0.000000
     34         41.950121   0.000000
     35         45.612401   0.000000
     36         45.784127   0.000000
     37         47.331658   0.000000
     38         47.713073   0.000000
     39         47.820656   0.000000
     40         52.036639   0.000000
     41         55.178110   0.000000
     42         56.175190   0.000000
     43         58.041248   0.000000
     44         60.132725   0.000000
     45         62.102276   0.000000
     46         63.954354   0.000000
     47         64.856612   0.000000
     48         66.054369   0.000000
 
  0.3333333E+00  0.8333333E-01  0.0000000E+00  0.1388889E-01
      1        -53.922075   1.000000
      2        -53.761696   1.000000
      3        -27.971468   1.000000
      4        -27.783400   1.000000
      5        -27.739532   1.000000
      6        -27.680065   1.000000
      7        -27.487083   1.000000
      8        -27.441295   1.000000
      9          5.212176   1.000000
     10          7.468611   1.000000
     11          7.892564   1.000000
     12          9.873167   0.000000
     13          9.891719   0.000000
     14         10.852390   0.000000
     15         11.091934   0.000000
     16         11.154640   0.000000
     17         11.357865   0.000000
     18         12.614505   0.000000
     19         12.793380   0.000000
     20         15.158738   0.000000
     21         23.019561   0.000000
     22         24.146111   0.000000
     23         26.887704   0.000000
     24         27.228026   0.000000
     25         28.358299   0.000000
     26         28.972520   0.000000
     27         30.216455   0.000000
     28         32.257403   0.000000
     29         36.753648   0.000000
     30         37.288219   0.000000
     31         38.015545   0.000000
     32         40.499682   0.000000
     33         42.014921   0.000000
     34         43.758781   0.000000
     35         44.522284   0.000000
     36         45.373846   0.000000
     37         46.311722   0.000000
     38         49.633704   0.000000
     39         49.748267   0.000000
     40         50.925224   0.000000
     41         52.585726   0.000000
     42         56.866576   0.000000
     43         56.899135   0.000000
     44         60.557758   0.000000
     45         60.600363   0.000000
     46         63.517690   0.000000
     47         64.888568   0.000000
     48         67.473349   0.000000
 
  0.4166667E+00  0.8333333E-01  0.0000000E+00  0.1388889E-01
      1        -53.880557   1.000000
      2        -53.797503   1.000000
      3        -27.933717   1.000000
      4        -27.783206   1.000000
      5        -27.710047   1.000000
      6        -27.663490   1.000000
      7        -27.556562   1.000000
      8        -27.509076   1.000000
      9          6.066857   1.000000
     10          7.331417   1.000000
     11          8.447774   1.000000
     12          9.593962   0.986489
     13          9.996952   0.000000
     14         10.604656   0.000000
     15         10.630212   0.000000
     16         10.975462   0.000000
     17         11.545590   0.000000
     18         12.393203   0.000000
     19         12.885554   0.000000
     20         14.032271   0.000000
     21         24.296625   0.000000
     22         25.756375   0.000000
     23         26.416631   0.000000
     24         27.029527   0.000000
     25         28.016429   0.000000
     26         28.860416   0.000000
     27         28.975142   0.000000
     28         30.926928   0.000000
     29         37.573441   0.000000
     30         38.254623   0.000000
     31         39.777349   0.000000
     32         40.554110   0.000000
     33         42.126828   0.000000
     34         42.214884   0.000000
     35         43.755417   0.000000
     36         45.859896   0.000000
     37         47.982355   0.000000
     38         49.656810   0.000000
     39         49.965753   0.000000
     40         51.642923   0.000000
     41         52.455034   0.000000
     42         54.308394   0.000000
     43         55.661625   0.000000
     44         57.385429   0.000000
     45         62.475292   0.000000
     46         64.878348   0.000000
     47         65.631861   0.000000
     48         68.341237   0.000000
 
  0.5000000E+00  0.8333333E-01  0.0000000E+00  0.6944444E-02
      1        -53.838021   1.000000
      2        -53.838021   1.000000
      3        -27.870295   1.000000
      4        -27.870295   1.000000
      5        -27.632615   1.000000
      6        -27.632615   1.000000
      7        -27.584857   1.000000
      8        -27.584857   1.000000
      9          6.831398   1.000000
     10          6.831398   1.000000
     11          9.048116   1.000000
     12          9.048116   1.000000
     13         10.237793   0.000000
     14         10.237793   0.000000
     15         10.723900   0.000000
     16         10.723900   0.000000
     17         11.966780   0.000000
     18         11.966780   0.000000
     19         13.302385   0.000000
     20         13.302385   0.000000
     21         25.448484   0.000000
     22         25.448484   0.000000
     23         27.361447   0.000000
     24         27.361447   0.000000
     25         27.407919   0.000000
     26         27.407919   0.000000
     27         29.732882   0.000000
     28         29.732882   0.000000
     29         38.740450   0.000000
     30         38.740450   0.000000
     31         39.728376   0.000000
     32         39.728376   0.000000
     33         42.717850   0.000000
     34         42.717850   0.000000
     35         44.010430   0.000000
     36         44.010430   0.000000
     37         49.310924   0.000000
     38         49.310924   0.000000
     39         51.153459   0.000000
     40         51.153459   0.000000
     41         53.699728   0.000000
     42         53.699728   0.000000
     43         54.694262   0.000000
     44         54.694262   0.000000
     45         65.243507   0.000000
     46         65.243507   0.000000
     47         65.660817   0.000000
     48         65.660817   0.000000
 
  0.1666667E+00  0.1666667E+00  0.0000000E+00  0.6944444E-02
      1        -53.970978   1.000000
      2        -53.722238   1.000000
      3        -28.021850   1.000000
      4        -27.868262   1.000000
      5        -27.802358   1.000000
      6        -27.568668   1.000000
      7        -27.408048   1.000000
      8        -27.338168   1.000000
      9          4.165766   1.000000
     10          7.207090   1.000000
     11          7.336599   1.000000
     12          9.679511   0.417412
     13          9.922002   0.000000
     14         10.871129   0.000000
     15         11.683946   0.000000
     16         11.771623   0.000000
     17         12.016901   0.000000
     18         12.141084   0.000000
     19         13.503815   0.000000
     20         18.273198   0.000000
     21         19.722578   0.000000
     22         22.127887   0.000000
     23         26.865698   0.000000
     24         28.155062   0.000000
     25         28.674120   0.000000
     26         29.538273   0.000000
     27         31.024267   0.000000
     28         34.326471   0.000000
     29         35.902761   0.000000
     30         36.415471   0.000000
     31         36.998265   0.000000
     32         39.532043   0.000000
     33         40.847424   0.000000
     34         42.633954   0.000000
     35         45.965013   0.000000
     36         45.997810   0.000000
     37         46.802273   0.000000
     38         46.836600   0.000000
     39         49.568054   0.000000
     40         53.816207   0.000000
     41         54.757946   0.000000
     42         56.604569   0.000000
     43         57.446277   0.000000
     44         60.908667   0.000000
     45         61.051654   0.000000
     46         63.636688   0.000000
     47         64.307335   0.000000
     48         66.318197   0.000000
 
  0.2500000E+00  0.1666667E+00  0.0000000E+00  0.1388889E-01
      1        -53.944438   1.000000
      2        -53.741105   1.000000
      3        -28.045938   1.000000
      4        -27.823275   1.000000
      5        -27.731648   1.000000
      6        -27.678227   1.000000
      7        -27.447306   1.000000
      8        -27.351388   1.000000
      9          4.752222   1.000000
     10          7.401277   1.000000
     11          7.692084   1.000000
     12          9.531742   0.999964
     13          9.798617   0.000174
     14         11.060740   0.000000
     15         11.251996   0.000000
     16         11.544796   0.000000
     17         11.581323   0.000000
     18         12.279799   0.000000
     19         13.451313   0.000000
     20         16.990840   0.000000
     21         20.373304   0.000000
     22         23.201036   0.000000
     23         26.828974   0.000000
     24         27.073425   0.000000
     25         28.962464   0.000000
     26         29.482904   0.000000
     27         31.225036   0.000000
     28         35.321116   0.000000
     29         35.452803   0.000000
     30         36.000095   0.000000
     31         36.570765   0.000000
     32         40.056667   0.000000
     33         40.900508   0.000000
     34         43.138277   0.000000
     35         44.216587   0.000000
     36         46.727284   0.000000
     37         48.218454   0.000000
     38         48.725701   0.000000
     39         48.740166   0.000000
     40         54.259746   0.000000
     41         54.262698   0.000000
     42         56.517011   0.000000
     43         57.167091   0.000000
     44         60.710004   0.000000
     45         61.315996   0.000000
     46         61.603864   0.000000
     47         64.469987   0.000000
     48         65.157538   0.000000
 
  0.3333333E+00  0.1666667E+00  0.0000000E+00  0.1388889E-01
      1        -53.910813   1.000000
      2        -53.767054   1.000000
      3        -28.049189   1.000000
      4        -27.790371   1.000000
      5        -27.765394   1.000000
      6        -27.656568   1.000000
      7        -27.499437   1.000000
      8        -27.386925   1.000000
      9          5.474760   1.000000
     10          7.500920   1.000000
     11          8.109438   1.000000
     12          9.476741   1.000000
     13          9.656513   0.670741
     14         10.501468   0.000000
     15         11.227903   0.000000
     16         11.312883   0.000000
     17         11.661263   0.000000
     18         12.513416   0.000000
     19         13.235575   0.000000
     20         15.494171   0.000000
     21         21.439185   0.000000
     22         24.544866   0.000000
     23         25.949801   0.000000
     24         26.790069   0.000000
     25         28.216324   0.000000
     26         30.141396   0.000000
     27         30.633391   0.000000
     28         34.337919   0.000000
     29         35.203299   0.000000
     30         36.785856   0.000000
     31         38.166855   0.000000
     32         39.159872   0.000000
     33         42.687835   0.000000
     34         43.062960   0.000000
     35         43.556322   0.000000
     36         47.276003   0.000000
     37         47.568715   0.000000
     38         49.947750   0.000000
     39         50.636593   0.000000
     40         52.937970   0.000000
     41         53.944509   0.000000
     42         55.350453   0.000000
     43         55.835053   0.000000
     44         61.025017   0.000000
     45         61.094196   0.000000
     46         61.959996   0.000000
     47         62.249656   0.000000
     48         66.587714   0.000000
 
  0.4166667E+00  0.1666667E+00  0.0000000E+00  0.1388889E-01
      1        -53.873275   1.000000
      2        -53.798695   1.000000
      3        -28.025611   1.000000
      4        -27.892192   1.000000
      5        -27.699174   1.000000
      6        -27.580042   1.000000
      7        -27.561484   1.000000
      8        -27.440185   1.000000