<?xml version="1.0" encoding="ISO-8859-1"?>
<modeling>
 <generator>
  <i name="program" type="string">vasp </i>
  <i name="version" type="string">6.4.3  </i>
  <i name="subversion" type="string">19Mar24 (build Jun 26 2024 13:02:28) complex                          parallel </i>
  <i name="platform" type="string">LinuxIFC </i>
  <i name="date" type="string">2025 08 08 </i>
  <i name="time" type="string">18:47:54 </i>
 </generator>
 <incar>
  <i type="string" name="SYSTEM">V</i>
  <i type="int" name="IBRION">    -1</i>
  <i type="int" name="ISYM">     2</i>
  <i name="ENCUT">    342.77490000</i>
  <i type="int" name="ISMEAR">     0</i>
  <i name="SIGMA">      0.05000000</i>
  <i type="logical" name="LWAVE"> T  </i>
  <i type="logical" name="LCHARG"> T  </i>
 </incar>
 <primitive_cell>
  <structure name="primitive_cell" >
   <crystal>
    <varray name="basis" >
     <v>       1.49947000       1.49947000      -1.49947000 </v>
     <v>      -1.49947000       1.49947000       1.49947000 </v>
     <v>       1.49947000      -1.49947000       1.49947000 </v>
    </varray>
    <i name="volume">     13.48569506 </i>
    <varray name="rec_basis" >
     <v>       0.33345115       0.33345115       0.00000000 </v>
     <v>      -0.00000000       0.33345115       0.33345115 </v>
     <v>       0.33345115      -0.00000000       0.33345115 </v>
    </varray>
   </crystal>
   <varray name="positions" >
    <v>       0.00000000       0.00000000       0.00000000 </v>
   </varray>
  </structure>
  <varray name="primitive_index" >
   <v type="int" >        1 </v>
  </varray>
 </primitive_cell>
 <kpoints>
  <generation param="Gamma">
   <v type="int" name="divisions">      12       12       12 </v>
   <v name="usershift">      0.00000000       0.00000000       0.00000000 </v>
   <v name="genvec1">      0.08333333       0.00000000       0.00000000 </v>
   <v name="genvec2">      0.00000000       0.08333333       0.00000000 </v>
   <v name="genvec3">      0.00000000       0.00000000       0.08333333 </v>
   <v name="shift">      0.00000000       0.00000000       0.00000000 </v>
  </generation>
  <varray name="kpointlist" >
   <v>       0.00000000       0.00000000       0.00000000 </v>
   <v>       0.08333333       0.00000000       0.00000000 </v>
   <v>       0.16666667       0.00000000       0.00000000 </v>
   <v>       0.25000000       0.00000000       0.00000000 </v>
   <v>       0.33333333       0.00000000       0.00000000 </v>
   <v>       0.41666667       0.00000000       0.00000000 </v>
   <v>       0.50000000       0.00000000       0.00000000 </v>
   <v>       0.08333333       0.08333333       0.00000000 </v>
   <v>       0.16666667       0.08333333       0.00000000 </v>
   <v>       0.25000000       0.08333333       0.00000000 </v>
   <v>       0.33333333       0.08333333       0.00000000 </v>
   <v>       0.41666667       0.08333333       0.00000000 </v>
   <v>       0.50000000       0.08333333       0.00000000 </v>
   <v>       0.16666667       0.16666667       0.00000000 </v>
   <v>       0.25000000       0.16666667       0.00000000 </v>
   <v>       0.33333333       0.16666667       0.00000000 </v>
   <v>       0.41666667       0.16666667       0.00000000 </v>
   <v>       0.50000000       0.16666667       0.00000000 </v>
   <v>       0.25000000       0.25000000       0.00000000 </v>
   <v>       0.33333333       0.25000000       0.00000000 </v>
   <v>       0.41666667       0.25000000       0.00000000 </v>
   <v>       0.50000000       0.25000000       0.00000000 </v>
   <v>       0.33333333       0.33333333       0.00000000 </v>
   <v>       0.41666667       0.33333333       0.00000000 </v>
   <v>       0.50000000       0.33333333       0.00000000 </v>
   <v>       0.41666667       0.41666667       0.00000000 </v>
   <v>       0.50000000       0.41666667       0.00000000 </v>
   <v>       0.50000000       0.50000000       0.00000000 </v>
   <v>       0.08333333       0.08333333       0.08333333 </v>
   <v>       0.16666667       0.08333333       0.08333333 </v>
   <v>       0.25000000       0.08333333       0.08333333 </v>
   <v>       0.33333333       0.08333333       0.08333333 </v>
   <v>       0.41666667       0.08333333       0.08333333 </v>
   <v>       0.50000000       0.08333333       0.08333333 </v>
   <v>       0.16666667       0.16666667       0.08333333 </v>
   <v>       0.25000000       0.16666667       0.08333333 </v>
   <v>       0.33333333       0.16666667       0.08333333 </v>
   <v>       0.41666667       0.16666667       0.08333333 </v>
   <v>       0.50000000       0.16666667       0.08333333 </v>
   <v>       0.25000000       0.25000000       0.08333333 </v>
   <v>       0.33333333       0.25000000       0.08333333 </v>
   <v>       0.41666667       0.25000000       0.08333333 </v>
   <v>       0.50000000       0.25000000       0.08333333 </v>
   <v>       0.33333333       0.33333333       0.08333333 </v>
   <v>       0.41666667       0.33333333       0.08333333 </v>
   <v>       0.50000000       0.33333333       0.08333333 </v>
   <v>       0.41666667       0.41666667       0.08333333 </v>
   <v>       0.50000000       0.41666667       0.08333333 </v>
   <v>       0.50000000       0.50000000       0.08333333 </v>
   <v>       0.16666667       0.16666667       0.16666667 </v>
   <v>       0.25000000       0.16666667       0.16666667 </v>
   <v>       0.33333333       0.16666667       0.16666667 </v>
   <v>       0.41666667       0.16666667       0.16666667 </v>
   <v>       0.50000000       0.16666667       0.16666667 </v>
   <v>       0.25000000       0.25000000       0.16666667 </v>
   <v>       0.33333333       0.25000000       0.16666667 </v>
   <v>       0.41666667       0.25000000       0.16666667 </v>
   <v>       0.50000000       0.25000000       0.16666667 </v>
   <v>       0.33333333       0.33333333       0.16666667 </v>
   <v>       0.41666667       0.33333333       0.16666667 </v>
   <v>       0.50000000       0.33333333       0.16666667 </v>
   <v>       0.41666667       0.41666667       0.16666667 </v>
   <v>       0.50000000       0.41666667       0.16666667 </v>
   <v>       0.50000000       0.50000000       0.16666667 </v>
   <v>       0.25000000       0.25000000       0.25000000 </v>
   <v>       0.33333333       0.25000000       0.25000000 </v>
   <v>       0.41666667       0.25000000       0.25000000 </v>
   <v>       0.50000000       0.25000000       0.25000000 </v>
   <v>       0.33333333       0.33333333       0.25000000 </v>
   <v>       0.41666667       0.33333333       0.25000000 </v>
   <v>       0.50000000       0.33333333       0.25000000 </v>
   <v>       0.41666667       0.41666667       0.25000000 </v>
   <v>       0.50000000       0.41666667       0.25000000 </v>
   <v>       0.50000000       0.50000000       0.25000000 </v>
   <v>       0.33333333       0.33333333       0.33333333 </v>
   <v>       0.41666667       0.33333333       0.33333333 </v>
   <v>       0.50000000       0.33333333       0.33333333 </v>
   <v>       0.41666667       0.41666667       0.33333333 </v>
   <v>       0.50000000       0.41666667       0.33333333 </v>
   <v>       0.50000000       0.50000000       0.33333333 </v>
   <v>       0.41666667       0.41666667       0.41666667 </v>
   <v>       0.50000000       0.41666667       0.41666667 </v>
   <v>       0.50000000       0.50000000       0.41666667 </v>
   <v>       0.50000000       0.50000000       0.50000000 </v>
  </varray>
  <varray name="weights" >
   <v>       0.00057870 </v>
   <v>       0.00347222 </v>
   <v>       0.00347222 </v>
   <v>       0.00347222 </v>
   <v>       0.00347222 </v>
   <v>       0.00347222 </v>
   <v>       0.00173611 </v>
   <v>       0.00694444 </v>
   <v>       0.01388889 </v>
   <v>       0.01388889 </v>
   <v>       0.01388889 </v>
   <v>       0.01388889 </v>
   <v>       0.00694444 </v>
   <v>       0.00694444 </v>
   <v>       0.01388889 </v>
   <v>       0.01388889 </v>
   <v>       0.01388889 </v>
   <v>       0.00694444 </v>
   <v>       0.00694444 </v>
   <v>       0.01388889 </v>
   <v>       0.01388889 </v>
   <v>       0.00694444 </v>
   <v>       0.00694444 </v>
   <v>       0.01388889 </v>
   <v>       0.00694444 </v>
   <v>       0.00694444 </v>
   <v>       0.00694444 </v>
   <v>       0.00173611 </v>
   <v>       0.00462963 </v>
   <v>       0.01388889 </v>
   <v>       0.01388889 </v>
   <v>       0.01388889 </v>
   <v>       0.01388889 </v>
   <v>       0.00694444 </v>
   <v>       0.01388889 </v>
   <v>       0.02777778 </v>
   <v>       0.02777778 </v>
   <v>       0.02777778 </v>
   <v>       0.01388889 </v>
   <v>       0.01388889 </v>
   <v>       0.02777778 </v>
   <v>       0.02777778 </v>
   <v>       0.01388889 </v>
   <v>       0.01388889 </v>
   <v>       0.02777778 </v>
   <v>       0.01388889 </v>
   <v>       0.01388889 </v>
   <v>       0.01388889 </v>
   <v>       0.00347222 </v>
   <v>       0.00462963 </v>
   <v>       0.01388889 </v>
   <v>       0.01388889 </v>
   <v>       0.01388889 </v>
   <v>       0.00694444 </v>
   <v>       0.01388889 </v>
   <v>       0.02777778 </v>
   <v>       0.02777778 </v>
   <v>       0.01388889 </v>
   <v>       0.01388889 </v>
   <v>       0.02777778 </v>
   <v>       0.01388889 </v>
   <v>       0.01388889 </v>
   <v>       0.01388889 </v>
   <v>       0.00347222 </v>
   <v>       0.00462963 </v>
   <v>       0.01388889 </v>
   <v>       0.01388889 </v>
   <v>       0.00694444 </v>
   <v>       0.01388889 </v>
   <v>       0.02777778 </v>
   <v>       0.01388889 </v>
   <v>       0.01388889 </v>
   <v>       0.01388889 </v>
   <v>       0.00347222 </v>
   <v>       0.00462963 </v>
   <v>       0.01388889 </v>
   <v>       0.00694444 </v>
   <v>       0.01388889 </v>
   <v>       0.01388889 </v>
   <v>       0.00347222 </v>
   <v>       0.00462963 </v>
   <v>       0.00694444 </v>
   <v>       0.00347222 </v>
   <v>       0.00057870 </v>
  </varray>
 </kpoints>
 <parameters>
  <separator name="general" >
   <i type="string" name="SYSTEM">V</i>
   <i type="logical" name="LCOMPAT"> F  </i>
  </separator>
  <separator name="electronic" >
   <i type="string" name="PREC">normal</i>
   <i name="ENMAX">    342.77490000</i>
   <i name="ENAUG">    526.56800000</i>
   <i name="EDIFF">      0.00010000</i>
   <i type="int" name="IALGO">    38</i>
   <i type="int" name="IWAVPR">    10</i>
   <i type="int" name="NBANDS">    48</i>
   <i type="int" name="NBANDSLOW">    -1</i>
   <i type="int" name="NBANDSHIGH">    -1</i>
   <i name="NELECT">     26.00000000</i>
   <i type="int" name="TURBO">     0</i>
   <i type="int" name="IRESTART">     0</i>
   <i type="int" name="NREBOOT">     0</i>
   <i type="int" name="NMIN">     0</i>
   <i name="EREF">      0.00000000</i>
   <separator name="electronic smearing" >
    <i type="int" name="ISMEAR">     0</i>
    <i name="SIGMA">      0.05000000</i>
    <i name="KSPACING">      0.50000000</i>
    <i type="logical" name="KGAMMA"> T  </i>
    <i type="logical" name="KBLOWUP"> T  </i>
   </separator>
   <separator name="electronic projectors" >
    <i type="logical" name="LREAL"> F  </i>
    <v name="ROPT">      0.00000000</v>
    <i type="int" name="LMAXPAW">  -100</i>
    <i type="int" name="LMAXMIX">     2</i>
    <i type="logical" name="NLSPLINE"> F  </i>
   </separator>
   <separator name="electronic startup" >
    <i type="int" name="ISTART">     1</i>
    <i type="int" name="ICHARG">     0</i>
    <i type="int" name="INIWAV">     1</i>
   </separator>
   <separator name="electronic spin" >
    <i type="int" name="ISPIN">     1</i>
    <i type="logical" name="LNONCOLLINEAR"> F  </i>
    <v name="MAGMOM">      1.00000000      1.00000000</v>
    <i name="NUPDOWN">     -1.00000000</i>
    <i type="logical" name="LSORBIT"> F  </i>
    <v name="SAXIS">      0.00000000      0.00000000      1.00000000</v>
    <i type="logical" name="LSPIRAL"> F  </i>
    <v name="QSPIRAL">      0.00000000      0.00000000      0.00000000</v>
    <i type="logical" name="LZEROZ"> F  </i>
   </separator>
   <separator name="electronic exchange-correlation" >
    <i type="logical" name="LASPH"> F  </i>
   </separator>
   <separator name="electronic convergence" >
    <i type="int" name="NELM">    60</i>
    <i type="int" name="NELMDL">     0</i>
    <i type="int" name="NELMIN">     2</i>
    <i name="ENINI">    342.77490000</i>
    <separator name="electronic convergence detail" >
     <i type="logical" name="LDIAG"> T  </i>
     <i type="logical" name="LSUBROT"> F  </i>
     <i name="WEIMIN">      0.00000000</i>
     <i name="EBREAK">      0.00000052</i>
     <i name="DEPER">      0.30000000</i>
     <i type="int" name="NRMM">     4</i>
     <i name="TIME">      0.40000000</i>
    </separator>
   </separator>
   <separator name="electronic mixer" >
    <i name="AMIX">      0.40000000</i>
    <i name="BMIX">      1.00000000</i>
    <i name="AMIN">      0.10000000</i>
    <i name="AMIX_MAG">      1.60000000</i>
    <i name="BMIX_MAG">      1.00000000</i>
    <separator name="electronic mixer details" >
     <i type="int" name="IMIX">     4</i>
     <i type="logical" name="MIXFIRST"> F  </i>
     <i type="int" name="MAXMIX">   -45</i>
     <i name="WC">    100.00000000</i>
     <i type="int" name="INIMIX">     1</i>
     <i type="int" name="MIXPRE">     1</i>
     <i type="int" name="MREMOVE">     5</i>
    </separator>
   </separator>
   <separator name="electronic dipolcorrection" >
    <i type="logical" name="LDIPOL"> F  </i>
    <i type="logical" name="LMONO"> F  </i>
    <i type="int" name="IDIPOL">     0</i>
    <i name="EPSILON">      1.00000000</i>
    <v name="DIPOL">   -100.00000000   -100.00000000   -100.00000000</v>
    <i name="EFIELD">      0.00000000</i>
    <i type="logical" name="LVACPOTAV"> F  </i>
   </separator>
  </separator>
  <separator name="grids" >
   <i type="int" name="NGX">    14</i>
   <i type="int" name="NGY">    14</i>
   <i type="int" name="NGZ">    14</i>
   <i type="int" name="NGXF">    28</i>
   <i type="int" name="NGYF">    28</i>
   <i type="int" name="NGZF">    28</i>
   <i type="logical" name="ADDGRID"> F  </i>
  </separator>
  <separator name="ionic" >
   <i type="int" name="NSW">     0</i>
   <i type="int" name="IBRION">    -1</i>
   <i type="int" name="MDALGO">     0</i>
   <i type="int" name="ISIF">     2</i>
   <i name="PSTRESS">      0.00000000</i>
   <i name="EDIFFG">      0.00100000</i>
   <i type="int" name="NFREE">     0</i>
   <i name="POTIM">      0.50000000</i>
   <i name="SMASS">     -3.00000000</i>
   <i name="SCALEE">      1.00000000</i>
  </separator>
  <separator name="ionic md" >
   <i name="TEBEG">      0.00010000</i>
   <i name="TEEND">      0.00010000</i>
   <i type="int" name="NBLOCK">     1</i>
   <i type="int" name="KBLOCK">     1</i>
   <i type="int" name="NPACO">   256</i>
   <i name="APACO">     10.00000000</i>
  </separator>
  <separator name="symmetry" >
   <i type="int" name="ISYM">     2</i>
   <i name="SYMPREC">      0.00001000</i>
  </separator>
  <separator name="dos" >
   <i type="int" name="LORBIT">     0</i>
   <v name="RWIGS">     -1.00000000</v>
   <i type="int" name="NEDOS">   301</i>
   <i name="EMIN">     10.00000000</i>
   <i name="EMAX">    -10.00000000</i>
   <i name="EFERMI">      0.00000000</i>
  </separator>
  <separator name="writing" >
   <i type="int" name="NWRITE">     2</i>
   <i type="logical" name="LWAVE"> T  </i>
   <i type="logical" name="LDOWNSAMPLE"> F  </i>
   <i type="logical" name="LCHARG"> T  </i>
   <i type="logical" name="LPARD"> F  </i>
   <i type="logical" name="LVTOT"> F  </i>
   <i type="logical" name="LVHAR"> F  </i>
   <i type="logical" name="LELF"> F  </i>
   <i type="logical" name="LOPTICS"> F  </i>
   <v name="STM">      0.00000000      0.00000000      0.00000000      0.00000000      0.00000000      0.00000000      0.00000000</v>
  </separator>
  <separator name="performance" >
   <i type="int" name="NPAR">    48</i>
   <i type="int" name="NSIM">     4</i>
   <i type="int" name="NBLK">    -1</i>
   <i type="logical" name="LPLANE"> T  </i>
   <i type="logical" name="LSCALAPACK"> T  </i>
   <i type="logical" name="LSCAAWARE"> T  </i>
   <i type="logical" name="LSCALU"> F  </i>
   <i type="logical" name="LASYNC"> F  </i>
   <i type="logical" name="LORBITALREAL"> F  </i>
  </separator>
  <separator name="miscellaneous" >
   <i type="int" name="IDIOT">     3</i>
   <i type="int" name="PHON_NSTRUCT">    -1</i>
   <i type="logical" name="LMUSIC"> F  </i>
   <v name="POMASS">     50.94100000</v>
   <v name="DARWINR">      0.00000000</v>
   <v name="DARWINV">      1.00000000</v>
   <i type="logical" name="LCORR"> T  </i>
  </separator>
  <i type="logical" name="GGA_COMPAT"> T  </i>
  <i type="logical" name="LBERRY"> F  </i>
  <i type="int" name="ICORELEVEL">     0</i>
  <i type="logical" name="LDAU"> F  </i>
  <i type="int" name="I_CONSTRAINED_M">     0</i>
  <separator name="electronic exchange-correlation" >
   <i type="string" name="GGA    ">PE</i>
   <i type="string" name="XC_C">1</i>
   <i type="int" name="VOSKOWN">     0</i>
   <i type="logical" name="LHFCALC"> F  </i>
   <i type="string" name="PRECFOCK"></i>
   <i type="logical" name="LSYMGRAD"> F  </i>
   <i type="logical" name="LHFONE"> F  </i>
   <i type="logical" name="LRHFCALC"> F  </i>
   <i type="logical" name="LTHOMAS"> F  </i>
   <i type="logical" name="LMODELHF"> F  </i>
   <i type="logical" name="LFOCKACE"> F  </i>
   <i name="ENCUT4O">     -1.00000000</i>
   <i type="int" name="EXXOEP">     0</i>
   <i type="int" name="FOURORBIT">     0</i>
   <i name="AEXX">      0.00000000</i>
   <i name="HFALPHA">      0.00000000</i>
   <i name="MCALPHA">      0.00000000</i>
   <i name="ALDAX">      1.00000000</i>
   <i name="AGGAX">      1.00000000</i>
   <i name="AMGGAX">      1.00000000</i>
   <i name="ALDAC">      1.00000000</i>
   <i name="AGGAC">      1.00000000</i>
   <i name="AMGGAC">      1.00000000</i>
   <i type="int" name="NKREDX">     1</i>
   <i type="int" name="NKREDY">     1</i>
   <i type="int" name="NKREDZ">     1</i>
   <i type="logical" name="SHIFTRED"> F  </i>
   <i type="logical" name="ODDONLY"> F  </i>
   <i type="logical" name="EVENONLY"> F  </i>
   <i type="int" name="LMAXFOCK">     0</i>
   <i type="int" name="NMAXFOCKAE">     0</i>
   <i type="logical" name="LFOCKAEDFT"> F  </i>
   <i name="HFSCREEN">      0.00000000</i>
   <i name="HFSCREENC">      0.00000000</i>
   <i type="int" name="NBANDSGWLOW">     0</i>
  </separator>
  <separator name="vdW DFT" >
   <i type="logical" name="LUSE_VDW"> F  </i>
   <i type="int" name="IVDW_NL">    -1</i>
   <i type="logical" name="LSPIN_VDW"> F  </i>
   <i name="ZAB_VDW">     -0.84910000</i>
   <i name="GAMMA_VDW">      1.39626340</i>
   <i name="ALPHA_VDW">      0.00000000</i>
   <i name="PARAM1">      0.12340000</i>
   <i name="PARAM2">      1.00000000</i>
   <i name="BPARAM">      6.30000000</i>
   <i name="CPARAM">      0.00930000</i>
  </separator>
  <separator name="model GW" >
   <i type="int" name="MODEL_GW">     0</i>
   <i name="MODEL_EPS0">      8.09141703</i>
   <i name="MODEL_ALPHA">      1.00000000</i>
  </separator>
  <separator name="linear response parameters" >
   <i type="logical" name="LEPSILON"> F  </i>
   <i type="logical" name="LRPA"> F  </i>
   <i type="logical" name="LNABLA"> F  </i>
   <i type="logical" name="LVEL"> F  </i>
   <i name="CSHIFT">      0.10000000</i>
   <i name="OMEGAMAX">     -1.00000000</i>
   <i name="DEG_THRESHOLD">      0.00200000</i>
   <i name="RTIME">     -0.10000000</i>
   <i name="WPLASMAI">      0.00000000</i>
   <v name="DFIELD">      0.00000000      0.00000000      0.00000000</v>
   <v name="WPLASMA">      0.00000000      0.00000000      0.00000000      0.00000000      0.00000000      0.00000000      0.00000000      0.00000000      0.00000000</v>
  </separator>
  <separator name="orbital magnetization" >
   <i type="logical" name="NUCIND"> F  </i>
   <v name="MAGPOS">      0.00000000      0.00000000      0.00000000</v>
   <i type="logical" name="LNICSALL"> T  </i>
   <i type="logical" name="ORBITALMAG"> F  </i>
   <i type="logical" name="LMAGBLOCH"> F  </i>
   <i type="logical" name="LCHIMAG"> F  </i>
   <i type="logical" name="LGAUGE"> T  </i>
   <i type="int" name="MAGATOM">     0</i>
   <v name="MAGDIPOL">      0.00000000      0.00000000      0.00000000</v>
   <v name="AVECCONST">      0.00000000      0.00000000      0.00000000</v>
  </separator>
  <separator name="response functions" >
   <i type="logical" name="LALL_IN_ONE"> F  </i>
   <i type="int" name="IALL_IN_ONE">    -1</i>
   <i type="int" name="NBANDS_WAVE">    -1</i>
   <i type="logical" name="LFINITE_TEMPERATURE"> F  </i>
   <i type="logical" name="LADDER"> F  </i>
   <i type="logical" name="LRPAFORCE"> F  </i>
   <i type="logical" name="LFXC"> F  </i>
   <i type="logical" name="LHARTREE"> T  </i>
   <i type="int" name="IBSE">     0</i>
   <v type="int" name="KPOINT">    -1     0     0     0</v>
   <i type="logical" name="LTCTC"> F  </i>
   <i type="logical" name="LTCTE"> F  </i>
   <i type="logical" name="LTETE"> F  </i>
   <i type="logical" name="LTRIPLET"> F  </i>
   <i type="logical" name="LFXCEPS"> F  </i>
   <i type="logical" name="LFXHEG"> F  </i>
   <i type="int" name="NATURALO">     2</i>
   <i type="logical" name="LHOLEGF"> F  </i>
   <i type="logical" name="L2ORDER"> F  </i>
   <i type="logical" name="LDMP1"> F  </i>
   <i type="logical" name="LMP2LT"> F  </i>
   <i type="logical" name="LSMP2LT"> F  </i>
   <i type="logical" name="LGWLF"> F  </i>
   <i name="ENCUTGW">     -1.60000002</i>
   <i name="ENCUTGWSOFT">     -1.60000002</i>
   <i name="ENCUTLF">     -1.00000000</i>
   <i type="logical" name="ESF_SPLINES"> F  </i>
   <i name="ESF_CONV">      0.01000000</i>
   <i type="int" name="ESF_NINTER">    15</i>
   <i type="int" name="LMAXMP2">    -1</i>
   <i name="SCISSOR">      0.00000000</i>
   <i type="int" name="NOMEGA">     0</i>
   <i type="int" name="NOMEGAR">     0</i>
   <i type="int" name="NBANDSGW">    -1</i>
   <i type="int" name="NBANDSO">    -1</i>
   <i type="int" name="NBANDSV">    -1</i>
   <i type="int" name="NELMGW">     1</i>
   <i type="int" name="NELMHF">     1</i>
   <i type="int" name="DIM">     3</i>
   <i type="int" name="IESPILON">     4</i>
   <i type="int" name="ANTIRES">     0</i>
   <i name="OMEGAMAX">    -30.00000000</i>
   <i name="OMEGAMIN">    -30.00000000</i>
   <i name="OMEGATL">   -200.00000000</i>
   <i type="int" name="OMEGAGRID">     0</i>
   <i name="CSHIFT">     -0.10000000</i>
   <i type="logical" name="LSELFENERGY"> F  </i>
   <i type="logical" name="LSPECTRAL"> F  </i>
   <i type="logical" name="LSPECTRALGW"> F  </i>
   <i type="logical" name="LSINGLES"> F  </i>
   <i type="logical" name="LFERMIGW"> F  </i>
   <i type="logical" name="ODDONLYGW"> F  </i>
   <i type="logical" name="EVENONLYGW"> F  </i>
   <i type="int" name="NKREDLFX">     1</i>
   <i type="int" name="NKREDLFY">     1</i>
   <i type="int" name="NKREDLFZ">     1</i>
   <i type="int" name="MAXMEM">  2800</i>
   <i type="int" name="TELESCOPE">     0</i>
   <i type="int" name="NTAUPAR">    -1</i>
   <i type="int" name="NOMEGAPAR">    -1</i>
   <i name="DAMP_NEWTON">      0.80000001</i>
   <i name="LAMBDA">      1.00000000</i>
  </separator>
  <separator name="External order field" >
   <i name="OFIELD_KAPPA">      0.00000000</i>
   <v name="OFIELD_K">      0.00000000      0.00000000      0.00000000</v>
   <i name="OFIELD_Q6_NEAR">      0.00000000</i>
   <i name="OFIELD_Q6_FAR">      0.00000000</i>
   <i name="OFIELD_A">      0.00000000</i>
  </separator>
  <separator name="optional k-points parameters" >
   <i type="int" name="KPOINTS_OPT_MODE">     1</i>
   <i type="logical" name="LKPOINTS_OPT"> T  </i>
  </separator>
 </parameters>
 <atominfo>
  <atoms>       2 </atoms>
  <types>       1 </types>
  <array name="atoms" >
   <dimension dim="1">ion</dimension>
   <field type="string">element</field>
   <field type="int">atomtype</field>
   <set>
    <rc><c>V </c><c>   1</c></rc>
    <rc><c>V </c><c>   1</c></rc>
   </set>
  </array>
  <array name="atomtypes" >
   <dimension dim="1">type</dimension>
   <field type="int">atomspertype</field>
   <field type="string">element</field>
   <field>mass</field>
   <field>valence</field>
   <field type="string">pseudopotential</field>
   <set>
    <rc><c>   2</c><c>V </c><c>     50.94100000</c><c>     13.00000000</c><c>PAW_PBE V_sv 02Aug2007                  </c></rc>
   </set>
  </array>
 </atominfo>
 <structure name="initialpos" >
  <crystal>
   <varray name="basis" >
    <v>       2.99894000       0.00000000       0.00000000 </v>
    <v>       0.00000000       2.99894000       0.00000000 </v>
    <v>       0.00000000       0.00000000       2.99894000 </v>
   </varray>
   <i name="volume">     26.97139011 </i>
   <varray name="rec_basis" >
    <v>       0.33345115      -0.00000000       0.00000000 </v>
    <v>       0.00000000       0.33345115       0.00000000 </v>
    <v>      -0.00000000      -0.00000000       0.33345115 </v>
   </varray>
  </crystal>
  <varray name="positions" >
   <v>       0.00000000       0.00000000       0.00000000 </v>
   <v>       0.50000000       0.50000000       0.50000000 </v>
  </varray>
 </structure>
 <calculation>
  <scstep>
   <time name="dav">    0.60    0.60</time>
   <time name="total">    0.61    0.62</time>
   <energy>
    <i name="alphaZ">    181.20010233 </i>
    <i name="ewald">  -2953.14600272 </i>
    <i name="hartreedc">   -785.79646639 </i>
    <i name="XCdc">    139.81096127 </i>
    <i name="pawpsdc">   3868.36197158 </i>
    <i name="pawaedc">  -3905.41379080 </i>
    <i name="eentropy">     -0.00525203 </i>
    <i name="bandstr">   -467.10225368 </i>
    <i name="atom">   3904.10212284 </i>
    <i name="e_fr_energy">    -17.98860760 </i>
    <i name="e_wo_entrp">    -17.98335558 </i>
    <i name="e_0_energy">    -17.98598159 </i>
   </energy>
  </scstep>
  <scstep>
   <time name="dav">    0.50    0.50</time>
   <time name="total">    0.51    0.51</time>
   <energy>
    <i name="alphaZ">    181.20010233 </i>
    <i name="ewald">  -2953.14600272 </i>
    <i name="hartreedc">   -785.82745978 </i>
    <i name="XCdc">    139.81252040 </i>
    <i name="pawpsdc">   3868.11688730 </i>
    <i name="pawaedc">  -3905.16861846 </i>
    <i name="eentropy">     -0.00524171 </i>
    <i name="bandstr">   -467.07291717 </i>
    <i name="atom">   3904.10212284 </i>
    <i name="e_fr_energy">    -17.98860697 </i>
    <i name="e_wo_entrp">    -17.98336527 </i>
    <i name="e_0_energy">    -17.98598612 </i>
   </energy>
  </scstep>
  <structure>
   <crystal>
    <varray name="basis" >
     <v>       2.99894000       0.00000000       0.00000000 </v>
     <v>       0.00000000       2.99894000       0.00000000 </v>
     <v>       0.00000000       0.00000000       2.99894000 </v>
    </varray>
    <i name="volume">     26.97139011 </i>
    <varray name="rec_basis" >
     <v>       0.33345115      -0.00000000       0.00000000 </v>
     <v>       0.00000000       0.33345115       0.00000000 </v>
     <v>      -0.00000000      -0.00000000       0.33345115 </v>
    </varray>
   </crystal>
   <varray name="positions" >
    <v>       0.00000000       0.00000000       0.00000000 </v>
    <v>       0.50000000       0.50000000       0.50000000 </v>
   </varray>
  </structure>
  <varray name="forces" >
   <v>      -0.00000000       0.00000000       0.00000000 </v>
   <v>       0.00000000      -0.00000000      -0.00000000 </v>
  </varray>
  <varray name="stress" >
   <v>      -6.60069989       0.00000000      -0.00000000 </v>
   <v>      -0.00000000      -6.60069989      -0.00000000 </v>
   <v>      -0.00000000      -0.00000000      -6.60069989 </v>
  </varray>
  <energy>
   <i name="e_fr_energy">    -17.98860697 </i>
   <i name="e_wo_entrp">    -17.98336527 </i>
   <i name="e_0_energy">    -17.98598612 </i>
  </energy>
  <dos comment="kpoints_opt">
   <i name="efermi">     10.08503629 </i>
   <total>
    <array>
     <dimension dim="1">gridpoints</dimension>
     <dimension dim="2">spin</dimension>
     <field>energy</field>
     <field>total</field>
     <field>integrated</field>
     <set>
      <set comment="spin 1">
       <r>   -60.1719     0.0000     0.0000 </r>
       <r>   -59.7208     0.0000     0.0000 </r>
       <r>   -59.2696     0.0000     0.0000 </r>
       <r>   -58.8185     0.0000     0.0000 </r>
       <r>   -58.3674     0.0000     0.0000 </r>
       <r>   -57.9162     0.0000     0.0000 </r>
       <r>   -57.4651     0.0000     0.0000 </r>
       <r>   -57.0139     0.0000     0.0000 </r>
       <r>   -56.5628     0.0000     0.0000 </r>
       <r>   -56.1116     0.0000     0.0000 </r>
       <r>   -55.6605     0.0000     0.0000 </r>
       <r>   -55.2094     0.0000     0.0000 </r>
       <r>   -54.7582     0.0000     0.0000 </r>
       <r>   -54.3071     0.0000     0.0000 </r>
       <r>   -53.8559     2.9225     1.3185 </r>
       <r>   -53.4048     2.3310     4.0000 </r>
       <r>   -52.9537     0.0000     4.0000 </r>
       <r>   -52.5025     0.0000     4.0000 </r>
       <r>   -52.0514     0.0000     4.0000 </r>
       <r>   -51.6002     0.0000     4.0000 </r>
       <r>   -51.1491     0.0000     4.0000 </r>
       <r>   -50.6980     0.0000     4.0000 </r>
       <r>   -50.2468     0.0000     4.0000 </r>
       <r>   -49.7957     0.0000     4.0000 </r>
       <r>   -49.3445     0.0000     4.0000 </r>
       <r>   -48.8934     0.0000     4.0000 </r>
       <r>   -48.4423     0.0000     4.0000 </r>
       <r>   -47.9911     0.0000     4.0000 </r>
       <r>   -47.5400     0.0000     4.0000 </r>
       <r>   -47.0888     0.0000     4.0000 </r>
       <r>   -46.6377     0.0000     4.0000 </r>
       <r>   -46.1866     0.0000     4.0000 </r>
       <r>   -45.7354     0.0000     4.0000 </r>
       <r>   -45.2843     0.0000     4.0000 </r>
       <r>   -44.8331     0.0000     4.0000 </r>
       <r>   -44.3820     0.0000     4.0000 </r>
       <r>   -43.9309     0.0000     4.0000 </r>
       <r>   -43.4797     0.0000     4.0000 </r>
       <r>   -43.0286     0.0000     4.0000 </r>
       <r>   -42.5774     0.0000     4.0000 </r>
       <r>   -42.1263     0.0000     4.0000 </r>
       <r>   -41.6752     0.0000     4.0000 </r>
       <r>   -41.2240     0.0000     4.0000 </r>
       <r>   -40.7729     0.0000     4.0000 </r>
       <r>   -40.3217     0.0000     4.0000 </r>
       <r>   -39.8706     0.0000     4.0000 </r>
       <r>   -39.4195     0.0000     4.0000 </r>
       <r>   -38.9683     0.0000     4.0000 </r>
       <r>   -38.5172     0.0000     4.0000 </r>
       <r>   -38.0660     0.0000     4.0000 </r>
       <r>   -37.6149     0.0000     4.0000 </r>
       <r>   -37.1638     0.0000     4.0000 </r>
       <r>   -36.7126     0.0000     4.0000 </r>
       <r>   -36.2615     0.0000     4.0000 </r>
       <r>   -35.8103     0.0000     4.0000 </r>
       <r>   -35.3592     0.0000     4.0000 </r>
       <r>   -34.9081     0.0000     4.0000 </r>
       <r>   -34.4569     0.0000     4.0000 </r>
       <r>   -34.0058     0.0000     4.0000 </r>
       <r>   -33.5546     0.0000     4.0000 </r>
       <r>   -33.1035     0.0000     4.0000 </r>
       <r>   -32.6524     0.0000     4.0000 </r>
       <r>   -32.2012     0.0000     4.0000 </r>
       <r>   -31.7501     0.0000     4.0000 </r>
       <r>   -31.2989     0.0000     4.0000 </r>
       <r>   -30.8478     0.0000     4.0000 </r>
       <r>   -30.3967     0.0000     4.0000 </r>
       <r>   -29.9455     0.0000     4.0000 </r>
       <r>   -29.4944     0.0000     4.0000 </r>
       <r>   -29.0432     0.0000     4.0000 </r>
       <r>   -28.5921     0.0000     4.0000 </r>
       <r>   -28.1409     0.0099     4.0045 </r>
       <r>   -27.6898    14.3175    10.4637 </r>
       <r>   -27.2387    10.4611    15.9985 </r>
       <r>   -26.7875     0.0000    16.0000 </r>
       <r>   -26.3364     0.0000    16.0000 </r>
       <r>   -25.8852     0.0000    16.0000 </r>
       <r>   -25.4341     0.0000    16.0000 </r>
       <r>   -24.9830     0.0000    16.0000 </r>
       <r>   -24.5318     0.0000    16.0000 </r>
       <r>   -24.0807     0.0000    16.0000 </r>
       <r>   -23.6295     0.0000    16.0000 </r>
       <r>   -23.1784     0.0000    16.0000 </r>
       <r>   -22.7273     0.0000    16.0000 </r>
       <r>   -22.2761     0.0000    16.0000 </r>
       <r>   -21.8250     0.0000    16.0000 </r>
       <r>   -21.3738     0.0000    16.0000 </r>
       <r>   -20.9227     0.0000    16.0000 </r>
       <r>   -20.4716     0.0000    16.0000 </r>
       <r>   -20.0204     0.0000    16.0000 </r>
       <r>   -19.5693     0.0000    16.0000 </r>
       <r>   -19.1181     0.0000    16.0000 </r>
       <r>   -18.6670     0.0000    16.0000 </r>
       <r>   -18.2159     0.0000    16.0000 </r>
       <r>   -17.7647     0.0000    16.0000 </r>
       <r>   -17.3136     0.0000    16.0000 </r>
       <r>   -16.8624     0.0000    16.0000 </r>
       <r>   -16.4113     0.0000    16.0000 </r>
       <r>   -15.9602     0.0000    16.0000 </r>
       <r>   -15.5090     0.0000    16.0000 </r>
       <r>   -15.0579     0.0000    16.0000 </r>
       <r>   -14.6067     0.0000    16.0000 </r>
       <r>   -14.1556     0.0000    16.0000 </r>
       <r>   -13.7045     0.0000    16.0000 </r>
       <r>   -13.2533     0.0000    16.0000 </r>
       <r>   -12.8022     0.0000    16.0000 </r>
       <r>   -12.3510     0.0000    16.0000 </r>
       <r>   -11.8999     0.0000    16.0000 </r>
       <r>   -11.4488     0.0000    16.0000 </r>
       <r>   -10.9976     0.0000    16.0000 </r>
       <r>   -10.5465     0.0000    16.0000 </r>
       <r>   -10.0953     0.0000    16.0000 </r>
       <r>    -9.6442     0.0000    16.0000 </r>
       <r>    -9.1931     0.0000    16.0000 </r>
       <r>    -8.7419     0.0000    16.0000 </r>
       <r>    -8.2908     0.0000    16.0000 </r>
       <r>    -7.8396     0.0000    16.0000 </r>
       <r>    -7.3885     0.0000    16.0000 </r>
       <r>    -6.9374     0.0000    16.0000 </r>
       <r>    -6.4862     0.0000    16.0000 </r>
       <r>    -6.0351     0.0000    16.0000 </r>
       <r>    -5.5839     0.0000    16.0000 </r>
       <r>    -5.1328     0.0000    16.0000 </r>
       <r>    -4.6817     0.0000    16.0000 </r>
       <r>    -4.2305     0.0000    16.0000 </r>
       <r>    -3.7794     0.0000    16.0000 </r>
       <r>    -3.3282     0.0000    16.0000 </r>
       <r>    -2.8771     0.0000    16.0000 </r>
       <r>    -2.4260     0.0000    16.0000 </r>
       <r>    -1.9748     0.0000    16.0000 </r>
       <r>    -1.5237     0.0000    16.0000 </r>
       <r>    -1.0725     0.0000    16.0000 </r>
       <r>    -0.6214     0.0000    16.0000 </r>
       <r>    -0.1703     0.0000    16.0000 </r>
       <r>     0.2809     0.0000    16.0000 </r>
       <r>     0.7320     0.0000    16.0000 </r>
       <r>     1.1832     0.0000    16.0000 </r>
       <r>     1.6343     0.0000    16.0000 </r>
       <r>     2.0855     0.0000    16.0000 </r>
       <r>     2.5366     0.0000    16.0000 </r>
       <r>     2.9877     0.0001    16.0000 </r>
       <r>     3.4389     0.6193    16.2794 </r>
       <r>     3.8900     0.2829    16.4271 </r>
       <r>     4.3412     0.2304    16.5398 </r>
       <r>     4.7923     0.1960    16.6335 </r>
       <r>     5.2434     0.1656    16.7278 </r>
       <r>     5.6946     0.1739    16.8132 </r>
       <r>     6.1457     0.1782    16.8968 </r>
       <r>     6.5969     0.1954    16.9867 </r>
       <r>     7.0480     2.7561    18.2504 </r>
       <r>     7.4991     1.8555    19.2058 </r>
       <r>     7.9503     1.0134    19.7366 </r>
       <r>     8.4014     1.6695    20.5531 </r>
       <r>     8.8526     6.0251    23.4874 </r>
       <r>     9.3037     2.1180    24.6036 </r>
       <r>     9.7548     1.0279    25.1186 </r>
       <r>    10.2060     3.9975    26.9626 </r>
       <r>    10.6571     2.1822    28.1166 </r>
       <r>    11.1083     1.3766    28.8406 </r>
       <r>    11.5594     1.2459    29.4762 </r>
       <r>    12.0105     2.3707    30.6089 </r>
       <r>    12.4617     5.1990    33.2646 </r>
       <r>    12.9128     3.6672    35.7276 </r>
       <r>    13.3640     2.5452    36.9603 </r>
       <r>    13.8151     0.4989    37.5729 </r>
       <r>    14.2662     0.3440    37.7471 </r>
       <r>    14.7174     0.2582    37.8988 </r>
       <r>    15.1685     0.2313    38.0363 </r>
       <r>    15.6197     0.2941    38.1744 </r>
       <r>    16.0708     0.2279    38.2933 </r>
       <r>    16.5219     0.1996    38.4166 </r>
       <r>    16.9731     0.2419    38.5317 </r>
       <r>    17.4242     0.2114    38.6396 </r>
       <r>    17.8754     0.2155    38.7370 </r>
       <r>    18.3265     0.2273    38.8519 </r>
       <r>    18.7776     0.7938    39.2160 </r>
       <r>    19.2288     0.9017    39.7002 </r>
       <r>    19.6799     0.9000    40.1486 </r>
       <r>    20.1311     2.0189    41.1164 </r>
       <r>    20.5822     1.1015    41.7217 </r>
       <r>    21.0333     1.6142    42.5387 </r>
       <r>    21.4845     0.8309    42.9608 </r>
       <r>    21.9356     1.2056    43.5376 </r>
       <r>    22.3868     0.8295    43.9665 </r>
       <r>    22.8379     0.7058    44.3321 </r>
       <r>    23.2890     0.7054    44.6740 </r>
       <r>    23.7402     0.5783    44.9820 </r>
       <r>    24.1913     0.5518    45.2698 </r>
       <r>    24.6425     0.6090    45.5677 </r>
       <r>    25.0936     0.5232    45.8436 </r>
       <r>    25.5447     0.5020    46.1184 </r>
       <r>    25.9959     0.5370    46.3786 </r>
       <r>    26.4470     0.5332    46.6492 </r>
       <r>    26.8982     2.5451    47.8557 </r>
       <r>    27.3493     1.3262    48.5457 </r>
       <r>    27.8004     1.5315    49.2915 </r>
       <r>    28.2516     0.8899    49.7367 </r>
       <r>    28.7027     0.9630    50.2208 </r>
       <r>    29.1539     0.8286    50.6619 </r>
       <r>    29.6050     0.8915    51.1252 </r>
       <r>    30.0561     1.1005    51.6278 </r>
       <r>    30.5073     2.3149    52.7618 </r>
       <r>    30.9584     1.1660    53.3980 </r>
       <r>    31.4096     0.4456    53.6706 </r>
       <r>    31.8607     0.7680    54.0206 </r>
       <r>    32.3119     0.4087    54.2396 </r>
       <r>    32.7630     0.3818    54.4588 </r>
       <r>    33.2141     0.3921    54.6536 </r>
       <r>    33.6653     0.3707    54.8480 </r>
       <r>    34.1164     0.3080    55.0097 </r>
       <r>    34.5676     0.3652    55.1995 </r>
       <r>    35.0187     0.4562    55.4172 </r>
       <r>    35.4698     0.4171    55.6167 </r>
       <r>    35.9210     0.5775    55.9205 </r>
       <r>    36.3721     0.4320    56.1541 </r>
       <r>    36.8233     0.4580    56.3973 </r>
       <r>    37.2744     1.2580    56.9758 </r>
       <r>    37.7255     1.3106    57.6117 </r>
       <r>    38.1767     0.8417    58.0670 </r>
       <r>    38.6278     0.7699    58.4575 </r>
       <r>    39.0790     0.7400    58.8667 </r>
       <r>    39.5301     0.7736    59.2748 </r>
       <r>    39.9812     0.9161    59.7485 </r>
       <r>    40.4324     1.4897    60.4833 </r>
       <r>    40.8835     1.8137    61.3634 </r>
       <r>    41.3347     2.8263    62.7607 </r>
       <r>    41.7858     2.2448    63.9007 </r>
       <r>    42.2369     1.6372    64.7530 </r>
       <r>    42.6881     1.6160    65.5485 </r>
       <r>    43.1392     1.8659    66.4625 </r>
       <r>    43.5904     2.5489    67.7648 </r>
       <r>    44.0415     2.4312    68.9770 </r>
       <r>    44.4926     1.4957    69.7121 </r>
       <r>    44.9438     1.2118    70.3705 </r>
       <r>    45.3949     0.8191    70.8067 </r>
       <r>    45.8461     0.8229    71.2706 </r>
       <r>    46.2972     0.8014    71.7387 </r>
       <r>    46.7483     0.9945    72.2330 </r>
       <r>    47.1995     0.8398    72.6791 </r>
       <r>    47.6506     0.9396    73.1317 </r>
       <r>    48.1018     0.9119    73.5962 </r>
       <r>    48.5529     0.7932    73.9772 </r>
       <r>    49.0040     2.2921    75.0344 </r>
       <r>    49.4552     0.9737    75.5834 </r>
       <r>    49.9063     0.8161    76.0021 </r>
       <r>    50.3575     1.0972    76.4989 </r>
       <r>    50.8086     0.7893    76.9554 </r>
       <r>    51.2597     0.8156    77.3753 </r>
       <r>    51.7109     1.2081    77.9339 </r>
       <r>    52.1620     1.1116    78.4880 </r>
       <r>    52.6132     1.1950    79.0725 </r>
       <r>    53.0643     1.7537    79.9903 </r>
       <r>    53.5154     1.5232    80.7827 </r>
       <r>    53.9666     2.2543    81.9299 </r>
       <r>    54.4177     0.6976    82.3013 </r>
       <r>    54.8689     0.9771    82.7546 </r>
       <r>    55.3200     1.9529    83.7271 </r>
       <r>    55.7711     1.2438    84.3574 </r>
       <r>    56.2223     1.0830    84.9112 </r>
       <r>    56.6734     0.8145    85.3361 </r>
       <r>    57.1246     0.9540    85.7930 </r>
       <r>    57.5757     0.9449    86.2632 </r>
       <r>    58.0268     1.3464    86.9755 </r>
       <r>    58.4780     1.6105    87.7616 </r>
       <r>    58.9291     1.1566    88.3592 </r>
       <r>    59.3803     1.1254    88.9042 </r>
       <r>    59.8314     0.7364    89.2725 </r>
       <r>    60.2826     0.9049    89.7561 </r>
       <r>    60.7337     0.6508    90.1167 </r>
       <r>    61.1848     0.7294    90.5060 </r>
       <r>    61.6360     0.5430    90.7913 </r>
       <r>    62.0871     0.6808    91.1103 </r>
       <r>    62.5383     1.1944    91.6966 </r>
       <r>    62.9894     0.3962    91.9480 </r>
       <r>    63.4405     0.6672    92.2615 </r>
       <r>    63.8917     0.6272    92.5687 </r>
       <r>    64.3428     0.5523    92.8751 </r>
       <r>    64.7940     0.6339    93.2266 </r>
       <r>    65.2451     1.5901    93.9704 </r>
       <r>    65.6962     0.7013    94.3449 </r>
       <r>    66.1474     0.6505    94.6745 </r>
       <r>    66.5985     0.4317    94.9160 </r>
       <r>    67.0497     1.0549    95.4563 </r>
       <r>    67.5008     0.3690    95.6917 </r>
       <r>    67.9519     0.2858    95.8301 </r>
       <r>    68.4031     0.1973    95.9399 </r>
       <r>    68.8542     0.0871    95.9849 </r>
       <r>    69.3054     0.0302    96.0000 </r>
       <r>    69.7565     0.0000    96.0000 </r>
       <r>    70.2076     0.0000    96.0000 </r>
       <r>    70.6588     0.0000    96.0000 </r>
       <r>    71.1099     0.0000    96.0000 </r>
       <r>    71.5611     0.0000    96.0000 </r>
       <r>    72.0122     0.0000    96.0000 </r>
       <r>    72.4633     0.0000    96.0000 </r>
       <r>    72.9145     0.0000    96.0000 </r>
       <r>    73.3656     0.0000    96.0000 </r>
       <r>    73.8168     0.0000    96.0000 </r>
       <r>    74.2679     0.0000    96.0000 </r>
       <r>    74.7190     0.0000    96.0000 </r>
       <r>    75.1702     0.0000    96.0000 </r>
      </set>
     </set>
    </array>
   </total>
  </dos>
  <eigenvalues_kpoints_opt comment="kpoints_opt">
   <kpoints>
    <varray name="kpointlist" >
     <v>       0.00000000       0.00000000       0.00000000 </v>
     <v>       0.01041667      -0.01041667       0.01041667 </v>
     <v>       0.02083333      -0.02083333       0.02083333 </v>
     <v>       0.03125000      -0.03125000       0.03125000 </v>
     <v>       0.04166667      -0.04166667       0.04166667 </v>
     <v>       0.05208333      -0.05208333       0.05208333 </v>
     <v>       0.06250000      -0.06250000       0.06250000 </v>
     <v>       0.07291667      -0.07291667       0.07291667 </v>
     <v>       0.08333333      -0.08333333       0.08333333 </v>
     <v>       0.09375000      -0.09375000       0.09375000 </v>
     <v>       0.10416667      -0.10416667       0.10416667 </v>
     <v>       0.11458333      -0.11458333       0.11458333 </v>
     <v>       0.12500000      -0.12500000       0.12500000 </v>
     <v>       0.13541667      -0.13541667       0.13541667 </v>
     <v>       0.14583333      -0.14583333       0.14583333 </v>
     <v>       0.15625000      -0.15625000       0.15625000 </v>
     <v>       0.16666667      -0.16666667       0.16666667 </v>
     <v>       0.17708333      -0.17708333       0.17708333 </v>
     <v>       0.18750000      -0.18750000       0.18750000 </v>
     <v>       0.19791667      -0.19791667       0.19791667 </v>
     <v>       0.20833333      -0.20833333       0.20833333 </v>
     <v>       0.21875000      -0.21875000       0.21875000 </v>
     <v>       0.22916667      -0.22916667       0.22916667 </v>
     <v>       0.23958333      -0.23958333       0.23958333 </v>
     <v>       0.25000000      -0.25000000       0.25000000 </v>
     <v>       0.26041667      -0.26041667       0.26041667 </v>
     <v>       0.27083333      -0.27083333       0.27083333 </v>
     <v>       0.28125000      -0.28125000       0.28125000 </v>
     <v>       0.29166667      -0.29166667       0.29166667 </v>
     <v>       0.30208333      -0.30208333       0.30208333 </v>
     <v>       0.31250000      -0.31250000       0.31250000 </v>
     <v>       0.32291667      -0.32291667       0.32291667 </v>
     <v>       0.33333333      -0.33333333       0.33333333 </v>
     <v>       0.34375000      -0.34375000       0.34375000 </v>
     <v>       0.35416667      -0.35416667       0.35416667 </v>
     <v>       0.36458333      -0.36458333       0.36458333 </v>
     <v>       0.37500000      -0.37500000       0.37500000 </v>
     <v>       0.38541667      -0.38541667       0.38541667 </v>
     <v>       0.39583333      -0.39583333       0.39583333 </v>
     <v>       0.40625000      -0.40625000       0.40625000 </v>
     <v>       0.41666667      -0.41666667       0.41666667 </v>
     <v>       0.42708333      -0.42708333       0.42708333 </v>
     <v>       0.43750000      -0.43750000       0.43750000 </v>
     <v>       0.44791667      -0.44791667       0.44791667 </v>
     <v>       0.45833333      -0.45833333       0.45833333 </v>
     <v>       0.46875000      -0.46875000       0.46875000 </v>
     <v>       0.47916667      -0.47916667       0.47916667 </v>
     <v>       0.48958333      -0.48958333       0.48958333 </v>
     <v>       0.50000000      -0.50000000       0.50000000 </v>
     <v>       0.50000000      -0.50000000       0.50000000 </v>
     <v>       0.48958333      -0.48958333       0.50000000 </v>
     <v>       0.47916667      -0.47916667       0.50000000 </v>
     <v>       0.46875000      -0.46875000       0.50000000 </v>
     <v>       0.45833333      -0.45833333       0.50000000 </v>
     <v>       0.44791667      -0.44791667       0.50000000 </v>
     <v>       0.43750000      -0.43750000       0.50000000 </v>
     <v>       0.42708333      -0.42708333       0.50000000 </v>
     <v>       0.41666667      -0.41666667       0.50000000 </v>
     <v>       0.40625000      -0.40625000       0.50000000 </v>
     <v>       0.39583333      -0.39583333       0.50000000 </v>
     <v>       0.38541667      -0.38541667       0.50000000 </v>
     <v>       0.37500000      -0.37500000       0.50000000 </v>
     <v>       0.36458333      -0.36458333       0.50000000 </v>
     <v>       0.35416667      -0.35416667       0.50000000 </v>
     <v>       0.34375000      -0.34375000       0.50000000 </v>
     <v>       0.33333333      -0.33333333       0.50000000 </v>
     <v>       0.32291667      -0.32291667       0.50000000 </v>
     <v>       0.31250000      -0.31250000       0.50000000 </v>
     <v>       0.30208333      -0.30208333       0.50000000 </v>
     <v>       0.29166667      -0.29166667       0.50000000 </v>
     <v>       0.28125000      -0.28125000       0.50000000 </v>
     <v>       0.27083333      -0.27083333       0.50000000 </v>
     <v>       0.26041667      -0.26041667       0.50000000 </v>
     <v>       0.25000000      -0.25000000       0.50000000 </v>
     <v>       0.23958333      -0.23958333       0.50000000 </v>
     <v>       0.22916667      -0.22916667       0.50000000 </v>
     <v>       0.21875000      -0.21875000       0.50000000 </v>
     <v>       0.20833333      -0.20833333       0.50000000 </v>
     <v>       0.19791667      -0.19791667       0.50000000 </v>
     <v>       0.18750000      -0.18750000       0.50000000 </v>
     <v>       0.17708333      -0.17708333       0.50000000 </v>
     <v>       0.16666667      -0.16666667       0.50000000 </v>
     <v>       0.15625000      -0.15625000       0.50000000 </v>
     <v>       0.14583333      -0.14583333       0.50000000 </v>
     <v>       0.13541667      -0.13541667       0.50000000 </v>
     <v>       0.12500000      -0.12500000       0.50000000 </v>
     <v>       0.11458333      -0.11458333       0.50000000 </v>
     <v>       0.10416667      -0.10416667       0.50000000 </v>
     <v>       0.09375000      -0.09375000       0.50000000 </v>
     <v>       0.08333333      -0.08333333       0.50000000 </v>
     <v>       0.07291667      -0.07291667       0.50000000 </v>
     <v>       0.06250000      -0.06250000       0.50000000 </v>
     <v>       0.05208333      -0.05208333       0.50000000 </v>
     <v>       0.04166667      -0.04166667       0.50000000 </v>
     <v>       0.03125000      -0.03125000       0.50000000 </v>
     <v>       0.02083333      -0.02083333       0.50000000 </v>
     <v>       0.01041667      -0.01041667       0.50000000 </v>
     <v>       0.00000000      -0.00000000       0.50000000 </v>
     <v>       0.00000000       0.00000000       0.50000000 </v>
     <v>       0.00000000       0.00000000       0.48958333 </v>
     <v>       0.00000000       0.00000000       0.47916667 </v>
     <v>       0.00000000       0.00000000       0.46875000 </v>
     <v>       0.00000000       0.00000000       0.45833333 </v>
     <v>       0.00000000       0.00000000       0.44791667 </v>
     <v>       0.00000000       0.00000000       0.43750000 </v>
     <v>       0.00000000       0.00000000       0.42708333 </v>
     <v>       0.00000000       0.00000000       0.41666667 </v>
     <v>       0.00000000       0.00000000       0.40625000 </v>
     <v>       0.00000000       0.00000000       0.39583333 </v>
     <v>       0.00000000       0.00000000       0.38541667 </v>
     <v>       0.00000000       0.00000000       0.37500000 </v>
     <v>       0.00000000       0.00000000       0.36458333 </v>
     <v>       0.00000000       0.00000000       0.35416667 </v>
     <v>       0.00000000       0.00000000       0.34375000 </v>
     <v>       0.00000000       0.00000000       0.33333333 </v>
     <v>       0.00000000       0.00000000       0.32291667 </v>
     <v>       0.00000000       0.00000000       0.31250000 </v>
     <v>       0.00000000       0.00000000       0.30208333 </v>
     <v>       0.00000000       0.00000000       0.29166667 </v>
     <v>       0.00000000       0.00000000       0.28125000 </v>
     <v>       0.00000000       0.00000000       0.27083333 </v>
     <v>       0.00000000       0.00000000       0.26041667 </v>
     <v>       0.00000000       0.00000000       0.25000000 </v>
     <v>       0.00000000       0.00000000       0.23958333 </v>
     <v>       0.00000000       0.00000000       0.22916667 </v>
     <v>       0.00000000       0.00000000       0.21875000 </v>
     <v>       0.00000000       0.00000000       0.20833333 </v>
     <v>       0.00000000       0.00000000       0.19791667 </v>
     <v>       0.00000000       0.00000000       0.18750000 </v>
     <v>       0.00000000       0.00000000       0.17708333 </v>
     <v>       0.00000000       0.00000000       0.16666667 </v>
     <v>       0.00000000       0.00000000       0.15625000 </v>
     <v>       0.00000000       0.00000000       0.14583333 </v>
     <v>       0.00000000       0.00000000       0.13541667 </v>
     <v>       0.00000000       0.00000000       0.12500000 </v>
     <v>       0.00000000       0.00000000       0.11458333 </v>
     <v>       0.00000000       0.00000000       0.10416667 </v>
     <v>       0.00000000       0.00000000       0.09375000 </v>
     <v>       0.00000000       0.00000000       0.08333333 </v>
     <v>       0.00000000       0.00000000       0.07291667 </v>
     <v>       0.00000000       0.00000000       0.06250000 </v>
     <v>       0.00000000       0.00000000       0.05208333 </v>
     <v>       0.00000000       0.00000000       0.04166667 </v>
     <v>       0.00000000       0.00000000       0.03125000 </v>
     <v>       0.00000000       0.00000000       0.02083333 </v>
     <v>       0.00000000       0.00000000       0.01041667 </v>
     <v>       0.00000000       0.00000000       0.00000000 </v>
    </varray>
    <varray name="weights" >
     <v>       0.00680272 </v>
     <v>       0.00680272 </v>
     <v>       0.00680272 </v>
     <v>       0.00680272 </v>
     <v>       0.00680272 </v>
     <v>       0.00680272 </v>
     <v>       0.00680272 </v>
     <v>       0.00680272 </v>
     <v>       0.00680272 </v>
     <v>       0.00680272 </v>
     <v>       0.00680272 </v>
     <v>       0.00680272 </v>
     <v>       0.00680272 </v>
     <v>       0.00680272 </v>
     <v>       0.00680272 </v>
     <v>       0.00680272 </v>
     <v>       0.00680272 </v>
     <v>       0.00680272 </v>
     <v>       0.00680272 </v>
     <v>       0.00680272 </v>
     <v>       0.00680272 </v>
     <v>       0.00680272 </v>
     <v>       0.00680272 </v>
     <v>       0.00680272 </v>
     <v>       0.00680272 </v>
     <v>       0.00680272 </v>
     <v>       0.00680272 </v>
     <v>       0.00680272 </v>
     <v>       0.00680272 </v>
     <v>       0.00680272 </v>
     <v>       0.00680272 </v>
     <v>       0.00680272 </v>
     <v>       0.00680272 </v>
     <v>       0.00680272 </v>
     <v>       0.00680272 </v>
     <v>       0.00680272 </v>
     <v>       0.00680272 </v>
     <v>       0.00680272 </v>
     <v>       0.00680272 </v>
     <v>       0.00680272 </v>
     <v>       0.00680272 </v>
     <v>       0.00680272 </v>
     <v>       0.00680272 </v>
     <v>       0.00680272 </v>
     <v>       0.00680272 </v>
     <v>       0.00680272 </v>
     <v>       0.00680272 </v>
     <v>       0.00680272 </v>
     <v>       0.00680272 </v>
     <v>       0.00680272 </v>
     <v>       0.00680272 </v>
     <v>       0.00680272 </v>
     <v>       0.00680272 </v>
     <v>       0.00680272 </v>
     <v>       0.00680272 </v>
     <v>       0.00680272 </v>
     <v>       0.00680272 </v>
     <v>       0.00680272 </v>
     <v>       0.00680272 </v>
     <v>       0.00680272 </v>
     <v>       0.00680272 </v>
     <v>       0.00680272 </v>
     <v>       0.00680272 </v>
     <v>       0.00680272 </v>
     <v>       0.00680272 </v>
     <v>       0.00680272 </v>
     <v>       0.00680272 </v>
     <v>       0.00680272 </v>
     <v>       0.00680272 </v>
     <v>       0.00680272 </v>
     <v>       0.00680272 </v>
     <v>       0.00680272 </v>
     <v>       0.00680272 </v>
     <v>       0.00680272 </v>
     <v>       0.00680272 </v>
     <v>       0.00680272 </v>
     <v>       0.00680272 </v>
     <v>       0.00680272 </v>
     <v>       0.00680272 </v>
     <v>       0.00680272 </v>
     <v>       0.00680272 </v>
     <v>       0.00680272 </v>
     <v>       0.00680272 </v>
     <v>       0.00680272 </v>
     <v>       0.00680272 </v>
     <v>       0.00680272 </v>
     <v>       0.00680272 </v>
     <v>       0.00680272 </v>
     <v>       0.00680272 </v>
     <v>       0.00680272 </v>
     <v>       0.00680272 </v>
     <v>       0.00680272 </v>
     <v>       0.00680272 </v>
     <v>       0.00680272 </v>
     <v>       0.00680272 </v>
     <v>       0.00680272 </v>
     <v>       0.00680272 </v>
     <v>       0.00680272 </v>
     <v>       0.00680272 </v>
     <v>       0.00680272 </v>
     <v>       0.00680272 </v>
     <v>       0.00680272 </v>
     <v>       0.00680272 </v>
     <v>       0.00680272 </v>
     <v>       0.00680272 </v>
     <v>       0.00680272 </v>
     <v>       0.00680272 </v>
     <v>       0.00680272 </v>
     <v>       0.00680272 </v>
     <v>       0.00680272 </v>
     <v>       0.00680272 </v>
     <v>       0.00680272 </v>
     <v>       0.00680272 </v>
     <v>       0.00680272 </v>
     <v>       0.00680272 </v>
     <v>       0.00680272 </v>
     <v>       0.00680272 </v>
     <v>       0.00680272 </v>
     <v>       0.00680272 </v>
     <v>       0.00680272 </v>
     <v>       0.00680272 </v>
     <v>       0.00680272 </v>
     <v>       0.00680272 </v>
     <v>       0.00680272 </v>
     <v>       0.00680272 </v>
     <v>       0.00680272 </v>
     <v>       0.00680272 </v>
     <v>       0.00680272 </v>
     <v>       0.00680272 </v>
     <v>       0.00680272 </v>
     <v>       0.00680272 </v>
     <v>       0.00680272 </v>
     <v>       0.00680272 </v>
     <v>       0.00680272 </v>
     <v>       0.00680272 </v>
     <v>       0.00680272 </v>
     <v>       0.00680272 </v>
     <v>       0.00680272 </v>
     <v>       0.00680272 </v>
     <v>       0.00680272 </v>
     <v>       0.00680272 </v>
     <v>       0.00680272 </v>
     <v>       0.00680272 </v>
     <v>       0.00680272 </v>
     <v>       0.00680272 </v>
     <v>       0.00680272 </v>
     <v>       0.00680272 </v>
    </varray>
   </kpoints>
   <eigenvalues>
    <array>
     <dimension dim="1">band</dimension>
     <dimension dim="2">kpoint</dimension>
     <dimension dim="3">spin</dimension>
     <field>eigene</field>
     <set>
      <set comment="spin 1">
       <set comment="kpoint 1">
        <r>  -54.0201 </r>
        <r>  -53.6873 </r>
        <r>  -27.9497 </r>
        <r>  -27.9497 </r>
        <r>  -27.9497 </r>
        <r>  -27.3370 </r>
        <r>  -27.3370 </r>
        <r>  -27.3370 </r>
        <r>    3.1050 </r>
        <r>    6.7027 </r>
        <r>    6.7027 </r>
        <r>   10.1056 </r>
        <r>   10.1056 </r>
        <r>   10.1056 </r>
        <r>   12.0998 </r>
        <r>   12.0998 </r>
        <r>   13.4080 </r>
        <r>   13.4080 </r>
        <r>   13.4080 </r>
        <r>   19.8859 </r>
        <r>   19.8859 </r>
        <r>   19.8859 </r>
        <r>   26.5982 </r>
        <r>   26.5982 </r>
        <r>   30.1724 </r>
        <r>   30.1724 </r>
        <r>   30.1724 </r>
        <r>   31.5232 </r>
        <r>   37.2084 </r>
        <r>   37.2084 </r>
        <r>   41.4683 </r>
        <r>   41.4683 </r>
        <r>   41.4683 </r>
        <r>   41.9714 </r>
        <r>   42.1810 </r>
        <r>   42.1810 </r>
        <r>   42.1810 </r>
        <r>   53.0074 </r>
        <r>   53.0074 </r>
        <r>   53.0074 </r>
        <r>   54.7328 </r>
        <r>   54.7328 </r>
        <r>   54.7328 </r>
        <r>   55.6139 </r>
        <r>   63.7895 </r>
        <r>   64.9429 </r>
        <r>   64.9429 </r>
        <r>   64.9429 </r>
       </set>
       <set comment="kpoint 2">
        <r>  -54.0198 </r>
        <r>  -53.6875 </r>
        <r>  -27.9498 </r>
        <r>  -27.9498 </r>
        <r>  -27.9484 </r>
        <r>  -27.3387 </r>
        <r>  -27.3372 </r>
        <r>  -27.3372 </r>
        <r>    3.1116 </r>
        <r>    6.7064 </r>
        <r>    6.7064 </r>
        <r>   10.1036 </r>
        <r>   10.1036 </r>
        <r>   10.1111 </r>
        <r>   12.0982 </r>
        <r>   12.0982 </r>
        <r>   13.3899 </r>
        <r>   13.4048 </r>
        <r>   13.4048 </r>
        <r>   19.8839 </r>
        <r>   19.8839 </r>
        <r>   19.8933 </r>
        <r>   26.6076 </r>
        <r>   26.6076 </r>
        <r>   30.1665 </r>
        <r>   30.1665 </r>
        <r>   30.1778 </r>
        <r>   31.5403 </r>
        <r>   37.2008 </r>
        <r>   37.2008 </r>
        <r>   41.2346 </r>
        <r>   41.4078 </r>
        <r>   41.4078 </r>
        <r>   41.9677 </r>
        <r>   42.2775 </r>
        <r>   42.2775 </r>
        <r>   42.3887 </r>
        <r>   52.8081 </r>
        <r>   52.9683 </r>
        <r>   52.9683 </r>
        <r>   54.7724 </r>
        <r>   54.7724 </r>
        <r>   54.9158 </r>
        <r>   55.6269 </r>
        <r>   63.8257 </r>
        <r>   64.9268 </r>
        <r>   64.9268 </r>
        <r>   64.9434 </r>
       </set>
       <set comment="kpoint 3">
        <r>  -54.0188 </r>
        <r>  -53.6882 </r>
        <r>  -27.9502 </r>
        <r>  -27.9502 </r>
        <r>  -27.9446 </r>
        <r>  -27.3437 </r>
        <r>  -27.3377 </r>
        <r>  -27.3377 </r>
        <r>    3.1315 </r>
        <r>    6.7174 </r>
        <r>    6.7174 </r>
        <r>   10.0973 </r>
        <r>   10.0973 </r>
        <r>   10.1276 </r>
        <r>   12.0933 </r>
        <r>   12.0933 </r>
        <r>   13.3361 </r>
        <r>   13.3953 </r>
        <r>   13.3953 </r>
        <r>   19.8779 </r>
        <r>   19.8779 </r>
        <r>   19.9152 </r>
        <r>   26.6358 </r>
        <r>   26.6358 </r>
        <r>   30.1484 </r>
        <r>   30.1484 </r>
        <r>   30.1940 </r>
        <r>   31.5915 </r>
        <r>   37.1795 </r>
        <r>   37.1795 </r>
        <r>   40.8005 </r>
        <r>   41.2827 </r>
        <r>   41.2827 </r>
        <r>   41.9561 </r>
        <r>   42.5093 </r>
        <r>   42.5093 </r>
        <r>   42.7445 </r>
        <r>   52.3568 </r>
        <r>   52.8604 </r>
        <r>   52.8604 </r>
        <r>   54.8817 </r>
        <r>   54.8817 </r>
        <r>   55.3187 </r>
        <r>   55.6664 </r>
        <r>   63.9343 </r>
        <r>   64.8789 </r>
        <r>   64.8789 </r>
        <r>   64.9448 </r>
       </set>
       <set comment="kpoint 4">
        <r>  -54.0173 </r>
        <r>  -53.6893 </r>
        <r>  -27.9509 </r>
        <r>  -27.9509 </r>
        <r>  -27.9383 </r>
        <r>  -27.3519 </r>
        <r>  -27.3385 </r>
        <r>  -27.3385 </r>
        <r>    3.1645 </r>
        <r>    6.7358 </r>
        <r>    6.7358 </r>
        <r>   10.0868 </r>
        <r>   10.0868 </r>
        <r>   10.1550 </r>
        <r>   12.0855 </r>
        <r>   12.0855 </r>
        <r>   13.2483 </r>
        <r>   13.3797 </r>
        <r>   13.3797 </r>
        <r>   19.8679 </r>
        <r>   19.8679 </r>
        <r>   19.9501 </r>
        <r>   26.6826 </r>
        <r>   26.6826 </r>
        <r>   30.1170 </r>
        <r>   30.1170 </r>
        <r>   30.2210 </r>
        <r>   31.6764 </r>
        <r>   37.1491 </r>
        <r>   37.1491 </r>
        <r>   40.3129 </r>
        <r>   41.1522 </r>
        <r>   41.1522 </r>
        <r>   41.9355 </r>
        <r>   42.8137 </r>
        <r>   42.8137 </r>
        <r>   43.1014 </r>
        <r>   51.8115 </r>
        <r>   52.7037 </r>
        <r>   52.7037 </r>
        <r>   55.0409 </r>
        <r>   55.0409 </r>
        <r>   55.7328 </r>
        <r>   55.7845 </r>
        <r>   64.1151 </r>
        <r>   64.8001 </r>
        <r>   64.8001 </r>
        <r>   64.9476 </r>
       </set>
       <set comment="kpoint 5">
        <r>  -54.0148 </r>
        <r>  -53.6911 </r>
        <r>  -27.9518 </r>
        <r>  -27.9518 </r>
        <r>  -27.9299 </r>
        <r>  -27.3630 </r>
        <r>  -27.3395 </r>
        <r>  -27.3395 </r>
        <r>    3.2106 </r>
        <r>    6.7613 </r>
        <r>    6.7613 </r>
        <r>   10.0720 </r>
        <r>   10.0720 </r>
        <r>   10.1934 </r>
        <r>   12.0753 </r>
        <r>   12.0753 </r>
        <r>   13.1290 </r>
        <r>   13.3581 </r>
        <r>   13.3581 </r>
        <r>   19.8537 </r>
        <r>   19.8537 </r>
        <r>   19.9957 </r>
        <r>   26.7474 </r>
        <r>   26.7474 </r>
        <r>   30.0717 </r>
        <r>   30.0717 </r>
        <r>   30.2588 </r>
        <r>   31.7938 </r>
        <r>   37.1166 </r>
        <r>   37.1166 </r>
        <r>   39.7999 </r>
        <r>   41.0364 </r>
        <r>   41.0364 </r>
        <r>   41.9038 </r>
        <r>   43.1667 </r>
        <r>   43.1667 </r>
        <r>   43.4325 </r>
        <r>   51.2337 </r>
        <r>   52.5143 </r>
        <r>   52.5143 </r>
        <r>   55.2296 </r>
        <r>   55.2296 </r>
        <r>   55.8283 </r>
        <r>   56.2479 </r>
        <r>   64.3652 </r>
        <r>   64.6968 </r>
        <r>   64.6968 </r>
        <r>   64.9527 </r>
       </set>
       <set comment="kpoint 6">
        <r>  -54.0121 </r>
        <r>  -53.6933 </r>
        <r>  -27.9531 </r>
        <r>  -27.9531 </r>
        <r>  -27.9190 </r>
        <r>  -27.3774 </r>
        <r>  -27.3410 </r>
        <r>  -27.3410 </r>
        <r>    3.2694 </r>
        <r>    6.7938 </r>
        <r>    6.7938 </r>
        <r>   10.0526 </r>
        <r>   10.0526 </r>
        <r>   10.2426 </r>
        <r>   12.0630 </r>
        <r>   12.0630 </r>
        <r>   12.9818 </r>
        <r>   13.3308 </r>
        <r>   13.3308 </r>
        <r>   19.8355 </r>
        <r>   19.8355 </r>
        <r>   20.0500 </r>
        <r>   26.8305 </r>
        <r>   26.8305 </r>
        <r>   30.0087 </r>
        <r>   30.0087 </r>
        <r>   30.3073 </r>
        <r>   31.9431 </r>
        <r>   37.0885 </r>
        <r>   37.0885 </r>
        <r>   39.2671 </r>
        <r>   40.9376 </r>
        <r>   40.9376 </r>
        <r>   41.8579 </r>
        <r>   43.5563 </r>
        <r>   43.5563 </r>
        <r>   43.7284 </r>
        <r>   50.6503 </r>
        <r>   52.3081 </r>
        <r>   52.3081 </r>
        <r>   55.4323 </r>
        <r>   55.4323 </r>
        <r>   55.9509 </r>
        <r>   56.6969 </r>
        <r>   64.5613 </r>
        <r>   64.5613 </r>
        <r>   64.6851 </r>
        <r>   64.9610 </r>
       </set>
       <set comment="kpoint 7">
        <r>  -54.0087 </r>
        <r>  -53.6957 </r>
        <r>  -27.9545 </r>
        <r>  -27.9545 </r>
        <r>  -27.9057 </r>
        <r>  -27.3947 </r>
        <r>  -27.3428 </r>
        <r>  -27.3428 </r>
        <r>    3.3408 </r>
        <r>    6.8334 </r>
        <r>    6.8334 </r>
        <r>   10.0284 </r>
        <r>   10.0284 </r>
        <r>   10.3025 </r>
        <r>   12.0494 </r>
        <r>   12.0494 </r>
        <r>   12.8103 </r>
        <r>   13.2984 </r>
        <r>   13.2984 </r>
        <r>   19.8132 </r>
        <r>   19.8132 </r>
        <r>   20.1103 </r>
        <r>   26.9324 </r>
        <r>   26.9324 </r>
        <r>   29.9269 </r>
        <r>   29.9269 </r>
        <r>   30.3666 </r>
        <r>   32.1232 </r>
        <r>   37.0734 </r>
        <r>   37.0734 </r>
        <r>   38.7207 </r>
        <r>   40.8564 </r>
        <r>   40.8564 </r>
        <r>   41.7958 </r>
        <r>   43.9773 </r>
        <r>   43.9773 </r>
        <r>   43.9850 </r>
        <r>   50.0777 </r>
        <r>   52.0919 </r>
        <r>   52.0919 </r>
        <r>   55.6521 </r>
        <r>   55.6521 </r>
        <r>   56.1023 </r>
        <r>   57.1183 </r>
        <r>   64.4008 </r>
        <r>   64.4008 </r>
        <r>   64.9742 </r>
        <r>   65.0714 </r>
       </set>
       <set comment="kpoint 8">
        <r>  -54.0049 </r>
        <r>  -53.6983 </r>
        <r>  -27.9560 </r>
        <r>  -27.9560 </r>
        <r>  -27.8903 </r>
        <r>  -27.4147 </r>
        <r>  -27.3449 </r>
        <r>  -27.3449 </r>
        <r>    3.4245 </r>
        <r>    6.8797 </r>
        <r>    6.8797 </r>
        <r>    9.9993 </r>
        <r>    9.9993 </r>
        <r>   10.3732 </r>
        <r>   12.0351 </r>
        <r>   12.0351 </r>
        <r>   12.6181 </r>
        <r>   13.2612 </r>
        <r>   13.2612 </r>
        <r>   19.7867 </r>
        <r>   19.7867 </r>
        <r>   20.1738 </r>
        <r>   27.0523 </r>
        <r>   27.0523 </r>
        <r>   29.8245 </r>
        <r>   29.8245 </r>
        <r>   30.4367 </r>
        <r>   32.3319 </r>
        <r>   37.0783 </r>
        <r>   37.0783 </r>
        <r>   38.1638 </r>
        <r>   40.7909 </r>
        <r>   40.7909 </r>
        <r>   41.7123 </r>
        <r>   44.1999 </r>
        <r>   44.4256 </r>
        <r>   44.4256 </r>
        <r>   49.5260 </r>
        <r>   51.8704 </r>
        <r>   51.8704 </r>
        <r>   55.8772 </r>
        <r>   55.8772 </r>
        <r>   56.2821 </r>
        <r>   57.5098 </r>
        <r>   64.2177 </r>
        <r>   64.2177 </r>
        <r>   64.9940 </r>
        <r>   65.5173 </r>
       </set>
       <set comment="kpoint 9">
        <r>  -54.0005 </r>
        <r>  -53.7014 </r>
        <r>  -27.9578 </r>
        <r>  -27.9578 </r>
        <r>  -27.8729 </r>
        <r>  -27.4373 </r>
        <r>  -27.3474 </r>
        <r>  -27.3474 </r>
        <r>    3.5201 </r>
        <r>    6.9325 </r>
        <r>    6.9325 </r>
        <r>    9.9652 </r>
        <r>    9.9652 </r>
        <r>   10.4544 </r>
        <r>   12.0210 </r>
        <r>   12.0210 </r>
        <r>   12.4091 </r>
        <r>   13.2197 </r>
        <r>   13.2197 </r>
        <r>   19.7561 </r>
        <r>   19.7561 </r>
        <r>   20.2383 </r>
        <r>   27.1899 </r>
        <r>   27.1899 </r>
        <r>   29.7003 </r>
        <r>   29.7003 </r>
        <r>   30.5176 </r>
        <r>   32.5670 </r>
        <r>   37.1091 </r>
        <r>   37.1091 </r>
        <r>   37.5987 </r>
        <r>   40.7390 </r>
        <r>   40.7390 </r>
        <r>   41.6027 </r>
        <r>   44.3721 </r>
        <r>   44.8977 </r>
        <r>   44.8977 </r>
        <r>   49.0051 </r>
        <r>   51.6470 </r>
        <r>   51.6470 </r>
        <r>   56.1041 </r>
        <r>   56.1041 </r>
        <r>   56.4889 </r>
        <r>   57.8726 </r>
        <r>   64.0143 </r>
        <r>   64.0143 </r>
        <r>   65.0229 </r>
        <r>   66.0153 </r>
       </set>
       <set comment="kpoint 10">
        <r>  -53.9956 </r>
        <r>  -53.7051 </r>
        <r>  -27.9598 </r>
        <r>  -27.9598 </r>
        <r>  -27.8538 </r>
        <r>  -27.4622 </r>
        <r>  -27.3503 </r>
        <r>  -27.3503 </r>
        <r>    3.6272 </r>
        <r>    6.9912 </r>
        <r>    6.9912 </r>
        <r>    9.9259 </r>
        <r>    9.9259 </r>
        <r>   10.5460 </r>
        <r>   12.0076 </r>
        <r>   12.0076 </r>
        <r>   12.1867 </r>
        <r>   13.1745 </r>
        <r>   13.1745 </r>
        <r>   19.7211 </r>
        <r>   19.7211 </r>
        <r>   20.3017 </r>
        <r>   27.3444 </r>
        <r>   27.3444 </r>
        <r>   29.5538 </r>
        <r>   29.5538 </r>
        <r>   30.6093 </r>
        <r>   32.8254 </r>
        <r>   37.0276 </r>
        <r>   37.1697 </r>
        <r>   37.1697 </r>
        <r>   40.6992 </r>
        <r>   40.6992 </r>
        <r>   41.4624 </r>
        <r>   44.5021 </r>
        <r>   45.3908 </r>
        <r>   45.3908 </r>
        <r>   48.5237 </r>
        <r>   51.4228 </r>
        <r>   51.4228 </r>
        <r>   56.3239 </r>
        <r>   56.3239 </r>
        <r>   56.7200 </r>
        <r>   58.2059 </r>
        <r>   63.7931 </r>
        <r>   63.7931 </r>
        <r>   65.0637 </r>
        <r>   66.5564 </r>
       </set>
       <set comment="kpoint 11">
        <r>  -53.9904 </r>
        <r>  -53.7087 </r>
        <r>  -27.9618 </r>
        <r>  -27.9618 </r>
        <r>  -27.8330 </r>
        <r>  -27.4893 </r>
        <r>  -27.3536 </r>
        <r>  -27.3536 </r>
        <r>    3.7453 </r>
        <r>    7.0559 </r>
        <r>    7.0559 </r>
        <r>    9.8815 </r>
        <r>    9.8815 </r>
        <r>   10.6477 </r>
        <r>   11.9542 </r>
        <r>   11.9958 </r>
        <r>   11.9958 </r>
        <r>   13.1262 </r>
        <r>   13.1262 </r>
        <r>   19.6823 </r>
        <r>   19.6823 </r>
        <r>   20.3626 </r>
        <r>   27.5165 </r>
        <r>   27.5165 </r>
        <r>   29.3851 </r>
        <r>   29.3851 </r>
        <r>   30.7117 </r>
        <r>   33.1040 </r>
        <r>   36.4504 </r>
        <r>   37.2626 </r>
        <r>   37.2626 </r>
        <r>   40.6701 </r>
        <r>   40.6701 </r>
        <r>   41.2876 </r>
        <r>   44.5839 </r>
        <r>   45.9021 </r>
        <r>   45.9021 </r>
        <r>   48.0896 </r>
        <r>   51.2014 </r>
        <r>   51.2014 </r>
        <r>   56.5456 </r>
        <r>   56.5456 </r>
        <r>   56.9711 </r>
        <r>   58.5236 </r>
        <r>   63.5560 </r>
        <r>   63.5560 </r>
        <r>   65.1182 </r>
        <r>   66.6872 </r>
       </set>
       <set comment="kpoint 12">
        <r>  -53.9843 </r>
        <r>  -53.7125 </r>
        <r>  -27.9638 </r>
        <r>  -27.9638 </r>
        <r>  -27.8107 </r>
        <r>  -27.5179 </r>
        <r>  -27.3570 </r>
        <r>  -27.3570 </r>
        <r>    3.8740 </r>
        <r>    7.1261 </r>
        <r>    7.1261 </r>
        <r>    9.8322 </r>
        <r>    9.8322 </r>
        <r>   10.7599 </r>
        <r>   11.7149 </r>
        <r>   11.9862 </r>
        <r>   11.9862 </r>
        <r>   13.0753 </r>
        <r>   13.0753 </r>
        <r>   19.6395 </r>
        <r>   19.6395 </r>
        <r>   20.4198 </r>
        <r>   27.7054 </r>
        <r>   27.7054 </r>
        <r>   29.1955 </r>
        <r>   29.1955 </r>
        <r>   30.8260 </r>
        <r>   33.3981 </r>
        <r>   35.8722 </r>
        <r>   37.3898 </r>
        <r>   37.3898 </r>
        <r>   40.6519 </r>
        <r>   40.6519 </r>
        <r>   41.0793 </r>
        <r>   44.6341 </r>
        <r>   46.4305 </r>
        <r>   46.4305 </r>
        <r>   47.7094 </r>
        <r>   50.9833 </r>
        <r>   50.9833 </r>
        <r>   56.7612 </r>
        <r>   56.7612 </r>
        <r>   57.2374 </r>
        <r>   58.8267 </r>
        <r>   63.3118 </r>
        <r>   63.3118 </r>
        <r>   65.2052 </r>
        <r>   66.2268 </r>
       </set>
       <set comment="kpoint 13">
        <r>  -53.9782 </r>
        <r>  -53.7166 </r>
        <r>  -27.9659 </r>
        <r>  -27.9659 </r>
        <r>  -27.7873 </r>
        <r>  -27.5482 </r>
        <r>  -27.3611 </r>
        <r>  -27.3611 </r>
        <r>    4.0129 </r>
        <r>    7.2011 </r>
        <r>    7.2011 </r>
        <r>    9.7780 </r>
        <r>    9.7780 </r>
        <r>   10.8819 </r>
        <r>   11.4711 </r>
        <r>   11.9790 </r>
        <r>   11.9790 </r>
        <r>   13.0225 </r>
        <r>   13.0225 </r>
        <r>   19.5930 </r>
        <r>   19.5930 </r>
        <r>   20.4724 </r>
        <r>   27.9105 </r>
        <r>   27.9105 </r>
        <r>   28.9862 </r>
        <r>   28.9862 </r>
        <r>   30.9500 </r>
        <r>   33.7015 </r>
        <r>   35.2925 </r>
        <r>   37.5478 </r>
        <r>   37.5478 </r>
        <r>   40.6429 </r>
        <r>   40.6429 </r>
        <r>   40.8330 </r>
        <r>   44.6489 </r>
        <r>   46.9725 </r>
        <r>   46.9725 </r>
        <r>   47.3856 </r>
        <r>   50.7694 </r>
        <r>   50.7694 </r>
        <r>   56.9669 </r>
        <r>   56.9669 </r>
        <r>   57.5123 </r>
        <r>   59.1205 </r>
        <r>   63.0495 </r>
        <r>   63.0495 </r>
        <r>   65.3044 </r>
        <r>   65.7170 </r>
       </set>
       <set comment="kpoint 14">
        <r>  -53.9717 </r>
        <r>  -53.7210 </r>
        <r>  -27.9680 </r>
        <r>  -27.9680 </r>
        <r>  -27.7629 </r>
        <r>  -27.5797 </r>
        <r>  -27.3656 </r>
        <r>  -27.3656 </r>
        <r>    4.1612 </r>
        <r>    7.2807 </r>
        <r>    7.2807 </r>
        <r>    9.7193 </r>
        <r>    9.7193 </r>
        <r>   11.0137 </r>
        <r>   11.2255 </r>
        <r>   11.9747 </r>
        <r>   11.9747 </r>
        <r>   12.9684 </r>
        <r>   12.9684 </r>
        <r>   19.5431 </r>
        <r>   19.5431 </r>
        <r>   20.5199 </r>
        <r>   28.1315 </r>
        <r>   28.1315 </r>
        <r>   28.7595 </r>
        <r>   28.7595 </r>
        <r>   31.0847 </r>
        <r>   34.0060 </r>
        <r>   34.7126 </r>
        <r>   37.7358 </r>
        <r>   37.7358 </r>
        <r>   40.5580 </r>
        <r>   40.6444 </r>
        <r>   40.6444 </r>
        <r>   44.6323 </r>
        <r>   47.1197 </r>
        <r>   47.5266 </r>
        <r>   47.5266 </r>
        <r>   50.5603 </r>
        <r>   50.5603 </r>
        <r>   57.1597 </r>
        <r>   57.1597 </r>
        <r>   57.7885 </r>
        <r>   59.4098 </r>
        <r>   62.7771 </r>
        <r>   62.7771 </r>
        <r>   65.1615 </r>
        <r>   65.4321 </r>
       </set>
       <set comment="kpoint 15">
        <r>  -53.9648 </r>
        <r>  -53.7254 </r>
        <r>  -27.9700 </r>
        <r>  -27.9700 </r>
        <r>  -27.7378 </r>
        <r>  -27.6122 </r>
        <r>  -27.3705 </r>
        <r>  -27.3705 </r>
        <r>    4.3184 </r>
        <r>    7.3643 </r>
        <r>    7.3643 </r>
        <r>    9.6566 </r>
        <r>    9.6566 </r>
        <r>   10.9802 </r>
        <r>   11.1549 </r>
        <r>   11.9736 </r>
        <r>   11.9736 </r>
        <r>   12.9136 </r>
        <r>   12.9136 </r>
        <r>   19.4900 </r>
        <r>   19.4900 </r>
        <r>   20.5622 </r>
        <r>   28.3681 </r>
        <r>   28.3681 </r>
        <r>   28.5176 </r>
        <r>   28.5176 </r>
        <r>   31.2303 </r>
        <r>   34.1338 </r>
        <r>   34.3005 </r>
        <r>   37.9504 </r>
        <r>   37.9504 </r>
        <r>   40.2662 </r>
        <r>   40.6580 </r>
        <r>   40.6580 </r>
        <r>   44.5883 </r>
        <r>   46.9109 </r>
        <r>   48.0907 </r>
        <r>   48.0907 </r>
        <r>   50.3569 </r>
        <r>   50.3569 </r>
        <r>   57.3358 </r>
        <r>   57.3358 </r>
        <r>   58.0582 </r>
        <r>   59.7009 </r>
        <r>   62.4965 </r>
        <r>   62.4965 </r>
        <r>   64.5658 </r>
        <r>   65.5935 </r>
       </set>
       <set comment="kpoint 16">
        <r>  -53.9578 </r>
        <r>  -53.7300 </r>
        <r>  -27.9719 </r>
        <r>  -27.9719 </r>
        <r>  -27.7123 </r>
        <r>  -27.6452 </r>
        <r>  -27.3758 </r>
        <r>  -27.3758 </r>
        <r>    4.4839 </r>
        <r>    7.4513 </r>
        <r>    7.4513 </r>
        <r>    9.5905 </r>
        <r>    9.5905 </r>
        <r>   10.7373 </r>
        <r>   11.3054 </r>
        <r>   11.9757 </r>
        <r>   11.9757 </r>
        <r>   12.8587 </r>
        <r>   12.8587 </r>
        <r>   19.4341 </r>
        <r>   19.4341 </r>
        <r>   20.5991 </r>
        <r>   28.2629 </r>
        <r>   28.2629 </r>
        <r>   28.6195 </r>
        <r>   28.6195 </r>
        <r>   31.3866 </r>
        <r>   33.5571 </r>
        <r>   34.5683 </r>
        <r>   38.1868 </r>
        <r>   38.1868 </r>
        <r>   39.9771 </r>
        <r>   40.6862 </r>
        <r>   40.6862 </r>
        <r>   44.5210 </r>
        <r>   46.7517 </r>
        <r>   48.6629 </r>
        <r>   48.6629 </r>
        <r>   50.1591 </r>
        <r>   50.1591 </r>
        <r>   57.4895 </r>
        <r>   57.4895 </r>
        <r>   58.3138 </r>
        <r>   59.9931 </r>
        <r>   62.2092 </r>
        <r>   62.2092 </r>
        <r>   63.9361 </r>
        <r>   65.0778 </r>
       </set>
       <set comment="kpoint 17">
        <r>  -53.9505 </r>
        <r>  -53.7348 </r>
        <r>  -27.9737 </r>
        <r>  -27.9737 </r>
        <r>  -27.6866 </r>
        <r>  -27.6787 </r>
        <r>  -27.3816 </r>
        <r>  -27.3816 </r>
        <r>    4.6570 </r>
        <r>    7.5411 </r>
        <r>    7.5411 </r>
        <r>    9.5215 </r>
        <r>    9.5215 </r>
        <r>   10.4984 </r>
        <r>   11.4648 </r>
        <r>   11.9811 </r>
        <r>   11.9811 </r>
        <r>   12.8042 </r>
        <r>   12.8042 </r>
        <r>   19.3760 </r>
        <r>   19.3760 </r>
        <r>   20.6308 </r>
        <r>   27.9976 </r>
        <r>   27.9976 </r>
        <r>   28.8853 </r>
        <r>   28.8853 </r>
        <r>   31.5537 </r>
        <r>   32.9835 </r>
        <r>   34.7869 </r>
        <r>   38.4387 </r>
        <r>   38.4387 </r>
        <r>   39.7176 </r>
        <r>   40.7329 </r>
        <r>   40.7329 </r>
        <r>   44.4343 </r>
        <r>   46.6375 </r>
        <r>   49.2407 </r>
        <r>   49.2407 </r>
[...]
       <r>   52.7378    0.0000 </r>
       <r>   52.7378    0.0000 </r>
       <r>   52.7834    0.0000 </r>
       <r>   52.7834    0.0000 </r>
       <r>   55.4619    0.0000 </r>
       <r>   55.4619    0.0000 </r>
       <r>   59.4383    0.0000 </r>
       <r>   59.4383    0.0000 </r>
       <r>   59.5827    0.0000 </r>
       <r>   59.5827    0.0000 </r>
      </set>
      <set comment="kpoint 83">
       <r>  -53.8081    1.0000 </r>
       <r>  -53.8081    1.0000 </r>
       <r>  -27.8970    1.0000 </r>
       <r>  -27.8970    1.0000 </r>
       <r>  -27.7703    1.0000 </r>
       <r>  -27.7703    1.0000 </r>
       <r>  -27.6659    1.0000 </r>
       <r>  -27.6659    1.0000 </r>
       <r>    8.4146    1.0000 </r>
       <r>    8.4146    1.0000 </r>
       <r>    8.4263    1.0000 </r>
       <r>    8.4263    1.0000 </r>
       <r>    8.8551    1.0000 </r>
       <r>    8.8551    1.0000 </r>
       <r>   12.4908    0.0000 </r>
       <r>   12.4908    0.0000 </r>
       <r>   12.5184    0.0000 </r>
       <r>   12.5184    0.0000 </r>
       <r>   18.7618    0.0000 </r>
       <r>   18.7618    0.0000 </r>
       <r>   19.9181    0.0000 </r>
       <r>   19.9181    0.0000 </r>
       <r>   21.3926    0.0000 </r>
       <r>   21.3926    0.0000 </r>
       <r>   22.1558    0.0000 </r>
       <r>   22.1558    0.0000 </r>
       <r>   39.9414    0.0000 </r>
       <r>   39.9414    0.0000 </r>
       <r>   42.1092    0.0000 </r>
       <r>   42.1092    0.0000 </r>
       <r>   42.6603    0.0000 </r>
       <r>   42.6603    0.0000 </r>
       <r>   43.5537    0.0000 </r>
       <r>   43.5537    0.0000 </r>
       <r>   45.1151    0.0000 </r>
       <r>   45.1151    0.0000 </r>
       <r>   46.0940    0.0000 </r>
       <r>   46.0940    0.0000 </r>
       <r>   52.9857    0.0000 </r>
       <r>   52.9857    0.0000 </r>
       <r>   53.5193    0.0000 </r>
       <r>   53.5193    0.0000 </r>
       <r>   56.1117    0.0000 </r>
       <r>   56.1117    0.0000 </r>
       <r>   57.9452    0.0000 </r>
       <r>   57.9452    0.0000 </r>
       <r>   60.3873    0.0000 </r>
       <r>   60.3873    0.0000 </r>
      </set>
      <set comment="kpoint 84">
       <r>  -53.8066    1.0000 </r>
       <r>  -53.8066    1.0000 </r>
       <r>  -27.7809    1.0000 </r>
       <r>  -27.7809    1.0000 </r>
       <r>  -27.7809    1.0000 </r>
       <r>  -27.7809    1.0000 </r>
       <r>  -27.7809    1.0000 </r>
       <r>  -27.7809    1.0000 </r>
       <r>    8.5786    1.0000 </r>
       <r>    8.5786    1.0000 </r>
       <r>    8.5786    1.0000 </r>
       <r>    8.5786    1.0000 </r>
       <r>    8.5786    1.0000 </r>
       <r>    8.5786    1.0000 </r>
       <r>   12.5228    0.0000 </r>
       <r>   12.5228    0.0000 </r>
       <r>   12.5228    0.0000 </r>
       <r>   12.5228    0.0000 </r>
       <r>   20.0794    0.0000 </r>
       <r>   20.0794    0.0000 </r>
       <r>   20.0794    0.0000 </r>
       <r>   20.0794    0.0000 </r>
       <r>   20.0794    0.0000 </r>
       <r>   20.0794    0.0000 </r>
       <r>   21.5851    0.0000 </r>
       <r>   21.5851    0.0000 </r>
       <r>   42.5501    0.0000 </r>
       <r>   42.5501    0.0000 </r>
       <r>   42.5501    0.0000 </r>
       <r>   42.5501    0.0000 </r>
       <r>   42.5501    0.0000 </r>
       <r>   42.5501    0.0000 </r>
       <r>   43.8473    0.0000 </r>
       <r>   43.8473    0.0000 </r>
       <r>   43.8473    0.0000 </r>
       <r>   43.8473    0.0000 </r>
       <r>   43.8473    0.0000 </r>
       <r>   43.8473    0.0000 </r>
       <r>   53.6225    0.0000 </r>
       <r>   53.6225    0.0000 </r>
       <r>   53.6225    0.0000 </r>
       <r>   53.6225    0.0000 </r>
       <r>   58.2677    0.0000 </r>
       <r>   58.2677    0.0000 </r>
       <r>   58.2677    0.0000 </r>
       <r>   58.2677    0.0000 </r>
       <r>   58.2677    0.0000 </r>
       <r>   58.2677    0.0000 </r>
      </set>
     </set>
    </set>
   </array>
  </eigenvalues>
  <separator name="orbital magnetization" >
   <v name="MAGDIPOLOUT">      0.00000000      0.00000000      0.00000000</v>
  </separator>
  <dos>
   <i name="efermi">      9.67213905 </i>
   <total>
    <array>
     <dimension dim="1">gridpoints</dimension>
     <dimension dim="2">spin</dimension>
     <field>energy</field>
     <field>total</field>
     <field>integrated</field>
     <set>
      <set comment="spin 1">
       <r>   -60.1719     0.0000     0.0000 </r>
       <r>   -59.7208     0.0000     0.0000 </r>
       <r>   -59.2696     0.0000     0.0000 </r>
       <r>   -58.8185     0.0000     0.0000 </r>
       <r>   -58.3674     0.0000     0.0000 </r>
       <r>   -57.9162     0.0000     0.0000 </r>
       <r>   -57.4651     0.0000     0.0000 </r>
       <r>   -57.0139     0.0000     0.0000 </r>
       <r>   -56.5628     0.0000     0.0000 </r>
       <r>   -56.1116     0.0000     0.0000 </r>
       <r>   -55.6605     0.0000     0.0000 </r>
       <r>   -55.2094     0.0000     0.0000 </r>
       <r>   -54.7582     0.0000     0.0000 </r>
       <r>   -54.3071     0.0000     0.0000 </r>
       <r>   -53.8559     2.8305     1.2769 </r>
       <r>   -53.4048     2.5639     4.0000 </r>
       <r>   -52.9537     0.0000     4.0000 </r>
       <r>   -52.5025     0.0000     4.0000 </r>
       <r>   -52.0514     0.0000     4.0000 </r>
       <r>   -51.6002     0.0000     4.0000 </r>
       <r>   -51.1491     0.0000     4.0000 </r>
       <r>   -50.6980     0.0000     4.0000 </r>
       <r>   -50.2468     0.0000     4.0000 </r>
       <r>   -49.7957     0.0000     4.0000 </r>
       <r>   -49.3445     0.0000     4.0000 </r>
       <r>   -48.8934     0.0000     4.0000 </r>
       <r>   -48.4423     0.0000     4.0000 </r>
       <r>   -47.9911     0.0000     4.0000 </r>
       <r>   -47.5400     0.0000     4.0000 </r>
       <r>   -47.0888     0.0000     4.0000 </r>
       <r>   -46.6377     0.0000     4.0000 </r>
       <r>   -46.1866     0.0000     4.0000 </r>
       <r>   -45.7354     0.0000     4.0000 </r>
       <r>   -45.2843     0.0000     4.0000 </r>
       <r>   -44.8331     0.0000     4.0000 </r>
       <r>   -44.3820     0.0000     4.0000 </r>
       <r>   -43.9309     0.0000     4.0000 </r>
       <r>   -43.4797     0.0000     4.0000 </r>
       <r>   -43.0286     0.0000     4.0000 </r>
       <r>   -42.5774     0.0000     4.0000 </r>
       <r>   -42.1263     0.0000     4.0000 </r>
       <r>   -41.6752     0.0000     4.0000 </r>
       <r>   -41.2240     0.0000     4.0000 </r>
       <r>   -40.7729     0.0000     4.0000 </r>
       <r>   -40.3217     0.0000     4.0000 </r>
       <r>   -39.8706     0.0000     4.0000 </r>
       <r>   -39.4195     0.0000     4.0000 </r>
       <r>   -38.9683     0.0000     4.0000 </r>
       <r>   -38.5172     0.0000     4.0000 </r>
       <r>   -38.0660     0.0000     4.0000 </r>
       <r>   -37.6149     0.0000     4.0000 </r>
       <r>   -37.1638     0.0000     4.0000 </r>
       <r>   -36.7126     0.0000     4.0000 </r>
       <r>   -36.2615     0.0000     4.0000 </r>
       <r>   -35.8103     0.0000     4.0000 </r>
       <r>   -35.3592     0.0000     4.0000 </r>
       <r>   -34.9081     0.0000     4.0000 </r>
       <r>   -34.4569     0.0000     4.0000 </r>
       <r>   -34.0058     0.0000     4.0000 </r>
       <r>   -33.5546     0.0000     4.0000 </r>
       <r>   -33.1035     0.0000     4.0000 </r>
       <r>   -32.6524     0.0000     4.0000 </r>
       <r>   -32.2012     0.0000     4.0000 </r>
       <r>   -31.7501     0.0000     4.0000 </r>
       <r>   -31.2989     0.0000     4.0000 </r>
       <r>   -30.8478     0.0000     4.0000 </r>
       <r>   -30.3967     0.0000     4.0000 </r>
       <r>   -29.9455     0.0000     4.0000 </r>
       <r>   -29.4944     0.0000     4.0000 </r>
       <r>   -29.0432     0.0000     4.0000 </r>
       <r>   -28.5921     0.0000     4.0000 </r>
       <r>   -28.1409     1.1147     4.5029 </r>
       <r>   -27.6898    10.5386     9.7686 </r>
       <r>   -27.2387    12.1449    15.9995 </r>
       <r>   -26.7875     0.0000    16.0000 </r>
       <r>   -26.3364     0.0000    16.0000 </r>
       <r>   -25.8852     0.0000    16.0000 </r>
       <r>   -25.4341     0.0000    16.0000 </r>
       <r>   -24.9830     0.0000    16.0000 </r>
       <r>   -24.5318     0.0000    16.0000 </r>
       <r>   -24.0807     0.0000    16.0000 </r>
       <r>   -23.6295     0.0000    16.0000 </r>
       <r>   -23.1784     0.0000    16.0000 </r>
       <r>   -22.7273     0.0000    16.0000 </r>
       <r>   -22.2761     0.0000    16.0000 </r>
       <r>   -21.8250     0.0000    16.0000 </r>
       <r>   -21.3738     0.0000    16.0000 </r>
       <r>   -20.9227     0.0000    16.0000 </r>
       <r>   -20.4716     0.0000    16.0000 </r>
       <r>   -20.0204     0.0000    16.0000 </r>
       <r>   -19.5693     0.0000    16.0000 </r>
       <r>   -19.1181     0.0000    16.0000 </r>
       <r>   -18.6670     0.0000    16.0000 </r>
       <r>   -18.2159     0.0000    16.0000 </r>
       <r>   -17.7647     0.0000    16.0000 </r>
       <r>   -17.3136     0.0000    16.0000 </r>
       <r>   -16.8624     0.0000    16.0000 </r>
       <r>   -16.4113     0.0000    16.0000 </r>
       <r>   -15.9602     0.0000    16.0000 </r>
       <r>   -15.5090     0.0000    16.0000 </r>
       <r>   -15.0579     0.0000    16.0000 </r>
       <r>   -14.6067     0.0000    16.0000 </r>
       <r>   -14.1556     0.0000    16.0000 </r>
       <r>   -13.7045     0.0000    16.0000 </r>
       <r>   -13.2533     0.0000    16.0000 </r>
       <r>   -12.8022     0.0000    16.0000 </r>
       <r>   -12.3510     0.0000    16.0000 </r>
       <r>   -11.8999     0.0000    16.0000 </r>
       <r>   -11.4488     0.0000    16.0000 </r>
       <r>   -10.9976     0.0000    16.0000 </r>
       <r>   -10.5465     0.0000    16.0000 </r>
       <r>   -10.0953     0.0000    16.0000 </r>
       <r>    -9.6442     0.0000    16.0000 </r>
       <r>    -9.1931     0.0000    16.0000 </r>
       <r>    -8.7419     0.0000    16.0000 </r>
       <r>    -8.2908     0.0000    16.0000 </r>
       <r>    -7.8396     0.0000    16.0000 </r>
       <r>    -7.3885     0.0000    16.0000 </r>
       <r>    -6.9374     0.0000    16.0000 </r>
       <r>    -6.4862     0.0000    16.0000 </r>
       <r>    -6.0351     0.0000    16.0000 </r>
       <r>    -5.5839     0.0000    16.0000 </r>
       <r>    -5.1328     0.0000    16.0000 </r>
       <r>    -4.6817     0.0000    16.0000 </r>
       <r>    -4.2305     0.0000    16.0000 </r>
       <r>    -3.7794     0.0000    16.0000 </r>
       <r>    -3.3282     0.0000    16.0000 </r>
       <r>    -2.8771     0.0000    16.0000 </r>
       <r>    -2.4260     0.0000    16.0000 </r>
       <r>    -1.9748     0.0000    16.0000 </r>
       <r>    -1.5237     0.0000    16.0000 </r>
       <r>    -1.0725     0.0000    16.0000 </r>
       <r>    -0.6214     0.0000    16.0000 </r>
       <r>    -0.1703     0.0000    16.0000 </r>
       <r>     0.2809     0.0000    16.0000 </r>
       <r>     0.7320     0.0000    16.0000 </r>
       <r>     1.1832     0.0000    16.0000 </r>
       <r>     1.6343     0.0000    16.0000 </r>
       <r>     2.0855     0.0000    16.0000 </r>
       <r>     2.5366     0.0000    16.0000 </r>
       <r>     2.9877     0.0000    16.0000 </r>
       <r>     3.4389     0.0471    16.0213 </r>
       <r>     3.8900     0.1111    16.0722 </r>
       <r>     4.3412     0.1016    16.1396 </r>
       <r>     4.7923     0.1979    16.2320 </r>
       <r>     5.2434     0.2507    16.3487 </r>
       <r>     5.6946     0.3212    16.5126 </r>
       <r>     6.1457     0.3635    16.6976 </r>
       <r>     6.5969     0.8839    17.1202 </r>
       <r>     7.0480     1.7792    17.9853 </r>
       <r>     7.4991     2.4059    19.1565 </r>
       <r>     7.9503     1.6786    20.1132 </r>
       <r>     8.4014     0.8885    20.6451 </r>
       <r>     8.8526     3.9733    22.6400 </r>
       <r>     9.3037     3.2943    24.3834 </r>
       <r>     9.7548     3.9193    26.2254 </r>
       <r>    10.2060     2.1760    27.3116 </r>
       <r>    10.6571     0.8623    27.7527 </r>
       <r>    11.1083     0.9953    28.2566 </r>
       <r>    11.5594     2.1886    29.4262 </r>
       <r>    12.0105     3.8534    31.2798 </r>
       <r>    12.4617     4.7810    33.6566 </r>
       <r>    12.9128     3.4566    35.8889 </r>
       <r>    13.3640     1.9401    36.9090 </r>
       <r>    13.8151     1.1658    37.5291 </r>
       <r>    14.2662     0.7791    37.9014 </r>
       <r>    14.7174     0.4793    38.1482 </r>
       <r>    15.1685     0.6040    38.5101 </r>
       <r>    15.6197     0.4354    38.7277 </r>
       <r>    16.0708     0.4542    39.0186 </r>
       <r>    16.5219     0.3194    39.2039 </r>
       <r>    16.9731     0.4782    39.4356 </r>
       <r>    17.4242     0.3393    39.6079 </r>
       <r>    17.8754     0.2476    39.7567 </r>
       <r>    18.3265     0.1523    39.8592 </r>
       <r>    18.7776     0.1845    39.9434 </r>
       <r>    19.2288     0.0831    39.9854 </r>
       <r>    19.6799     0.3004    40.1209 </r>
       <r>    20.1311     1.4326    40.8555 </r>
       <r>    20.5822     0.8652    41.3145 </r>
       <r>    21.0333     0.8015    41.7181 </r>
       <r>    21.4845     0.9613    42.2519 </r>
       <r>    21.9356     0.6059    42.5882 </r>
       <r>    22.3868     1.1004    43.1402 </r>
       <r>    22.8379     0.7690    43.4882 </r>
       <r>    23.2890     0.7656    43.8847 </r>
       <r>    23.7402     0.8466    44.3297 </r>
       <r>    24.1913     0.8158    44.7338 </r>
       <r>    24.6425     1.0506    45.2495 </r>
       <r>    25.0936     0.9037    45.6850 </r>
       <r>    25.5447     0.7849    46.1114 </r>
       <r>    25.9959     1.0462    46.6389 </r>
       <r>    26.4470     0.7384    47.0191 </r>
       <r>    26.8982     1.0986    47.5997 </r>
       <r>    27.3493     1.1753    48.1791 </r>
       <r>    27.8004     0.9986    48.6803 </r>
       <r>    28.2516     1.3239    49.3278 </r>
       <r>    28.7027     1.1769    49.9366 </r>
       <r>    29.1539     1.0703    50.4968 </r>
       <r>    29.6050     0.5784    50.8425 </r>
       <r>    30.0561     1.0886    51.5177 </r>
       <r>    30.5073     0.7583    51.9360 </r>
       <r>    30.9584     0.7539    52.3066 </r>
       <r>    31.4096     0.8369    52.7410 </r>
       <r>    31.8607     0.5188    52.9751 </r>
       <r>    32.3119     0.7662    53.3411 </r>
       <r>    32.7630     0.7218    53.6691 </r>
       <r>    33.2141     1.0455    54.1951 </r>
       <r>    33.6653     1.2446    54.8581 </r>
       <r>    34.1164     0.6888    55.2669 </r>
       <r>    34.5676     0.7663    55.6353 </r>
       <r>    35.0187     0.5282    55.8957 </r>
       <r>    35.4698     1.2529    56.5008 </r>
       <r>    35.9210     1.0248    57.0460 </r>
       <r>    36.3721     1.1077    57.5952 </r>
       <r>    36.8233     0.9058    58.0548 </r>
       <r>    37.2744     1.4023    58.7510 </r>
       <r>    37.7255     1.0189    59.2517 </r>
       <r>    38.1767     1.1357    59.8133 </r>
       <r>    38.6278     1.2066    60.4616 </r>
       <r>    39.0790     0.8397    60.8558 </r>
       <r>    39.5301     0.9688    61.4028 </r>
       <r>    39.9812     1.4155    62.1188 </r>
       <r>    40.4324     0.9771    62.6823 </r>
       <r>    40.8835     0.7586    63.0514 </r>
       <r>    41.3347     0.9956    63.6232 </r>
       <r>    41.7858     0.7356    64.0356 </r>
       <r>    42.2369     1.6617    64.8110 </r>
       <r>    42.6881     1.1040    65.3431 </r>
       <r>    43.1392     1.0862    65.9426 </r>
       <r>    43.5904     1.2314    66.5901 </r>
       <r>    44.0415     1.3899    67.2824 </r>
       <r>    44.4926     1.6332    68.0935 </r>
       <r>    44.9438     1.0149    68.5772 </r>
       <r>    45.3949     0.7870    69.0090 </r>
       <r>    45.8461     1.0479    69.5574 </r>
       <r>    46.2972     1.3410    70.2108 </r>
       <r>    46.7483     1.2726    70.8332 </r>
       <r>    47.1995     0.4330    71.0655 </r>
       <r>    47.6506     1.7543    71.8570 </r>
       <r>    48.1018     1.3078    72.5237 </r>
       <r>    48.5529     0.7132    72.8763 </r>
       <r>    49.0040     1.5096    73.5574 </r>
       <r>    49.4552     1.3597    74.2469 </r>
       <r>    49.9063     1.1079    74.8056 </r>
       <r>    50.3575     0.8061    75.2292 </r>
       <r>    50.8086     1.0180    75.7337 </r>
       <r>    51.2597     1.2403    76.3631 </r>
       <r>    51.7109     1.2285    77.0040 </r>
       <r>    52.1620     1.5787    77.7712 </r>
       <r>    52.6132     1.2144    78.4468 </r>
       <r>    53.0643     1.5130    79.1574 </r>
       <r>    53.5154     1.9987    80.1351 </r>
       <r>    53.9666     1.4719    80.8308 </r>
       <r>    54.4177     2.0547    81.7670 </r>
       <r>    54.8689     1.7012    82.6041 </r>
       <r>    55.3200     1.7794    83.6018 </r>
       <r>    55.7711     1.2342    84.1955 </r>
       <r>    56.2223     1.1479    84.7375 </r>
       <r>    56.6734     0.9359    85.2196 </r>
       <r>    57.1246     0.7495    85.5618 </r>
       <r>    57.5757     1.6974    86.4265 </r>
       <r>    58.0268     0.8804    86.8751 </r>
       <r>    58.4780     0.7635    87.2414 </r>
       <r>    58.9291     1.1632    87.8562 </r>
       <r>    59.3803     0.8797    88.2887 </r>
       <r>    59.8314     0.8773    88.7030 </r>
       <r>    60.2826     1.6026    89.4309 </r>
       <r>    60.7337     0.9722    89.9673 </r>
       <r>    61.1848     1.6513    90.7451 </r>
       <r>    61.6360     1.8096    91.6053 </r>
       <r>    62.0871     1.3031    92.2930 </r>
       <r>    62.5383     1.3098    92.9530 </r>
       <r>    62.9894     0.9372    93.3989 </r>
       <r>    63.4405     0.8650    93.8177 </r>
       <r>    63.8917     0.7489    94.1628 </r>
       <r>    64.3428     0.6185    94.4613 </r>
       <r>    64.7940     0.8230    94.8470 </r>
       <r>    65.2451     0.6872    95.1783 </r>
       <r>    65.6962     0.5210    95.4368 </r>
       <r>    66.1474     0.5049    95.6699 </r>
       <r>    66.5985     0.2074    95.8019 </r>
       <r>    67.0497     0.2183    95.9110 </r>
       <r>    67.5008     0.0773    95.9516 </r>
       <r>    67.9519     0.0143    95.9648 </r>
       <r>    68.4031     0.0591    95.9919 </r>
       <r>    68.8542     0.0000    95.9931 </r>
       <r>    69.3054     0.0154    96.0000 </r>
       <r>    69.7565     0.0000    96.0000 </r>
       <r>    70.2076     0.0000    96.0000 </r>
       <r>    70.6588     0.0000    96.0000 </r>
       <r>    71.1099     0.0000    96.0000 </r>
       <r>    71.5611     0.0000    96.0000 </r>
       <r>    72.0122     0.0000    96.0000 </r>
       <r>    72.4633     0.0000    96.0000 </r>
       <r>    72.9145     0.0000    96.0000 </r>
       <r>    73.3656     0.0000    96.0000 </r>
       <r>    73.8168     0.0000    96.0000 </r>
       <r>    74.2679     0.0000    96.0000 </r>
       <r>    74.7190     0.0000    96.0000 </r>
       <r>    75.1702     0.0000    96.0000 </r>
      </set>
     </set>
    </array>
   </total>
  </dos>
 </calculation>
 <structure name="finalpos" >
  <crystal>
   <varray name="basis" >
    <v>       2.99894000       0.00000000       0.00000000 </v>
    <v>       0.00000000       2.99894000       0.00000000 </v>
    <v>       0.00000000       0.00000000       2.99894000 </v>
   </varray>
   <i name="volume">     26.97139011 </i>
   <varray name="rec_basis" >
    <v>       0.33345115      -0.00000000       0.00000000 </v>
    <v>       0.00000000       0.33345115       0.00000000 </v>
    <v>      -0.00000000      -0.00000000       0.33345115 </v>
   </varray>
  </crystal>
  <varray name="positions" >
   <v>       0.00000000       0.00000000       0.00000000 </v>
   <v>       0.50000000       0.50000000       0.50000000 </v>
  </varray>
 </structure>
</modeling>
