B                                       
   1.00000000000000     
     4.285378    0.000000    2.377414
    -1.483226    4.020511   -2.377414
     0.000000    0.000000    5.050980
   B 
    12
Direct
  0.989690  0.010310  0.674650
  0.010310  0.989690  0.325350
  0.989690  0.654040  0.674650
  0.010310  0.345960  0.325350
  0.345960  0.010310  0.674650
  0.654040  0.989690  0.325350
  0.778850  0.221150  0.072740
  0.221150  0.778850  0.927260
  0.778850  0.630430  0.072740
  0.221150  0.369570  0.927260
  0.369570  0.221150  0.072740
  0.630430  0.778850  0.927260
 
   48   48   56
 0.10233518130E+02 0.10518654808E+02 0.11399177293E+02 0.12945774054E+02 0.15262055362E+02
 0.18466653073E+02 0.22671189159E+02 0.27950244042E+02 0.34294915999E+02 0.41544850784E+02
 0.49310553836E+02 0.56924583537E+02 0.63478455433E+02 0.67985709260E+02 0.69649827754E+02
 0.68136758984E+02 0.63716184710E+02 0.57187707320E+02 0.49625041128E+02 0.42070027403E+02
 0.35316511715E+02 0.29846081213E+02 0.25884293440E+02 0.23503120740E+02 0.22710400651E+02
 0.23503120740E+02 0.25884293440E+02 0.29846081213E+02 0.35316511715E+02 0.42070027403E+02
 0.49625041128E+02 0.57187707320E+02 0.63716184710E+02 0.68136758984E+02 0.69649827754E+02
 0.67985709260E+02 0.63478455433E+02 0.56924583537E+02 0.49310553836E+02 0.41544850784E+02
 0.34294915999E+02 0.27950244042E+02 0.22671189159E+02 0.18466653073E+02 0.15262055362E+02
 0.12945774054E+02 0.11399177293E+02 0.10518654808E+02 0.10518654808E+02 0.10518458055E+02
 0.11101234751E+02 0.12314399366E+02 0.14244980955E+02 0.17005488133E+02 0.20714114852E+02
 0.25468442107E+02 0.31308211099E+02 0.38159689376E+02 0.45760560211E+02 0.53587349827E+02
 0.60837515131E+02 0.66525741332E+02 0.69711513532E+02 0.69792335315E+02 0.66729743215E+02
 0.61085713399E+02 0.53843686037E+02 0.46106997154E+02 0.38822230959E+02 0.32633932036E+02
 0.27884965173E+02 0.24705553235E+02 0.23119255021E+02 0.23120313137E+02 0.24709321130E+02
 0.27891244632E+02 0.32639251144E+02 0.38821908369E+02 0.46100276048E+02 0.53835187152E+02
 0.61080597541E+02 0.66728389798E+02 0.69791327314E+02 0.69709454001E+02 0.66525947840E+02
 0.60843794944E+02 0.53598305389E+02 0.45769870165E+02 0.38162154488E+02 0.31304371145E+02
 0.25462958691E+02 0.20710816142E+02 0.17004865982E+02 0.14245608458E+02 0.12315145052E+02
 0.11101759083E+02 0.11399177293E+02 0.11101234751E+02 0.11398854194E+02 0.12313982924E+02
 0.13910183896E+02 0.16283626398E+02 0.19548248750E+02 0.23814724576E+02 0.29160045642E+02
 0.35580290440E+02 0.42920646451E+02 0.50793381031E+02 0.58524061183E+02 0.65186874869E+02
 0.69770205783E+02 0.71456889133E+02 0.69900944747E+02 0.65368036938E+02 0.58670967376E+02
 0.50914108492E+02 0.43176343466E+02 0.36282838727E+02 0.30728744502E+02 0.26732071154E+02
 0.24344044460E+02 0.23552430107E+02 0.24346186331E+02 0.26735833581E+02 0.30732057490E+02
 0.36282705102E+02 0.43171865861E+02 0.50908443262E+02 0.58668682072E+02 0.65369941636E+02
 0.69902751356E+02 0.71454300337E+02 0.69764823925E+02 0.65185308881E+02 0.58530523300E+02
 0.50804389050E+02 0.42928233725E+02 0.35579962945E+02 0.29154444304E+02 0.23809761890E+02
 0.19547189123E+02 0.16285459232E+02 0.13912351083E+02 0.12315145052E+02 0.12945774054E+02
 0.12314399366E+02 0.12313982924E+02 0.12944835830E+02 0.14244452491E+02 0.16283685387E+02
 0.19159155631E+02 0.22980062815E+02 0.27845348132E+02 0.33802547408E+02 0.40780195755E+02
 0.48501745864E+02 0.56416090341E+02 0.63682629442E+02 0.69318306804E+02 0.72441280917E+02
 0.72482235352E+02 0.69372992548E+02 0.63621921424E+02 0.56195331478E+02 0.48233026189E+02
 0.40739141535E+02 0.34401639441E+02 0.29575484189E+02 0.26372359646E+02 0.24784447946E+02
 0.24783094614E+02 0.26368931614E+02 0.29571495496E+02 0.34398646375E+02 0.40738129890E+02
 0.48234405376E+02 0.56199080640E+02 0.63627238571E+02 0.69377856823E+02 0.72484159097E+02
 0.72439272693E+02 0.69313977495E+02 0.63678778184E+02 0.56414169624E+02 0.48501195046E+02
 0.40780175266E+02 0.33803335943E+02 0.27847567547E+02 0.22983237158E+02 0.19161962755E+02
 0.16285459232E+02 0.14245608458E+02 0.15262055362E+02 0.14244980955E+02 0.13910183896E+02
 0.14244452491E+02 0.15261988207E+02 0.17005387777E+02 0.19546271946E+02 0.22978208704E+02
 0.27399900409E+02 0.32883237965E+02 0.39411767933E+02 0.46788914952E+02 0.54542831055E+02
 0.61883968725E+02 0.67950547516E+02 0.71983870326E+02 0.73405956942E+02 0.71919036006E+02
 0.67641070943E+02 0.61178278936E+02 0.53519319867E+02 0.45757897747E+02 0.38794007413E+02
 0.33184130755E+02 0.29165726824E+02 0.26776438145E+02 0.25984618586E+02 0.26771824732E+02
 0.29158544820E+02 0.33178138539E+02 0.38792799058E+02 0.45761970537E+02 0.53525158146E+02
 0.61181478282E+02 0.67640838453E+02 0.71918903095E+02 0.73409298591E+02 0.71989145633E+02
 0.67952162376E+02 0.61878362566E+02 0.54533052971E+02 0.46782362177E+02 0.39413441112E+02
 0.32891532111E+02 0.27408871311E+02 0.22983237158E+02 0.19547189123E+02 0.17004865982E+02
 0.18466653073E+02 0.17005488133E+02 0.16283626398E+02 0.16283685387E+02 0.17005387777E+02
 0.18466498434E+02 0.20711532568E+02 0.23810929635E+02 0.27846241190E+02 0.32885769050E+02
 0.38935502830E+02 0.45845427836E+02 0.53166470865E+02 0.60095623120E+02 0.65861851239E+02
 0.69939931608E+02 0.72018006793E+02 0.71875429038E+02 0.69372544936E+02 0.64612094068E+02
 0.58111714729E+02 0.50771644720E+02 0.43602721421E+02 0.37406522958E+02 0.32636864249E+02
 0.29457159428E+02 0.27878169671E+02 0.27878199031E+02 0.29456437211E+02 0.32634463460E+02
 0.37403664006E+02 0.43601989231E+02 0.50773290403E+02 0.58112070054E+02 0.64607637713E+02
 0.69365507330E+02 0.71872940834E+02 0.72024094560E+02 0.69949957691E+02 0.65867344727E+02
 0.60094127453E+02 0.53163883713E+02 0.45848042753E+02 0.38942540218E+02 0.32891532111E+02
 0.27847567547E+02 0.23809761890E+02 0.20710816142E+02 0.22671189159E+02 0.20714114852E+02
 0.19548248750E+02 0.19159155631E+02 0.19546271946E+02 0.20711532568E+02 0.22670323387E+02
 0.25465410741E+02 0.29159100225E+02 0.33806620769E+02 0.39412272790E+02 0.45842322140E+02
 0.52648436861E+02 0.58944946554E+02 0.63908783905E+02 0.67168644305E+02 0.68817635883E+02
 0.69087508162E+02 0.67990298597E+02 0.65284039522E+02 0.60809573000E+02 0.54865963542E+02
 0.48248451307E+02 0.41916200379E+02 0.36606827797E+02 0.32709879422E+02 0.30359645572E+02
 0.29577877858E+02 0.30363314418E+02 0.32713908893E+02 0.36607929143E+02 0.41913975439E+02
 0.48244765154E+02 0.54862133121E+02 0.60805164542E+02 0.65278671121E+02 0.67985635932E+02
 0.69086380495E+02 0.68821269375E+02 0.67175667488E+02 0.63917091885E+02 0.58953494796E+02
 0.52656516721E+02 0.45848042753E+02 0.39413441112E+02 0.33803335943E+02 0.29154444304E+02
 0.25462958691E+02 0.27950244042E+02 0.25468442107E+02 0.23814724576E+02 0.22980062815E+02
 0.22978208704E+02 0.23810929635E+02 0.25465410741E+02 0.27948316459E+02 0.31302927657E+02
 0.35580092552E+02 0.40782620730E+02 0.46783802281E+02 0.53159441786E+02 0.58943765163E+02
 0.63109010191E+02 0.65188005297E+02 0.65525541559E+02 0.64963264653E+02 0.64136641412E+02
 0.62963308216E+02 0.60792095812E+02 0.57077378884E+02 0.51948139918E+02 0.46188659563E+02
 0.40754784781E+02 0.36336609132E+02 0.33286688522E+02 0.31741253148E+02 0.31743072852E+02
 0.33290514889E+02 0.36339415072E+02 0.40755007483E+02 0.46186510926E+02 0.51944627140E+02
 0.57074409888E+02 0.60792045120E+02 0.62966204886E+02 0.64138707403E+02 0.64961078725E+02
 0.65521566468E+02 0.65188829728E+02 0.63117041316E+02 0.58953494796E+02 0.53163883713E+02
 0.46782362177E+02 0.40780175266E+02 0.35579962945E+02 0.31304371145E+02 0.34294915999E+02
 0.31308211099E+02 0.29160045642E+02 0.27845348132E+02 0.27399900409E+02 0.27846241190E+02
 0.29159100225E+02 0.31302927657E+02 0.34286197740E+02 0.38154221647E+02 0.42924675274E+02
 0.48501113201E+02 0.54532174331E+02 0.60090404403E+02 0.63913926700E+02 0.65191450447E+02
 0.64133257526E+02 0.61941785643E+02 0.60038049002E+02 0.59057720348E+02 0.58451481323E+02
 0.57046536421E+02 0.54051479748E+02 0.49623972305E+02 0.44634017877E+02 0.40032439686E+02
 0.36451369628E+02 0.34212744161E+02 0.33452831920E+02 0.34211574387E+02 0.36450231899E+02
 0.40031567850E+02 0.44632155231E+02 0.49621082288E+02 0.54050841418E+02 0.57052004685E+02
 0.58462091796E+02 0.59066604744E+02 0.60038446872E+02 0.61934065159E+02 0.64124720958E+02
 0.65188829728E+02 0.63917091885E+02 0.60094127453E+02 0.54533052971E+02 0.48501195046E+02
 0.42928233725E+02 0.38162154488E+02 0.41544850784E+02 0.38159689376E+02 0.35580290440E+02
 0.33802547408E+02 0.32883237965E+02 0.32885769050E+02 0.33806620769E+02 0.35580092552E+02
 0.38154221647E+02 0.41537448878E+02 0.45762631436E+02 0.50796831882E+02 0.56406704972E+02
 0.61873355918E+02 0.65865958000E+02 0.67176763255E+02 0.65524323007E+02 0.61938355754E+02
 0.58285787231E+02 0.56098398518E+02 0.55564359403E+02 0.55533855631E+02 0.54523454188E+02
 0.51819763637E+02 0.47799508651E+02 0.43424225641E+02 0.39573533031E+02 0.36785723795E+02
 0.35332158439E+02 0.35328253336E+02 0.36778057099E+02 0.39568365636E+02 0.43421823334E+02
 0.47796409755E+02 0.51816869128E+02 0.54525907879E+02 0.55542609736E+02 0.55573089372E+02
 0.56100853548E+02 0.58282543920E+02 0.61934065159E+02 0.65521566468E+02 0.67175667488E+02
 0.65867344727E+02 0.61878362566E+02 0.56414169624E+02 0.50804389050E+02 0.45769870165E+02
 0.49310553836E+02 0.45760560211E+02 0.42920646451E+02 0.40780195755E+02 0.39411767933E+02
 0.38935502830E+02 0.39412272790E+02 0.40782620730E+02 0.42924675274E+02 0.45762631436E+02
 0.49306779673E+02 0.53588630448E+02 0.58519101471E+02 0.63670144211E+02 0.67947494874E+02
 0.69946846656E+02 0.68816779140E+02 0.64954725924E+02 0.60032615485E+02 0.56098684498E+02
 0.54283396785E+02 0.54127276514E+02 0.54100440832E+02 0.52831263398E+02 0.49980581915E+02
 0.46174574573E+02 0.42346188818E+02 0.39213300897E+02 0.37195146113E+02 0.36498761789E+02
 0.37190378910E+02 0.39206918991E+02 0.42341942477E+02 0.46173759972E+02 0.49981141851E+02
 0.52829938550E+02 0.54096029083E+02 0.54121928510E+02 0.54280778869E+02 0.56100853548E+02
 0.60038446872E+02 0.64961078725E+02 0.68821269375E+02 0.69949957691E+02 0.67952162376E+02
 0.63678778184E+02 0.58530523300E+02 0.53598305389E+02 0.56924583537E+02 0.53587349827E+02
 0.50793381031E+02 0.48501745864E+02 0.46788914952E+02 0.45845427836E+02 0.45842322140E+02
 0.46783802281E+02 0.48501113201E+02 0.50796831882E+02 0.53588630448E+02 0.56920133591E+02
 0.60836051910E+02 0.65177923790E+02 0.69307822271E+02 0.71983404525E+02 0.72017821925E+02
 0.69078255441E+02 0.64128701234E+02 0.59059150697E+02 0.55574662649E+02 0.54132767235E+02
 0.53799137313E+02 0.53113942069E+02 0.51174774056E+02 0.48066096017E+02 0.44505209886E+02
 0.41258634511E+02 0.38857600030E+02 0.37595316820E+02 0.37597462099E+02 0.38860743376E+02
 0.41258558938E+02 0.44503960678E+02 0.48067978940E+02 0.51177497830E+02 0.53110234506E+02
 0.53787680152E+02 0.54121928510E+02 0.55573089372E+02 0.59066604744E+02 0.64138707403E+02
 0.69086380495E+02 0.72024094560E+02 0.71989145633E+02 0.69313977495E+02 0.65185308881E+02
 0.60843794944E+02 0.63478455433E+02 0.60837515131E+02 0.58524061183E+02 0.56416090341E+02
 0.54542831055E+02 0.53166470865E+02 0.52648436861E+02 0.53159441786E+02 0.54532174331E+02
 0.56406704972E+02 0.58519101471E+02 0.60836051910E+02 0.63476639577E+02 0.66520940098E+02
 0.69757361637E+02 0.72432214634E+02 0.73404259983E+02 0.71869474181E+02 0.67983267947E+02
 0.62965585603E+02 0.58463369167E+02 0.55543885224E+02 0.54095017005E+02 0.53107349681E+02
 0.51540662269E+02 0.49016599141E+02 0.45869381868E+02 0.42734699189E+02 0.40167701969E+02
 0.38516789334E+02 0.37951785543E+02 0.38521765658E+02 0.40172903939E+02 0.42735929848E+02
 0.45867330008E+02 0.49015290694E+02 0.51542361692E+02 0.53110234506E+02 0.54096029083E+02
 0.55542609736E+02 0.58462091796E+02 0.62966204886E+02 0.67985635932E+02 0.71872940834E+02
 0.73409298591E+02 0.72439272693E+02 0.69764823925E+02 0.66525947840E+02 0.67985709260E+02
 0.66525741332E+02 0.65186874869E+02 0.63682629442E+02 0.61883968725E+02 0.60095623120E+02
 0.58944946554E+02 0.58943765163E+02 0.60090404403E+02 0.61873355918E+02 0.63670144211E+02
 0.65177923790E+02 0.66520940098E+02 0.67980652627E+02 0.69701114542E+02 0.71444601399E+02
 0.72476937072E+02 0.71916189461E+02 0.69367574185E+02 0.65284307907E+02 0.60796931813E+02
 0.57050002249E+02 0.54515408960E+02 0.52817546372E+02 0.51172114330E+02 0.49018893002E+02
 0.46337344003E+02 0.43510762426E+02 0.41009160537E+02 0.39185357799E+02 0.38232307241E+02
 0.38232119237E+02 0.39184995558E+02 0.41007859545E+02 0.43506424035E+02 0.46330500709E+02
 0.49015290694E+02 0.51177497830E+02 0.52829938550E+02 0.54525907879E+02 0.57052004685E+02
 0.60792045120E+02 0.65278671121E+02 0.69365507330E+02 0.71918903095E+02 0.72484159097E+02
 0.71454300337E+02 0.69709454001E+02 0.69649827754E+02 0.69711513532E+02 0.69770205783E+02
 0.69318306804E+02 0.67950547516E+02 0.65861851239E+02 0.63908783905E+02 0.63109010191E+02
 0.63913926700E+02 0.65865958000E+02 0.67947494874E+02 0.69307822271E+02 0.69757361637E+02
 0.69701114542E+02 0.69642100176E+02 0.69783294292E+02 0.69892982272E+02 0.69368896044E+02
 0.67636462229E+02 0.64608183760E+02 0.60806399109E+02 0.57071595303E+02 0.54043744590E+02
 0.51810144622E+02 0.49979648335E+02 0.48072306832E+02 0.45874240397E+02 0.43512819099E+02
 0.41299401428E+02 0.39537209029E+02 0.38418470969E+02 0.38035551227E+02 0.38415585218E+02
 0.39532774271E+02 0.41294165831E+02 0.43506424035E+02 0.45867330008E+02 0.48067978940E+02
 0.49981141851E+02 0.51816869128E+02 0.54050841418E+02 0.57074409888E+02 0.60805164542E+02
 0.64607637713E+02 0.67640838453E+02 0.69377856823E+02 0.69902751356E+02 0.69791327314E+02
 0.68136758984E+02 0.69792335315E+02 0.71456889133E+02 0.72441280917E+02 0.71983870326E+02
 0.69939931608E+02 0.67168644305E+02 0.65188005297E+02 0.65191450447E+02 0.67176763255E+02
 0.69946846656E+02 0.71983404525E+02 0.72432214634E+02 0.71444601399E+02 0.69783294292E+02
 0.68131558721E+02 0.66722215401E+02 0.65359638810E+02 0.63615302827E+02 0.61172088216E+02
 0.58105876477E+02 0.54857351352E+02 0.51941689355E+02 0.49622884695E+02 0.47803552019E+02
 0.46182127863E+02 0.44508578500E+02 0.42736041467E+02 0.41006859364E+02 0.39533728830E+02
 0.38483648880E+02 0.37943293935E+02 0.37941975390E+02 0.38481169362E+02 0.39532774271E+02
 0.41007859545E+02 0.42735929848E+02 0.44503960678E+02 0.46173759972E+02 0.47796409755E+02
 0.49621082288E+02 0.51944627140E+02 0.54862133121E+02 0.58112070054E+02 0.61181478282E+02
 0.63627238571E+02 0.65369941636E+02 0.66728389798E+02 0.63716184710E+02 0.66729743215E+02
 0.69900944747E+02 0.72482235352E+02 0.73405956942E+02 0.72018006793E+02 0.68817635883E+02
 0.65525541559E+02 0.64133257526E+02 0.65524323007E+02 0.68816779140E+02 0.72017821925E+02
 0.73404259983E+02 0.72476937072E+02 0.69892982272E+02 0.66722215401E+02 0.63710766296E+02
 0.61075874136E+02 0.58662109583E+02 0.56189907957E+02 0.53515264886E+02 0.50765961412E+02
 0.48242959487E+02 0.46191179118E+02 0.44640845439E+02 0.43429070350E+02 0.42342624895E+02
 0.41252156966E+02 0.40164302394E+02 0.39180205810E+02 0.38416278600E+02 0.37944510215E+02
 0.37785692774E+02 0.37941975390E+02 0.38415585218E+02 0.39184995558E+02 0.40172903939E+02
 0.41258558938E+02 0.42341942477E+02 0.43421823334E+02 0.44632155231E+02 0.46186510926E+02
 0.48244765154E+02 0.50773290403E+02 0.53525158146E+02 0.56199080640E+02 0.58668682072E+02
 0.61080597541E+02 0.57187707320E+02 0.61085713399E+02 0.65368036938E+02 0.69372992548E+02
 0.71919036006E+02 0.71875429038E+02 0.69087508162E+02 0.64963264653E+02 0.61941785643E+02
 0.61938355754E+02 0.64954725924E+02 0.69078255441E+02 0.71869474181E+02 0.71916189461E+02
 0.69368896044E+02 0.65359638810E+02 0.61075874136E+02 0.57182139341E+02 0.53835033807E+02
 0.50908577348E+02 0.48230155111E+02 0.45755181520E+02 0.43598374285E+02 0.41915793551E+02
 0.40758693579E+02 0.40032226899E+02 0.39564498424E+02 0.39200557058E+02 0.38854936848E+02
 0.38518778500E+02 0.38232536445E+02 0.38037770165E+02 0.37944510215E+02 0.37943293935E+02
 0.38035551227E+02 0.38232119237E+02 0.38521765658E+02 0.38860743376E+02 0.39206918991E+02
 0.39568365636E+02 0.40031567850E+02 0.40755007483E+02 0.41913975439E+02 0.43601989231E+02
 0.45761970537E+02 0.48234405376E+02 0.50908443262E+02 0.53835187152E+02 0.49625041128E+02
 0.53843686037E+02 0.58670967376E+02 0.63621921424E+02 0.67641070943E+02 0.69372544936E+02
 0.67990298597E+02 0.64136641412E+02 0.60038049002E+02 0.58285787231E+02 0.60032615485E+02
 0.64128701234E+02 0.67983267947E+02 0.69367574185E+02 0.67636462229E+02 0.63615302827E+02
 0.58662109583E+02 0.53835033807E+02 0.49619404066E+02 0.46098186864E+02 0.43171524715E+02
 0.40737663007E+02 0.38791716747E+02 0.37401830701E+02 0.36604244221E+02 0.36333077342E+02
 0.36443369243E+02 0.36775352951E+02 0.37194539680E+02 0.37605508949E+02 0.37957451387E+02
 0.38232536445E+02 0.38416278600E+02 0.38483648880E+02 0.38418470969E+02 0.38232307241E+02
 0.37951785543E+02 0.37597462099E+02 0.37190378910E+02 0.36778057099E+02 0.36450231899E+02
 0.36339415072E+02 0.36607929143E+02 0.37403664006E+02 0.38792799058E+02 0.40738129890E+02
 0.43171865861E+02 0.46100276048E+02 0.42070027403E+02 0.46106997154E+02 0.50914108492E+02
 0.56195331478E+02 0.61178278936E+02 0.64612094068E+02 0.65284039522E+02 0.62963308216E+02
 0.59057720348E+02 0.56098398518E+02 0.56098684498E+02 0.59059150697E+02 0.62965585603E+02
 0.65284307907E+02 0.64608183760E+02 0.61172088216E+02 0.56189907957E+02 0.50908577348E+02
 0.46098186864E+02 0.42058970864E+02 0.38814494005E+02 0.36282358549E+02 0.34401589975E+02
 0.33178028240E+02 0.32629329027E+02 0.32706496293E+02 0.33284391720E+02 0.34209786639E+02
 0.35333379178E+02 0.36509847649E+02 0.37605508949E+02 0.38518778500E+02 0.39180205810E+02
 0.39533728830E+02 0.39537209029E+02 0.39185357799E+02 0.38516789334E+02 0.37595316820E+02
 0.36498761789E+02 0.35328253336E+02 0.34211574387E+02 0.33290514889E+02 0.32713908893E+02
 0.32634463460E+02 0.33178138539E+02 0.34398646375E+02 0.36282705102E+02 0.38821908369E+02
 0.35316511715E+02 0.38822230959E+02 0.43176343466E+02 0.48233026189E+02 0.53519319867E+02
 0.58111714729E+02 0.60809573000E+02 0.60792095812E+02 0.58451481323E+02 0.55564359403E+02
 0.54283396785E+02 0.55574662649E+02 0.58463369167E+02 0.60796931813E+02 0.60806399109E+02
 0.58105876477E+02 0.53515264886E+02 0.48230155111E+02 0.43171524715E+02 0.38814494005E+02
 0.35308233489E+02 0.32633456143E+02 0.30729585038E+02 0.29570814119E+02 0.29157687587E+02
 0.29454833688E+02 0.30361964758E+02 0.31743170824E+02 0.33454264833E+02 0.35333379178E+02
 0.37194539680E+02 0.38854936848E+02 0.40164302394E+02 0.41006859364E+02 0.41299401428E+02
 0.41009160537E+02 0.40167701969E+02 0.38857600030E+02 0.37195146113E+02 0.35332158439E+02
 0.33452831920E+02 0.31743072852E+02 0.30363314418E+02 0.29456437211E+02 0.29158544820E+02
 0.29571495496E+02 0.30732057490E+02 0.32639251144E+02 0.29846081213E+02 0.32633932036E+02
 0.36282838727E+02 0.40739141535E+02 0.45757897747E+02 0.50771644720E+02 0.54865963542E+02
 0.57077378884E+02 0.57046536421E+02 0.55533855631E+02 0.54127276514E+02 0.54132767235E+02
 0.55543885224E+02 0.57050002249E+02 0.57071595303E+02 0.54857351352E+02 0.50765961412E+02
 0.45755181520E+02 0.40737663007E+02 0.36282358549E+02 0.32633456143E+02 0.29842884935E+02
 0.27884829114E+02 0.26729925926E+02 0.26367073525E+02 0.26773340132E+02 0.27880660137E+02
 0.29580599528E+02 0.31743170824E+02 0.34209786639E+02 0.36775352951E+02 0.39200557058E+02
 0.41252156966E+02 0.42736041467E+02 0.43512819099E+02 0.43510762426E+02 0.42734699189E+02
 0.41258634511E+02 0.39213300897E+02 0.36785723795E+02 0.34212744161E+02 0.31741253148E+02
 0.29577877858E+02 0.27878199031E+02 0.26771824732E+02 0.26368931614E+02 0.26735833581E+02
 0.27891244632E+02 0.25884293440E+02 0.27884965173E+02 0.30728744502E+02 0.34401639441E+02
 0.38794007413E+02 0.43602721421E+02 0.48248451307E+02 0.51948139918E+02 0.54051479748E+02
 0.54523454188E+02 0.54100440832E+02 0.53799137313E+02 0.54095017005E+02 0.54515408960E+02
 0.54043744590E+02 0.51941689355E+02 0.48242959487E+02 0.43598374285E+02 0.38791716747E+02
 0.34401589975E+02 0.30729585038E+02 0.27884829114E+02 0.25882231570E+02 0.24705593860E+02
 0.24341844428E+02 0.24779816139E+02 0.25984183765E+02 0.27880660137E+02 0.30361964758E+02
 0.33284391720E+02 0.36443369243E+02 0.39564498424E+02 0.42342624895E+02 0.44508578500E+02
 0.45874240397E+02 0.46337344003E+02 0.45869381868E+02 0.44505209886E+02 0.42346188818E+02
 0.39573533031E+02 0.36451369628E+02 0.33286688522E+02 0.30359645572E+02 0.27878169671E+02
 0.25984618586E+02 0.24783094614E+02 0.24346186331E+02 0.24709321130E+02 0.23503120740E+02
 0.24705553235E+02 0.26732071154E+02 0.29575484189E+02 0.33184130755E+02 0.37406522958E+02
 0.41916200379E+02 0.46188659563E+02 0.49623972305E+02 0.51819763637E+02 0.52831263398E+02
 0.53113942069E+02 0.53107349681E+02 0.52817546372E+02 0.51810144622E+02 0.49622884695E+02
 0.46191179118E+02 0.41915793551E+02 0.37401830701E+02 0.33178028240E+02 0.29570814119E+02
 0.26729925926E+02 0.24705593860E+02 0.23503585125E+02 0.23118796781E+02 0.23548308769E+02
 0.24779816139E+02 0.26773340132E+02 0.29454833688E+02 0.32706496293E+02 0.36333077342E+02
 0.40032226899E+02 0.43429070350E+02 0.46182127863E+02 0.48072306832E+02 0.49018893002E+02
 0.49016599141E+02 0.48066096017E+02 0.46174574573E+02 0.43424225641E+02 0.40032439686E+02
 0.36336609132E+02 0.32709879422E+02 0.29457159428E+02 0.26776438145E+02 0.24784447946E+02
 0.23552430107E+02 0.23120313137E+02 0.22710400651E+02 0.23119255021E+02 0.24344044460E+02
 0.26372359646E+02 0.29165726824E+02 0.32636864249E+02 0.36606827797E+02 0.40754784781E+02
 0.44634017877E+02 0.47799508651E+02 0.49980581915E+02 0.51174774056E+02 0.51540662269E+02
 0.51172114330E+02 0.49979648335E+02 0.47803552019E+02 0.44640845439E+02 0.40758693579E+02
 0.36604244221E+02 0.32629329027E+02 0.29157687587E+02 0.26367073525E+02 0.24341844428E+02
 0.23118796781E+02 0.22710410841E+02 0.23118796781E+02 0.24341844428E+02 0.26367073525E+02
 0.29157687587E+02 0.32629329027E+02 0.36604244221E+02 0.40758693579E+02 0.44640845439E+02
 0.47803552019E+02 0.49979648335E+02 0.51172114330E+02 0.51540662269E+02 0.51174774056E+02
 0.49980581915E+02 0.47799508651E+02 0.44634017877E+02 0.40754784781E+02 0.36606827797E+02
 0.32636864249E+02 0.29165726824E+02 0.26372359646E+02 0.24344044460E+02 0.23119255021E+02
 0.23503120740E+02 0.23120313137E+02 0.23552430107E+02 0.24784447946E+02 0.26776438145E+02
 0.29457159428E+02 0.32709879422E+02 0.36336609132E+02 0.40032439686E+02 0.43424225641E+02
 0.46174574573E+02 0.48066096017E+02 0.49016599141E+02 0.49018893002E+02 0.48072306832E+02
 0.46182127863E+02 0.43429070350E+02 0.40032226899E+02 0.36333077342E+02 0.32706496293E+02
 0.29454833688E+02 0.26773340132E+02 0.24779816139E+02 0.23548308769E+02 0.23118796781E+02
 0.23503585125E+02 0.24705593860E+02 0.26729925926E+02 0.29570814119E+02 0.33178028240E+02
 0.37401830701E+02 0.41915793551E+02 0.46191179118E+02 0.49622884695E+02 0.51810144622E+02
 0.52817546372E+02 0.53107349681E+02 0.53113942069E+02 0.52831263398E+02 0.51819763637E+02
 0.49623972305E+02 0.46188659563E+02 0.41916200379E+02 0.37406522958E+02 0.33184130755E+02
 0.29575484189E+02 0.26732071154E+02 0.24705553235E+02 0.25884293440E+02 0.24709321130E+02
 0.24346186331E+02 0.24783094614E+02 0.25984618586E+02 0.27878169671E+02 0.30359645572E+02
 0.33286688522E+02 0.36451369628E+02 0.39573533031E+02 0.42346188818E+02 0.44505209886E+02
 0.45869381868E+02 0.46337344003E+02 0.45874240397E+02 0.44508578500E+02 0.42342624895E+02
 0.39564498424E+02 0.36443369243E+02 0.33284391720E+02 0.30361964758E+02 0.27880660137E+02
 0.25984183765E+02 0.24779816139E+02 0.24341844428E+02 0.24705593860E+02 0.25882231570E+02
 0.27884829114E+02 0.30729585038E+02 0.34401589975E+02 0.38791716747E+02 0.43598374285E+02
 0.48242959487E+02 0.51941689355E+02 0.54043744590E+02 0.54515408960E+02 0.54095017005E+02
 0.53799137313E+02 0.54100440832E+02 0.54523454188E+02 0.54051479748E+02 0.51948139918E+02
 0.48248451307E+02 0.43602721421E+02 0.38794007413E+02 0.34401639441E+02 0.30728744502E+02
 0.27884965173E+02 0.29846081213E+02 0.27891244632E+02 0.26735833581E+02 0.26368931614E+02
 0.26771824732E+02 0.27878199031E+02 0.29577877858E+02 0.31741253148E+02 0.34212744161E+02
 0.36785723795E+02 0.39213300897E+02 0.41258634511E+02 0.42734699189E+02 0.43510762426E+02
 0.43512819099E+02 0.42736041467E+02 0.41252156966E+02 0.39200557058E+02 0.36775352951E+02
 0.34209786639E+02 0.31743170824E+02 0.29580599528E+02 0.27880660137E+02 0.26773340132E+02
 0.26367073525E+02 0.26729925926E+02 0.27884829114E+02 0.29842884935E+02 0.32633456143E+02
 0.36282358549E+02 0.40737663007E+02 0.45755181520E+02 0.50765961412E+02 0.54857351352E+02
 0.57071595303E+02 0.57050002249E+02 0.55543885224E+02 0.54132767235E+02 0.54127276514E+02
 0.55533855631E+02 0.57046536421E+02 0.57077378884E+02 0.54865963542E+02 0.50771644720E+02
 0.45757897747E+02 0.40739141535E+02 0.36282838727E+02 0.32633932036E+02 0.35316511715E+02
 0.32639251144E+02 0.30732057490E+02 0.29571495496E+02 0.29158544820E+02 0.29456437211E+02
 0.30363314418E+02 0.31743072852E+02 0.33452831920E+02 0.35332158439E+02 0.37195146113E+02
 0.38857600030E+02 0.40167701969E+02 0.41009160537E+02 0.41299401428E+02 0.41006859364E+02
 0.40164302394E+02 0.38854936848E+02 0.37194539680E+02 0.35333379178E+02 0.33454264833E+02
 0.31743170824E+02 0.30361964758E+02 0.29454833688E+02 0.29157687587E+02 0.29570814119E+02
 0.30729585038E+02 0.32633456143E+02 0.35308233489E+02 0.38814494005E+02 0.43171524715E+02
 0.48230155111E+02 0.53515264886E+02 0.58105876477E+02 0.60806399109E+02 0.60796931813E+02
 0.58463369167E+02 0.55574662649E+02 0.54283396785E+02 0.55564359403E+02 0.58451481323E+02
 0.60792095812E+02 0.60809573000E+02 0.58111714729E+02 0.53519319867E+02 0.48233026189E+02
 0.43176343466E+02 0.38822230959E+02 0.42070027403E+02 0.38821908369E+02 0.36282705102E+02
 0.34398646375E+02 0.33178138539E+02 0.32634463460E+02 0.32713908893E+02 0.33290514889E+02
 0.34211574387E+02 0.35328253336E+02 0.36498761789E+02 0.37595316820E+02 0.38516789334E+02
 0.39185357799E+02 0.39537209029E+02 0.39533728830E+02 0.39180205810E+02 0.38518778500E+02
 0.37605508949E+02 0.36509847649E+02 0.35333379178E+02 0.34209786639E+02 0.33284391720E+02
 0.32706496293E+02 0.32629329027E+02 0.33178028240E+02 0.34401589975E+02 0.36282358549E+02
 0.38814494005E+02 0.42058970864E+02 0.46098186864E+02 0.50908577348E+02 0.56189907957E+02
 0.61172088216E+02 0.64608183760E+02 0.65284307907E+02 0.62965585603E+02 0.59059150697E+02
 0.56098684498E+02 0.56098398518E+02 0.59057720348E+02 0.62963308216E+02 0.65284039522E+02
 0.64612094068E+02 0.61178278936E+02 0.56195331478E+02 0.50914108492E+02 0.46106997154E+02
 0.49625041128E+02 0.46100276048E+02 0.43171865861E+02 0.40738129890E+02 0.38792799058E+02
 0.37403664006E+02 0.36607929143E+02 0.36339415072E+02 0.36450231899E+02 0.36778057099E+02
 0.37190378910E+02 0.37597462099E+02 0.37951785543E+02 0.38232307241E+02 0.38418470969E+02
 0.38483648880E+02 0.38416278600E+02 0.38232536445E+02 0.37957451387E+02 0.37605508949E+02
 0.37194539680E+02 0.36775352951E+02 0.36443369243E+02 0.36333077342E+02 0.36604244221E+02
 0.37401830701E+02 0.38791716747E+02 0.40737663007E+02 0.43171524715E+02 0.46098186864E+02
 0.49619404066E+02 0.53835033807E+02 0.58662109583E+02 0.63615302827E+02 0.67636462229E+02
 0.69367574185E+02 0.67983267947E+02 0.64128701234E+02 0.60032615485E+02 0.58285787231E+02
 0.60038049002E+02 0.64136641412E+02 0.67990298597E+02 0.69372544936E+02 0.67641070943E+02
 0.63621921424E+02 0.58670967376E+02 0.53843686037E+02 0.57187707320E+02 0.53835187152E+02
 0.50908443262E+02 0.48234405376E+02 0.45761970537E+02 0.43601989231E+02 0.41913975439E+02
 0.40755007483E+02 0.40031567850E+02 0.39568365636E+02 0.39206918991E+02 0.38860743376E+02
 0.38521765658E+02 0.38232119237E+02 0.38035551227E+02 0.37943293935E+02 0.37944510215E+02
 0.38037770165E+02 0.38232536445E+02 0.38518778500E+02 0.38854936848E+02 0.39200557058E+02
 0.39564498424E+02 0.40032226899E+02 0.40758693579E+02 0.41915793551E+02 0.43598374285E+02
 0.45755181520E+02 0.48230155111E+02 0.50908577348E+02 0.53835033807E+02 0.57182139341E+02
 0.61075874136E+02 0.65359638810E+02 0.69368896044E+02 0.71916189461E+02 0.71869474181E+02
 0.69078255441E+02 0.64954725924E+02 0.61938355754E+02 0.61941785643E+02 0.64963264653E+02
 0.69087508162E+02 0.71875429038E+02 0.71919036006E+02 0.69372992548E+02 0.65368036938E+02
 0.61085713399E+02 0.63716184710E+02 0.61080597541E+02 0.58668682072E+02 0.56199080640E+02
 0.53525158146E+02 0.50773290403E+02 0.48244765154E+02 0.46186510926E+02 0.44632155231E+02
 0.43421823334E+02 0.42341942477E+02 0.41258558938E+02 0.40172903939E+02 0.39184995558E+02
 0.38415585218E+02 0.37941975390E+02 0.37785692774E+02 0.37944510215E+02 0.38416278600E+02
 0.39180205810E+02 0.40164302394E+02 0.41252156966E+02 0.42342624895E+02 0.43429070350E+02
 0.44640845439E+02 0.46191179118E+02 0.48242959487E+02 0.50765961412E+02 0.53515264886E+02
 0.56189907957E+02 0.58662109583E+02 0.61075874136E+02 0.63710766296E+02 0.66722215401E+02
 0.69892982272E+02 0.72476937072E+02 0.73404259983E+02 0.72017821925E+02 0.68816779140E+02
 0.65524323007E+02 0.64133257526E+02 0.65525541559E+02 0.68817635883E+02 0.72018006793E+02
 0.73405956942E+02 0.72482235352E+02 0.69900944747E+02 0.66729743215E+02 0.68136758984E+02
 0.66728389798E+02 0.65369941636E+02 0.63627238571E+02 0.61181478282E+02 0.58112070054E+02
 0.54862133121E+02 0.51944627140E+02 0.49621082288E+02 0.47796409755E+02 0.46173759972E+02
 0.44503960678E+02 0.42735929848E+02 0.41007859545E+02 0.39532774271E+02 0.38481169362E+02
 0.37941975390E+02 0.37943293935E+02 0.38483648880E+02 0.39533728830E+02 0.41006859364E+02
 0.42736041467E+02 0.44508578500E+02 0.46182127863E+02 0.47803552019E+02 0.49622884695E+02
 0.51941689355E+02 0.54857351352E+02 0.58105876477E+02 0.61172088216E+02 0.63615302827E+02