  12  12   0   0
  0.7252118E+01  0.4900670E-09  0.4900670E-09  0.5050980E-09  0.5000000E-15
  1.000000000000000E-004
  CAR 
 B                                       
     25.94279478    -11.98970098  301      6.22184829      1.00000000
    -11.990  0.0000E+00  0.0000E+00
    -11.863  0.0000E+00  0.0000E+00
    -11.737  0.0000E+00  0.0000E+00
    -11.610  0.0000E+00  0.0000E+00
    -11.484  0.0000E+00  0.0000E+00
    -11.357  0.0000E+00  0.0000E+00
    -11.231  0.0000E+00  0.0000E+00
    -11.105  0.0000E+00  0.0000E+00
    -10.978  0.0000E+00  0.0000E+00
    -10.852  0.0000E+00  0.0000E+00
    -10.725  0.0000E+00  0.0000E+00
    -10.599  0.0000E+00  0.0000E+00
    -10.472  0.7496E-10  0.9478E-11
    -10.346  0.3545E-03  0.4482E-04
    -10.220  0.7406E-01  0.9409E-02
    -10.093  0.4439E+00  0.6554E-01
     -9.967  0.7903E+00  0.1655E+00
     -9.840  0.8802E+00  0.2768E+00
     -9.714  0.1319E+01  0.4435E+00
     -9.587  0.1963E+01  0.6917E+00
     -9.461  0.1635E+01  0.8984E+00
     -9.334  0.2934E+01  0.1269E+01
     -9.208  0.3035E+01  0.1653E+01
     -9.082  0.2635E+01  0.1986E+01
     -8.955  0.1082E+00  0.2000E+01
     -8.829  0.1322E-05  0.2000E+01
     -8.702  0.0000E+00  0.2000E+01
     -8.576  0.0000E+00  0.2000E+01
     -8.449  0.0000E+00  0.2000E+01
     -8.323  0.0000E+00  0.2000E+01
     -8.196  0.0000E+00  0.2000E+01
     -8.070  0.0000E+00  0.2000E+01
     -7.944  0.0000E+00  0.2000E+01
     -7.817  0.0000E+00  0.2000E+01
     -7.691  0.0000E+00  0.2000E+01
     -7.564  0.6730E-07  0.2000E+01
     -7.438  0.1003E-01  0.2001E+01
     -7.311  0.2118E+00  0.2028E+01
     -7.185  0.9316E+00  0.2146E+01
     -7.058  0.1880E+01  0.2384E+01
     -6.932  0.2459E+01  0.2695E+01
     -6.806  0.2088E+01  0.2959E+01
     -6.679  0.1282E+01  0.3121E+01
     -6.553  0.1777E+01  0.3345E+01
     -6.426  0.1912E+01  0.3587E+01
     -6.300  0.1764E+01  0.3810E+01
     -6.173  0.1438E+01  0.3992E+01
     -6.047  0.1655E+01  0.4201E+01
     -5.921  0.2018E+01  0.4456E+01
     -5.794  0.1958E+01  0.4704E+01
     -5.668  0.1832E+01  0.4935E+01
     -5.541  0.2789E+01  0.5288E+01
     -5.415  0.2887E+01  0.5653E+01
     -5.288  0.2758E+01  0.6002E+01
     -5.162  0.3332E+01  0.6423E+01
     -5.035  0.2687E+01  0.6763E+01
     -4.909  0.3638E+01  0.7223E+01
     -4.783  0.2200E+01  0.7501E+01
     -4.656  0.1723E+01  0.7719E+01
     -4.530  0.1002E+01  0.7846E+01
     -4.403  0.6966E+00  0.7934E+01
     -4.277  0.4726E+00  0.7994E+01
     -4.150  0.1348E+00  0.8011E+01
     -4.024  0.4726E+00  0.8070E+01
     -3.897  0.2643E+00  0.8104E+01
     -3.771  0.5249E+00  0.8170E+01
     -3.645  0.7916E+00  0.8270E+01
     -3.518  0.9702E+00  0.8393E+01
     -3.392  0.1165E+01  0.8540E+01
     -3.265  0.1910E+01  0.8782E+01
     -3.139  0.1463E+01  0.8967E+01
     -3.012  0.1980E+01  0.9217E+01
     -2.886  0.2413E+01  0.9522E+01
     -2.759  0.2390E+01  0.9824E+01
     -2.633  0.1940E+01  0.1007E+02
     -2.507  0.3186E+01  0.1047E+02
     -2.380  0.3041E+01  0.1086E+02
     -2.254  0.2359E+01  0.1116E+02
     -2.127  0.3232E+01  0.1156E+02
     -2.001  0.2738E+01  0.1191E+02
     -1.874  0.3153E+01  0.1231E+02
     -1.748  0.2227E+01  0.1259E+02
     -1.621  0.3461E+01  0.1303E+02
     -1.495  0.3597E+01  0.1348E+02
     -1.369  0.3177E+01  0.1388E+02
     -1.242  0.2132E+01  0.1415E+02
     -1.116  0.2025E+01  0.1441E+02
     -0.989  0.2328E+01  0.1470E+02
     -0.863  0.3007E+01  0.1508E+02
     -0.736  0.3045E+01  0.1547E+02
     -0.610  0.2960E+01  0.1584E+02
     -0.484  0.2629E+01  0.1618E+02
     -0.357  0.3031E+01  0.1656E+02
     -0.231  0.3038E+01  0.1694E+02
     -0.104  0.3088E+01  0.1733E+02
      0.022  0.3447E+01  0.1777E+02
      0.149  0.3238E+01  0.1818E+02
      0.275  0.3083E+01  0.1857E+02
      0.402  0.2972E+01  0.1895E+02
      0.528  0.1954E+01  0.1919E+02
      0.654  0.3003E+01  0.1957E+02
      0.781  0.4292E+01  0.2011E+02
      0.907  0.4185E+01  0.2064E+02
      1.034  0.1678E+01  0.2086E+02
      1.160  0.1464E+01  0.2104E+02
      1.287  0.1222E+01  0.2120E+02
      1.413  0.1211E+01  0.2135E+02
      1.540  0.1131E+01  0.2149E+02
      1.666  0.1905E+01  0.2173E+02
      1.792  0.5067E+01  0.2237E+02
      1.919  0.4463E+01  0.2294E+02
      2.045  0.4316E+01  0.2348E+02
      2.172  0.4733E+01  0.2408E+02
      2.298  0.4210E+01  0.2461E+02
      2.425  0.3736E+01  0.2509E+02
      2.551  0.4060E+01  0.2560E+02
      2.678  0.5756E+01  0.2633E+02
      2.804  0.6044E+01  0.2709E+02
      2.930  0.5029E+01  0.2773E+02
      3.057  0.2589E+01  0.2806E+02
      3.183  0.4731E+01  0.2865E+02
      3.310  0.4534E+01  0.2923E+02
      3.436  0.4308E+01  0.2977E+02
      3.563  0.4322E+01  0.3032E+02
      3.689  0.3389E+01  0.3075E+02
      3.816  0.4661E+01  0.3134E+02
      3.942  0.6986E+01  0.3222E+02
      4.068  0.6285E+01  0.3301E+02
      4.195  0.6743E+01  0.3387E+02
      4.321  0.2053E+01  0.3413E+02
      4.448  0.2458E+01  0.3444E+02
      4.574  0.2640E+01  0.3477E+02
      4.701  0.2080E+01  0.3503E+02
      4.827  0.1881E+01  0.3527E+02
      4.953  0.8917E+00  0.3538E+02
      5.080  0.1837E+01  0.3562E+02
      5.206  0.1412E+01  0.3580E+02
      5.333  0.1123E+01  0.3594E+02
      5.459  0.2501E+00  0.3597E+02
      5.586  0.4631E-01  0.3597E+02
      5.712  0.7188E-01  0.3598E+02
      5.839  0.5952E-01  0.3599E+02
      5.965  0.6759E-01  0.3600E+02
      6.091  0.1776E-02  0.3600E+02
      6.218  0.3750E-08  0.3600E+02
      6.344  0.0000E+00  0.3600E+02
      6.471  0.0000E+00  0.3600E+02
      6.597  0.0000E+00  0.3600E+02
      6.724  0.0000E+00  0.3600E+02
      6.850  0.0000E+00  0.3600E+02
      6.977  0.0000E+00  0.3600E+02
      7.103  0.5750E-14  0.3600E+02
      7.229  0.6497E-05  0.3600E+02
      7.356  0.8558E-01  0.3601E+02
      7.482  0.1563E+01  0.3621E+02
      7.609  0.2178E+01  0.3648E+02
      7.735  0.3994E+01  0.3699E+02
      7.862  0.2157E+01  0.3726E+02
      7.988  0.1815E+01  0.3749E+02
      8.115  0.1614E+01  0.3770E+02
      8.241  0.1207E+01  0.3785E+02
      8.367  0.1085E+01  0.3798E+02
      8.494  0.1313E+01  0.3815E+02
      8.620  0.1223E+01  0.3831E+02
      8.747  0.1965E+01  0.3855E+02
      8.873  0.3252E+01  0.3897E+02
      9.000  0.4177E+01  0.3949E+02
      9.126  0.4399E+01  0.4005E+02
      9.252  0.2667E+01  0.4039E+02
      9.379  0.3248E+01  0.4080E+02
      9.505  0.2138E+01  0.4107E+02
      9.632  0.2123E+01  0.4134E+02
      9.758  0.3186E+01  0.4174E+02
      9.885  0.3602E+01  0.4219E+02
     10.011  0.3413E+01  0.4263E+02
     10.138  0.1673E+01  0.4284E+02
     10.264  0.2475E+01  0.4315E+02
     10.390  0.2753E+01  0.4350E+02
     10.517  0.3076E+01  0.4389E+02
     10.643  0.1453E+01  0.4407E+02
     10.770  0.2541E+01  0.4439E+02
     10.896  0.3615E+01  0.4485E+02
     11.023  0.4733E+01  0.4545E+02
     11.149  0.3980E+01  0.4595E+02
     11.276  0.3710E+01  0.4642E+02
     11.402  0.2787E+01  0.4677E+02
     11.528  0.4005E+01  0.4728E+02
     11.655  0.3175E+01  0.4768E+02
     11.781  0.3651E+01  0.4814E+02
     11.908  0.1882E+01  0.4838E+02
     12.034  0.1757E+01  0.4860E+02
     12.161  0.1934E+01  0.4885E+02
     12.287  0.2511E+01  0.4916E+02
     12.414  0.4309E+01  0.4971E+02
     12.540  0.3022E+01  0.5009E+02
     12.666  0.3325E+01  0.5051E+02
     12.793  0.2979E+01  0.5089E+02
     12.919  0.1505E+01  0.5108E+02
     13.046  0.3916E+01  0.5157E+02
     13.172  0.4480E+01  0.5214E+02
     13.299  0.4150E+01  0.5267E+02
     13.425  0.4346E+01  0.5321E+02
     13.552  0.3979E+01  0.5372E+02
     13.678  0.4402E+01  0.5427E+02
     13.804  0.2583E+01  0.5460E+02
     13.931  0.3667E+01  0.5506E+02
     14.057  0.3063E+01  0.5545E+02
     14.184  0.1760E+01  0.5567E+02
     14.310  0.2437E+01  0.5598E+02
     14.437  0.1771E+01  0.5621E+02
     14.563  0.2140E+01  0.5648E+02
     14.689  0.1313E+01  0.5664E+02
     14.816  0.2528E+01  0.5696E+02
     14.942  0.2864E+01  0.5732E+02
     15.069  0.3840E+01  0.5781E+02
     15.195  0.4285E+01  0.5835E+02
     15.322  0.4958E+01  0.5898E+02
     15.448  0.3170E+01  0.5938E+02
     15.575  0.3964E+01  0.5988E+02
     15.701  0.5950E+01  0.6063E+02
     15.827  0.4910E+01  0.6125E+02
     15.954  0.4231E+01  0.6179E+02
     16.080  0.4741E+01  0.6239E+02
     16.207  0.4645E+01  0.6298E+02
     16.333  0.4436E+01  0.6354E+02
     16.460  0.4793E+01  0.6414E+02
     16.586  0.5371E+01  0.6482E+02
     16.713  0.3521E+01  0.6527E+02
     16.839  0.3476E+01  0.6571E+02
     16.965  0.4515E+01  0.6628E+02
     17.092  0.4031E+01  0.6679E+02
     17.218  0.5922E+01  0.6754E+02
     17.345  0.4193E+01  0.6807E+02
     17.471  0.3458E+01  0.6850E+02
     17.598  0.4016E+01  0.6901E+02
     17.724  0.3891E+01  0.6950E+02
     17.851  0.5542E+01  0.7020E+02
     17.977  0.6090E+01  0.7097E+02
     18.103  0.4257E+01  0.7151E+02
     18.230  0.4320E+01  0.7206E+02
     18.356  0.3972E+01  0.7256E+02
     18.483  0.5027E+01  0.7320E+02
     18.609  0.3885E+01  0.7369E+02
     18.736  0.4601E+01  0.7427E+02
     18.862  0.5558E+01  0.7497E+02
     18.989  0.4302E+01  0.7552E+02
     19.115  0.5041E+01  0.7615E+02
     19.241  0.5298E+01  0.7682E+02
     19.368  0.3895E+01  0.7732E+02
     19.494  0.4521E+01  0.7789E+02
     19.621  0.5093E+01  0.7853E+02
     19.747  0.6906E+01  0.7940E+02
     19.874  0.4900E+01  0.8002E+02
     20.000  0.4532E+01  0.8060E+02
     20.126  0.4968E+01  0.8123E+02
     20.253  0.4732E+01  0.8182E+02
     20.379  0.4528E+01  0.8240E+02
     20.506  0.4253E+01  0.8293E+02
     20.632  0.4835E+01  0.8355E+02
     20.759  0.6294E+01  0.8434E+02
     20.885  0.6546E+01  0.8517E+02
     21.012  0.4255E+01  0.8571E+02
     21.138  0.2656E+01  0.8604E+02
     21.264  0.3285E+01  0.8646E+02
     21.391  0.2986E+01  0.8684E+02
     21.517  0.2696E+01  0.8718E+02
     21.644  0.3117E+01  0.8757E+02
     21.770  0.3697E+01  0.8804E+02
     21.897  0.2278E+01  0.8833E+02
     22.023  0.2234E+01  0.8861E+02
     22.150  0.3025E+01  0.8899E+02
     22.276  0.3460E+01  0.8943E+02
     22.402  0.4148E+01  0.8995E+02
     22.529  0.3093E+01  0.9034E+02
     22.655  0.5079E+01  0.9099E+02
     22.782  0.5319E+01  0.9166E+02
     22.908  0.5309E+01  0.9233E+02
     23.035  0.3318E+01  0.9275E+02
     23.161  0.3823E+01  0.9323E+02
     23.288  0.3576E+01  0.9368E+02
     23.414  0.4694E+01  0.9428E+02
     23.540  0.3924E+01  0.9477E+02
     23.667  0.3742E+01  0.9525E+02
     23.793  0.3218E+01  0.9565E+02
     23.920  0.2017E+01  0.9591E+02
     24.046  0.4250E+00  0.9596E+02
     24.173  0.1226E+00  0.9598E+02
     24.299  0.1653E+00  0.9600E+02
     24.425  0.2113E-02  0.9600E+02
     24.552  0.4472E-09  0.9600E+02
     24.678  0.0000E+00  0.9600E+02
     24.805  0.0000E+00  0.9600E+02
     24.931  0.0000E+00  0.9600E+02
     25.058  0.0000E+00  0.9600E+02
     25.184  0.0000E+00  0.9600E+02
     25.311  0.0000E+00  0.9600E+02
     25.437  0.0000E+00  0.9600E+02
     25.563  0.0000E+00  0.9600E+02
     25.690  0.0000E+00  0.9600E+02
     25.816  0.0000E+00  0.9600E+02
     25.943  0.0000E+00  0.9600E+02
