   12   12    1    1
  0.7252118E+01  0.4900670E-09  0.4900670E-09  0.5050980E-09  0.5000000E-15
  1.000000000000000E-004
  CAR 
 B                                       
     36    150     48
 
  0.0000000E+00  0.0000000E+00  0.0000000E+00  0.1953125E-02
      1        -10.265497   1.000000
      2         -4.534010   1.000000
      3         -4.278244   1.000000
      4         -4.278080   1.000000
      5         -3.224720   1.000000
      6         -2.570410   1.000000
      7         -2.570239   1.000000
      8         -2.266454   1.000000
      9         -0.623438   1.000000
     10         -0.483741   1.000000
     11         -0.483561   1.000000
     12          0.358307   1.000000
     13          1.475160   1.000000
     14          1.475335   1.000000
     15          4.522845   1.000000
     16          5.070105   1.000000
     17          5.070257   1.000000
     18          5.553456   1.000000
     19          7.396775   0.000000
     20         10.429776   0.000000
     21         10.430089   0.000000
     22         10.618989   0.000000
     23         10.619294   0.000000
     24         12.288474   0.000000
     25         13.712340   0.000000
     26         13.712527   0.000000
     27         14.948276   0.000000
     28         15.594359   0.000000
     29         15.594688   0.000000
     30         16.084409   0.000000
     31         16.084444   0.000000
     32         16.231113   0.000000
     33         17.514282   0.000000
     34         17.514865   0.000000
     35         17.566757   0.000000
     36         17.809122   0.000000
     37         18.473367   0.000000
     38         18.473449   0.000000
     39         18.560409   0.000000
     40         18.612962   0.000000
     41         18.613132   0.000000
     42         18.979364   0.000000
     43         19.370011   0.000000
     44         19.370404   0.000000
     45         19.523953   0.000000
     46         20.532287   0.000000
     47         22.490683   0.000000
     48         22.490839   0.000000
 
  0.1250000E+00 -0.1164360E-16  0.0000000E+00  0.7812500E-02
      1        -10.177283   1.000000
      2         -5.055519   1.000000
      3         -4.582349   1.000000
      4         -4.431362   1.000000
      5         -2.973898   1.000000
      6         -2.500547   1.000000
      7         -2.243598   1.000000
      8         -1.964465   1.000000
      9         -0.854763   1.000000
     10         -0.756826   1.000000
     11         -0.057543   1.000000
     12          0.789669   1.000000
     13          1.491210   1.000000
     14          1.917436   1.000000
     15          4.396372   1.000000
     16          4.806615   1.000000
     17          4.881503   1.000000
     18          5.255346   1.000000
     19          7.529482   0.000000
     20          9.633407   0.000000
     21          9.951706   0.000000
     22         11.164673   0.000000
     23         11.425987   0.000000
     24         12.569586   0.000000
     25         13.598900   0.000000
     26         13.792861   0.000000
     27         14.443462   0.000000
     28         14.718175   0.000000
     29         15.056763   0.000000
     30         15.711140   0.000000
     31         15.740817   0.000000
     32         16.651032   0.000000
     33         17.142264   0.000000
     34         17.153542   0.000000
     35         17.469002   0.000000
     36         17.964530   0.000000
     37         18.102063   0.000000
     38         18.349325   0.000000
     39         18.447550   0.000000
     40         18.864630   0.000000
     41         19.081332   0.000000
     42         19.398443   0.000000
     43         19.748265   0.000000
     44         19.931158   0.000000
     45         20.232061   0.000000
     46         21.554858   0.000000
     47         22.245967   0.000000
     48         22.609709   0.000000
 
 -0.1250000E+00  0.1250000E+00 -0.1250000E+00  0.3906250E-02
      1        -10.177281   1.000000
      2         -5.055659   1.000000
      3         -4.582309   1.000000
      4         -4.431266   1.000000
      5         -2.973723   1.000000
      6         -2.500620   1.000000
      7         -2.243690   1.000000
      8         -1.964476   1.000000
      9         -0.854909   1.000000
     10         -0.756738   1.000000
     11         -0.057481   1.000000
     12          0.789698   1.000000
     13          1.491278   1.000000
     14          1.917344   1.000000
     15          4.396341   1.000000
     16          4.806505   1.000000
     17          4.881484   1.000000
     18          5.255466   1.000000
     19          7.529485   0.000000
     20          9.633518   0.000000
     21          9.951829   0.000000
     22         11.164554   0.000000
     23         11.425881   0.000000
     24         12.569598   0.000000
     25         13.599173   0.000000
     26         13.792663   0.000000
     27         14.443305   0.000000
     28         14.718232   0.000000
     29         15.056513   0.000000
     30         15.711203   0.000000
     31         15.740785   0.000000
     32         16.651217   0.000000
     33         17.142241   0.000000
     34         17.153522   0.000000
     35         17.468984   0.000000
     36         17.964645   0.000000
     37         18.102280   0.000000
     38         18.349552   0.000000
     39         18.447471   0.000000
     40         18.864577   0.000000
     41         19.081309   0.000000
     42         19.398367   0.000000
     43         19.748190   0.000000
     44         19.930905   0.000000
     45         20.232180   0.000000
     46         21.554796   0.000000
     47         22.246120   0.000000
     48         22.609621   0.000000
 
  0.2500000E+00 -0.2328719E-16  0.0000000E+00  0.7812500E-02
      1         -9.926647   1.000000
      2         -6.125612   1.000000
      3         -4.691538   1.000000
      4         -4.691259   1.000000
      5         -3.288409   1.000000
      6         -2.295774   1.000000
      7         -1.534565   1.000000
      8         -1.184299   1.000000
      9         -1.125962   1.000000
     10         -0.811251   1.000000
     11          0.624835   1.000000
     12          1.209466   1.000000
     13          2.184092   1.000000
     14          2.796446   1.000000
     15          3.629265   1.000000
     16          3.777620   1.000000
     17          4.363894   1.000000
     18          5.252321   1.000000
     19          7.920298   0.000000
     20          9.218711   0.000000
     21          9.811210   0.000000
     22         10.811719   0.000000
     23         11.643408   0.000000
     24         12.684404   0.000000
     25         13.178639   0.000000
     26         13.526893   0.000000
     27         14.034228   0.000000
     28         14.224942   0.000000
     29         14.424387   0.000000
     30         15.079242   0.000000
     31         15.141081   0.000000
     32         16.490496   0.000000
     33         16.598976   0.000000
     34         16.970321   0.000000
     35         17.220519   0.000000
     36         17.554689   0.000000
     37         17.935276   0.000000
     38         18.795436   0.000000
     39         18.819520   0.000000
     40         18.972246   0.000000
     41         19.707464   0.000000
     42         20.221857   0.000000
     43         20.744939   0.000000
     44         20.831912   0.000000
     45         21.624669   0.000000
     46         22.273704   0.000000
     47         22.746364   0.000000
     48         23.183998   0.000000
 
 -0.2500000E+00  0.2500000E+00 -0.2500000E+00  0.3906250E-02
      1         -9.926635   1.000000
      2         -6.125735   1.000000
      3         -4.691488   1.000000
      4         -4.691223   1.000000
      5         -3.288285   1.000000
      6         -2.295725   1.000000
      7         -1.534519   1.000000
      8         -1.184390   1.000000
      9         -1.126015   1.000000
     10         -0.811405   1.000000
     11          0.625009   1.000000
     12          1.209512   1.000000
     13          2.184055   1.000000
     14          2.796384   1.000000
     15          3.629210   1.000000
     16          3.777558   1.000000
     17          4.363758   1.000000
     18          5.252481   1.000000
     19          7.920413   0.000000
     20          9.218821   0.000000
     21          9.811388   0.000000
     22         10.811531   0.000000
     23         11.643335   0.000000
     24         12.684313   0.000000
     25         13.178739   0.000000
     26         13.526930   0.000000
     27         14.033940   0.000000
     28         14.224787   0.000000
     29         14.424304   0.000000
     30         15.079174   0.000000
     31         15.141224   0.000000
     32         16.490564   0.000000
     33         16.598970   0.000000
     34         16.970370   0.000000
     35         17.220712   0.000000
     36         17.554865   0.000000
     37         17.935334   0.000000
     38         18.795410   0.000000
     39         18.819634   0.000000
     40         18.972346   0.000000
     41         19.707393   0.000000
     42         20.221647   0.000000
     43         20.744929   0.000000
     44         20.831752   0.000000
     45         21.624689   0.000000
     46         22.273836   0.000000
     47         22.746270   0.000000
     48         23.183948   0.000000
 
  0.3750000E+00 -0.5382293E-17  0.0000000E+00  0.7812500E-02
      1         -9.581150   1.000000
      2         -7.006489   1.000000
      3         -4.878227   1.000000
      4         -4.771220   1.000000
      5         -3.543544   1.000000
      6         -2.431805   1.000000
      7         -1.585159   1.000000
      8         -0.494043   1.000000
      9         -0.344117   1.000000
     10          0.034871   1.000000
     11          0.403204   1.000000
     12          2.097296   1.000000
     13          2.288915   1.000000
     14          2.469657   1.000000
     15          3.497981   1.000000
     16          3.647516   1.000000
     17          3.790400   1.000000
     18          5.307230   1.000000
     19          7.923494   0.000000
     20          9.561960   0.000000
     21          9.710683   0.000000
     22         10.297641   0.000000
     23         11.053881   0.000000
     24         11.485545   0.000000
     25         13.068092   0.000000
     26         13.247194   0.000000
     27         13.714741   0.000000
     28         13.852411   0.000000
     29         14.051870   0.000000
     30         14.912214   0.000000
     31         15.114352   0.000000
     32         16.129209   0.000000
     33         16.153005   0.000000
     34         16.563234   0.000000
     35         17.798877   0.000000
     36         17.842204   0.000000
     37         18.069096   0.000000
     38         18.377984   0.000000
     39         19.214884   0.000000
     40         19.350492   0.000000
     41         20.466910   0.000000
     42         21.265808   0.000000
     43         21.502247   0.000000
     44         21.889941   0.000000
     45         22.399432   0.000000
     46         22.601572   0.000000
     47         23.048359   0.000000
     48         23.775958   0.000000
 
 -0.3750000E+00  0.3750000E+00 -0.3750000E+00  0.3906250E-02
      1         -9.581117   1.000000
      2         -7.006624   1.000000
      3         -4.878174   1.000000
      4         -4.771213   1.000000
      5         -3.543444   1.000000
      6         -2.431764   1.000000
      7         -1.585062   1.000000
      8         -0.494125   1.000000
      9         -0.344212   1.000000
     10          0.034828   1.000000
     11          0.403294   1.000000
     12          2.097090   1.000000
     13          2.288805   1.000000
     14          2.469845   1.000000
     15          3.497877   1.000000
     16          3.647478   1.000000
     17          3.790396   1.000000
     18          5.307392   1.000000
     19          7.923742   0.000000
     20          9.561712   0.000000
     21          9.710863   0.000000
     22         10.297671   0.000000
     23         11.053907   0.000000
     24         11.485354   0.000000
     25         13.068057   0.000000
     26         13.247251   0.000000
     27         13.714474   0.000000
     28         13.852309   0.000000
     29         14.051843   0.000000
     30         14.912250   0.000000
     31         15.114445   0.000000
     32         16.129223   0.000000
     33         16.152965   0.000000
     34         16.563477   0.000000
     35         17.798980   0.000000
     36         17.842326   0.000000
     37         18.069124   0.000000
     38         18.377940   0.000000
     39         19.214994   0.000000
     40         19.350478   0.000000
     41         20.466682   0.000000
     42         21.265844   0.000000
     43         21.502067   0.000000
     44         21.890005   0.000000
     45         22.399557   0.000000
     46         22.601522   0.000000
     47         23.048444   0.000000
     48         23.775876   0.000000
 
  0.5000000E+00 -0.4657438E-16  0.0000000E+00  0.3906250E-02
      1         -9.377224   1.000000
      2         -7.393860   1.000000
      3         -4.943488   1.000000
      4         -4.798065   1.000000
      5         -3.632995   1.000000
      6         -2.519480   1.000000
      7         -1.689145   1.000000
      8          0.121145   1.000000
      9          0.202430   1.000000
     10          0.468967   1.000000
     11          0.725740   1.000000
     12          1.089927   1.000000
     13          1.711856   1.000000
     14          2.786485   1.000000
     15          3.214913   1.000000
     16          3.976155   1.000000
     17          4.204588   1.000000
     18          5.319441   1.000000
     19          7.840990   0.000000
     20          9.091813   0.000000
     21          9.536084   0.000000
     22         10.766781   0.000000
     23         10.871429   0.000000
     24         11.422955   0.000000
     25         12.351331   0.000000
     26         12.962015   0.000000
     27         13.601896   0.000000
     28         13.769193   0.000000
     29         13.789700   0.000000
     30         15.031514   0.000000
     31         15.229540   0.000000
     32         15.759717   0.000000
     33         16.083135   0.000000
     34         16.408901   0.000000
     35         17.827986   0.000000
     36         17.979658   0.000000
     37         18.002016   0.000000
     38         19.039529   0.000000
     39         19.602422   0.000000
     40         19.749553   0.000000
     41         20.681945   0.000000
     42         20.880207   0.000000
     43         22.014183   0.000000
     44         22.183617   0.000000
     45         22.910118   0.000000
     46         22.924629   0.000000
     47         23.243491   0.000000
     48         23.449740   0.000000
 
  0.5000000E+00  0.5000000E+00  0.5000000E+00  0.1953125E-02
      1         -9.377171   1.000000
      2         -7.394014   1.000000
      3         -4.943439   1.000000
      4         -4.798061   1.000000
      5         -3.632899   1.000000
      6         -2.519449   1.000000
      7         -1.689060   1.000000
      8          0.121137   1.000000
      9          0.202589   1.000000
     10          0.468875   1.000000
     11          0.725779   1.000000
     12          1.089697   1.000000
     13          1.711547   1.000000
     14          2.786559   1.000000
     15          3.214935   1.000000
     16          3.976179   1.000000
     17          4.204595   1.000000
     18          5.319602   1.000000
     19          7.841237   0.000000
     20          9.091544   0.000000
     21          9.536222   0.000000
     22         10.766497   0.000000
     23         10.871527   0.000000
     24         11.423045   0.000000
     25         12.351385   0.000000
     26         12.961937   0.000000
     27         13.601592   0.000000
     28         13.769177   0.000000
     29         13.789685   0.000000
     30         15.031492   0.000000
     31         15.229696   0.000000
     32         15.759695   0.000000
     33         16.083129   0.000000
     34         16.409152   0.000000
     35         17.828137   0.000000
     36         17.979607   0.000000
     37         18.002062   0.000000
     38         19.039781   0.000000
     39         19.602042   0.000000
     40         19.749573   0.000000
     41         20.681565   0.000000
     42         20.880612   0.000000
     43         22.014287   0.000000
     44         22.183443   0.000000
     45         22.910027   0.000000
     46         22.925156   0.000000
     47         23.243169   0.000000
     48         23.449716   0.000000
 
  0.1250000E+00  0.1250000E+00  0.0000000E+00  0.3906250E-02
      1        -10.027221   1.000000
      2         -5.651230   1.000000
      3         -4.987004   1.000000
      4         -4.532627   1.000000
      5         -2.597816   1.000000
      6         -2.567809   1.000000
      7         -2.118408   1.000000
      8         -1.373342   1.000000
      9         -1.116100   1.000000
     10         -0.848738   1.000000
     11          0.725303   1.000000
     12          1.152793   1.000000
     13          1.572879   1.000000
     14          2.429855   1.000000
     15          3.864257   1.000000
     16          4.462592   1.000000
     17          4.538126   1.000000
     18          5.076048   1.000000
     19          7.893869   0.000000
     20          8.893089   0.000000
     21         10.050256   0.000000
     22         10.981760   0.000000
     23         11.857411   0.000000
     24         12.846020   0.000000
     25         13.564046   0.000000
     26         13.716499   0.000000
     27         14.053579   0.000000
     28         14.080305   0.000000
     29         14.508673   0.000000
     30         14.974640   0.000000
     31         15.933378   0.000000
     32         15.988931   0.000000
     33         16.746070   0.000000
     34         17.194289   0.000000
     35         17.550658   0.000000
     36         17.771804   0.000000
     37         18.179841   0.000000
     38         18.469698   0.000000
     39         18.538225   0.000000
     40         19.233078   0.000000
     41         19.382051   0.000000
     42         19.705239   0.000000
     43         20.037469   0.000000
     44         20.607342   0.000000
     45         21.308970   0.000000
     46         22.238857   0.000000
     47         22.304813   0.000000
     48         22.786448   0.000000
 
 -0.2500000E+00  0.1250000E+00 -0.1250000E+00  0.7812500E-02
      1        -10.027215   1.000000
      2         -5.651365   1.000000
      3         -4.986965   1.000000
      4         -4.532506   1.000000
      5         -2.597791   1.000000
      6         -2.567764   1.000000
      7         -2.118396   1.000000
      8         -1.373466   1.000000
      9         -1.116117   1.000000
     10         -0.848795   1.000000
     11          0.725411   1.000000
     12          1.152779   1.000000
     13          1.573038   1.000000
     14          2.429717   1.000000
     15          3.864192   1.000000
     16          4.462538   1.000000
     17          4.538010   1.000000
     18          5.076198   1.000000
     19          7.893846   0.000000
     20          8.893421   0.000000
     21         10.050112   0.000000
     22         10.981783   0.000000
     23         11.857183   0.000000
     24         12.846077   0.000000
     25         13.564221   0.000000
     26         13.716370   0.000000
     27         14.053601   0.000000
     28         14.080070   0.000000
     29         14.508623   0.000000
     30         14.974787   0.000000
     31         15.933336   0.000000
     32         15.988894   0.000000
     33         16.746061   0.000000
     34         17.194640   0.000000
     35         17.550282   0.000000
     36         17.771971   0.000000
     37         18.180201   0.000000
     38         18.469698   0.000000
     39         18.538460   0.000000
     40         19.232970   0.000000
     41         19.381894   0.000000
     42         19.704869   0.000000
     43         20.037419   0.000000
     44         20.607296   0.000000
     45         21.309053   0.000000
     46         22.238986   0.000000
     47         22.304850   0.000000
     48         22.786409   0.000000
 
  0.2500000E+00  0.1250000E+00  0.0000000E+00  0.7812500E-02
      1         -9.733810   1.000000
      2         -6.486391   1.000000
      3         -5.382487   1.000000
      4         -4.661078   1.000000
      5         -2.815244   1.000000
      6         -2.212293   1.000000
      7         -1.694346   1.000000
      8         -1.493837   1.000000
      9         -1.026760   1.000000
     10          0.103227   1.000000
     11          1.030501   1.000000
     12          1.920639   1.000000
     13          2.175709   1.000000
     14          2.691705   1.000000
     15          3.149065   1.000000
     16          3.791639   1.000000
     17          4.130782   1.000000
     18          5.047772   1.000000
     19          8.018976   0.000000
     20          8.828893   0.000000
     21         10.120606   0.000000
     22         10.400235   0.000000
     23         11.277201   0.000000
     24         12.325232   0.000000
     25         13.080511   0.000000
     26         13.160264   0.000000
     27         13.859694   0.000000
     28         13.987452   0.000000
     29         14.444297   0.000000
     30         14.726703   0.000000
     31         15.450960   0.000000
     32         16.267459   0.000000
     33         16.533442   0.000000
     34         16.878474   0.000000
     35         17.174509   0.000000
     36         17.821348   0.000000
     37         18.125904   0.000000
     38         18.237859   0.000000
     39         19.080136   0.000000
     40         19.694055   0.000000
     41         20.064739   0.000000
     42         20.295084   0.000000
     43         20.650458   0.000000
     44         21.682438   0.000000
     45         22.237280   0.000000
     46         22.728206   0.000000
     47         22.964016   0.000000
     48         23.461744   0.000000
 
 -0.3750000E+00  0.1250000E+00 -0.1250000E+00  0.7812500E-02
      1         -9.733801   1.000000
      2         -6.486455   1.000000
      3         -5.382498   1.000000
      4         -4.660980   1.000000
      5         -2.815275   1.000000
      6         -2.212260   1.000000
      7         -1.694292   1.000000
      8         -1.493862   1.000000
      9         -1.026797   1.000000
     10          0.103135   1.000000
     11          1.030511   1.000000
     12          1.920758   1.000000
     13          2.175727   1.000000
     14          2.691735   1.000000
     15          3.149033   1.000000
     16          3.791541   1.000000
     17          4.130692   1.000000
     18          5.047831   1.000000
     19          8.019101   0.000000
     20          8.828975   0.000000
     21         10.120552   0.000000
     22         10.400219   0.000000
     23         11.277041   0.000000
     24         12.325248   0.000000
     25         13.080301   0.000000
     26         13.160305   0.000000
     27         13.859798   0.000000
     28         13.987500   0.000000
     29         14.444313   0.000000
     30         14.726826   0.000000
     31         15.450874   0.000000
     32         16.267385   0.000000
     33         16.533340   0.000000
     34         16.878650   0.000000
     35         17.174468   0.000000
     36         17.821385   0.000000
     37         18.126144   0.000000
     38         18.237969   0.000000
     39         19.080249   0.000000
     40         19.693866   0.000000
     41         20.064586   0.000000
     42         20.294780   0.000000
     43         20.650412   0.000000
     44         21.682525   0.000000
     45         22.237237   0.000000
     46         22.728365   0.000000
     47         22.964288   0.000000
     48         23.461656   0.000000
 
 -0.3750000E+00  0.2500000E+00 -0.2500000E+00  0.7812500E-02
      1         -9.733790   1.000000
      2         -6.486543   1.000000
      3         -5.382424   1.000000
      4         -4.660999   1.000000
      5         -2.815165   1.000000
      6         -2.212247   1.000000
      7         -1.694244   1.000000
      8         -1.493905   1.000000
      9         -1.026916   1.000000
     10          0.103105   1.000000
     11          1.030642   1.000000
     12          1.920741   1.000000
     13          2.175701   1.000000
     14          2.691687   1.000000
     15          3.148958   1.000000
     16          3.791550   1.000000
     17          4.130618   1.000000
     18          5.047945   1.000000
     19          8.019263   0.000000
     20          8.828883   0.000000
     21         10.120659   0.000000
     22         10.400140   0.000000
     23         11.277081   0.000000
     24         12.325122   0.000000
     25         13.080334   0.000000
     26         13.160262   0.000000
     27         13.859779   0.000000
     28         13.987405   0.000000
     29         14.444234   0.000000
     30         14.726813   0.000000
     31         15.450933   0.000000
     32         16.267490   0.000000
     33         16.533434   0.000000
     34         16.878688   0.000000
     35         17.174539   0.000000
     36         17.821373   0.000000
     37         18.126025   0.000000
     38         18.237939   0.000000
     39         19.080286   0.000000
     40         19.694006   0.000000
     41         20.064552   0.000000
     42         20.294821   0.000000
     43         20.650400   0.000000
     44         21.682281   0.000000
     45         22.237404   0.000000
     46         22.728399   0.000000
     47         22.964170   0.000000
     48         23.461566   0.000000
 
  0.3750000E+00  0.1250000E+00  0.0000000E+00  0.7812500E-02
      1         -9.410037   1.000000
      2         -7.166085   1.000000
      3         -5.523964   1.000000
      4         -4.828801   1.000000
      5         -2.946339   1.000000
      6         -2.387264   1.000000
      7         -1.754481   1.000000
      8         -0.656654   1.000000
      9         -0.261785   1.000000
     10          0.551036   1.000000
     11          0.863956   1.000000
     12          1.665436   1.000000
     13          2.315659   1.000000
     14          2.801200   1.000000
     15          3.421443   1.000000
     16          3.598376   1.000000
     17          4.073929   1.000000
     18          5.085172   1.000000
     19          7.728089   0.000000
     20          9.085982   0.000000
     21          9.432222   0.000000
     22         10.445743   0.000000
     23         11.096201   0.000000
     24         11.598963   0.000000
     25         12.450536   0.000000
     26         12.579364   0.000000
     27         13.166965   0.000000
     28         13.965480   0.000000
     29         14.295811   0.000000
     30         15.136089   0.000000
     31         15.395448   0.000000
     32         16.246982   0.000000
     33         16.363811   0.000000
     34         16.746700   0.000000
     35         17.149038   0.000000
     36         17.832568   0.000000
     37         18.293883   0.000000
     38         18.829384   0.000000
     39         19.468141   0.000000
     40         19.768751   0.000000
     41         20.683774   0.000000
     42         21.173679   0.000000
     43         21.527647   0.000000
     44         21.807570   0.000000
     45         22.549901   0.000000
     46         22.872333   0.000000
     47         23.244174   0.000000
     48         23.463587   0.000000
 
  0.5000000E+00  0.1250000E+00 -0.1250000E+00  0.7812500E-02
      1         -9.410030   1.000000
      2         -7.166105   1.000000
      3         -5.524011   1.000000
      4         -4.828726   1.000000
      5         -2.946352   1.000000
      6         -2.387178   1.000000
      7         -1.754589   1.000000
      8         -0.656558   1.000000
      9         -0.261853   1.000000
     10          0.550980   1.000000
     11          0.863984   1.000000
     12          1.665369   1.000000
     13          2.315701   1.000000
     14          2.801247   1.000000
     15          3.421568   1.000000
     16          3.598460   1.000000
     17          4.073678   1.000000
     18          5.085190   1.000000
     19          7.728154   0.000000
     20          9.085974   0.000000
     21          9.432243   0.000000
     22         10.445687   0.000000
     23         11.096204   0.000000
     24         11.598916   0.000000
     25         12.450456   0.000000
     26         12.579272   0.000000
     27         13.167046   0.000000
     28         13.965675   0.000000
     29         14.295841   0.000000
     30         15.136074   0.000000
     31         15.395448   0.000000
     32         16.247018   0.000000
     33         16.363829   0.000000
     34         16.746450   0.000000
     35         17.149118   0.000000
     36         17.832500   0.000000
     37         18.293968   0.000000
     38         18.829544   0.000000
     39         19.468347   0.000000
     40         19.768577   0.000000
     41         20.683625   0.000000
     42         21.173669   0.000000
     43         21.527458   0.000000
     44         21.807487   0.000000
     45         22.549998   0.000000
     46         22.872558   0.000000
     47         23.244398   0.000000
     48         23.463506   0.000000
 
  0.5000000E+00  0.3750000E+00 -0.3750000E+00  0.7812500E-02
      1         -9.409996   1.000000
      2         -7.166240   1.000000
      3         -5.523919   1.000000
      4         -4.828750   1.000000
      5         -2.946265   1.000000
      6         -2.387190   1.000000
      7         -1.754438   1.000000
      8         -0.656669   1.000000