B                                       
           1
     4.285378    0.000000    2.377414
    -1.483226    4.020511   -2.377414
     0.000000    0.000000    5.050980
   B 
    12
Direct configuration=     1
   0.98969000  0.01031000  0.67465000
   0.01031000  0.98969000  0.32535000
   0.98969000  0.65404000  0.67465000
   0.01031000  0.34596000  0.32535000
   0.34596000  0.01031000  0.67465000
   0.65404000  0.98969000  0.32535000
   0.77885000  0.22115000  0.07274000
   0.22115000  0.77885000  0.92726000
   0.77885000  0.63043000  0.07274000
   0.22115000  0.36957000  0.92726000
   0.36957000  0.22115000  0.07274000
   0.63043000  0.77885000  0.92726000
