 DBCSR| CPU Multiplication driver                                           BLAS (U)
 DBCSR| Multrec recursion limit                                              512 (U)
 DBCSR| Multiplication stack size                                           1000 (D)
 DBCSR| Maximum elements for images                                    UNLIMITED (U)
 DBCSR| Multiplicative factor virtual images                                   1 (U)
 DBCSR| Use multiplication densification                                       T (D)
 DBCSR| Multiplication size stacks                                             3 (U)
 DBCSR| Use memory pool for CPU allocation                                     F (U)
 DBCSR| Number of 3D layers                                               SINGLE (U)
 DBCSR| Use MPI memory allocation                                              F (U)
 DBCSR| Use RMA algorithm                                                      F (U)
 DBCSR| Use Communication thread                                               T (U)
 DBCSR| Communication thread load                                             45 (D)
 DBCSR| MPI: My process id                                                     0
 DBCSR| MPI: Number of processes                                               8
 DBCSR| OMP: Current number of threads                                        12
 DBCSR| OMP: Max number of threads                                            12
 DBCSR| Split modifier for TAS multiplication algorithm                  1.0E+00 (U)


  **** **** ******  **  PROGRAM STARTED AT               2025-08-05 01:41:45.995
 ***** ** ***  *** **   PROGRAM STARTED ON                          i03r09c01s08
 **    ****   ******    PROGRAM STARTED BY                               di38fab
 ***** **    ** ** **   PROGRAM PROCESS ID                                526871
  **** **  *******  **  PROGRAM STARTED IN /hppfs/scratch/04/di38fab/09_GTH/Delt
                                           a_Set/C/aug-DZVP-MOLOPT-GTH-tier-2/8x
                                           8x8

 CP2K| version string:                 CP2K version 2025.1 (Development Version)
 CP2K| source code revision number:                                  git:3130539
 CP2K| cp2kflags: omp libint fftw3 libxc parallel scalapack max_contr=4         
 CP2K| is freely available from                            https://www.cp2k.org/
 CP2K| Program compiled at                         Tue Jun  3 16:14:32 CEST 2025
 CP2K| Program compiled on                                               login01
 CP2K| Program compiled for                                        Supermuc-foss
 CP2K| Data directory path                  /hppfs/work/pn36zo/di38fab/cp2k/data
 CP2K| Input file name                                                    GW.inp

 GLOBAL| Force Environment number                                              1
 GLOBAL| Basis set file name            /hppfs/scratch/04/di38fab/09_GTH/BASIS_A
 GLOBAL| Potential file name            /hppfs/work/pn36zo/di38fab/cp2k/data/GTH
 GLOBAL| MM Potential file name                                     MM_POTENTIAL
 GLOBAL| Coordinate file name                                              C.cif
 GLOBAL| Method name                                                        CP2K
 GLOBAL| Project name                                                       WSe2
 GLOBAL| Run type                                                         ENERGY
 GLOBAL| FFT library                                                       FFTW3
 GLOBAL| Diagonalization library                                       ScaLAPACK
 GLOBAL| Cholesky decomposition library                                ScaLAPACK
 GLOBAL| DGEMM library                                                      BLAS
 GLOBAL| Orthonormality check for eigenvectors                          DISABLED
 GLOBAL| Matrix multiplication library                                 ScaLAPACK
 GLOBAL| All-to-all communication in single precision                          F
 GLOBAL| FFTs using library dependent lengths                                  F
 GLOBAL| Grid backend                                                       AUTO
 GLOBAL| Global print level                                               MEDIUM
 GLOBAL| MPI I/O enabled                                                       T
 GLOBAL| Total number of message passing processes                             8
 GLOBAL| Number of threads for this process                                   12
 GLOBAL| This output is from process                                           0
 GLOBAL| OpenMP stack size per thread (OMP_STACKSIZE)                    default
 GLOBAL| CPU model name             Intel(R) Xeon(R) Platinum 8174 CPU @ 3.10GHz

 MEMORY| system memory details [Kb]
 MEMORY|                        rank 0           min           max       average
 MEMORY| MemTotal             98436708      98436708      98436708      98436708
 MEMORY| MemFree              85164540      85164540      85468876      85316708
 MEMORY| Buffers                     0             0             0             0
 MEMORY| Cached                2370764       2353792       2370764       2362278
 MEMORY| Slab                  1189952       1152980       1189952       1171466
 MEMORY| SReclaimable           266532        262312        266532        264422
 MEMORY| MemLikelyFree        87801836      87801836      88084980      87943408


 *** Fundamental physical constants (SI units) ***

 *** Literature: B. J. Mohr and B. N. Taylor,
 ***             CODATA recommended values of the fundamental physical
 ***             constants: 2006, Web Version 5.1
 ***             http://physics.nist.gov/constants

 Speed of light in vacuum [m/s]                             2.99792458000000E+08
 Magnetic constant or permeability of vacuum [N/A**2]       1.25663706143592E-06
 Electric constant or permittivity of vacuum [F/m]          8.85418781762039E-12
 Planck constant (h) [J*s]                                  6.62606896000000E-34
 Planck constant (h-bar) [J*s]                              1.05457162825177E-34
 Elementary charge [C]                                      1.60217648700000E-19
 Electron mass [kg]                                         9.10938215000000E-31
 Electron g factor [ ]                                     -2.00231930436220E+00
 Proton mass [kg]                                           1.67262163700000E-27
 Fine-structure constant                                    7.29735253760000E-03
 Rydberg constant [1/m]                                     1.09737315685270E+07
 Avogadro constant [1/mol]                                  6.02214179000000E+23
 Boltzmann constant [J/K]                                   1.38065040000000E-23
 Atomic mass unit [kg]                                      1.66053878200000E-27
 Bohr radius [m]                                            5.29177208590000E-11

 *** Conversion factors ***

 [u] -> [a.u.]                                              1.82288848426455E+03
 [Angstrom] -> [Bohr] = [a.u.]                              1.88972613288564E+00
 [a.u.] = [Bohr] -> [Angstrom]                              5.29177208590000E-01
 [a.u.] -> [s]                                              2.41888432650478E-17
 [a.u.] -> [fs]                                             2.41888432650478E-02
 [a.u.] -> [J]                                              4.35974393937059E-18
 [a.u.] -> [N]                                              8.23872205491840E-08
 [a.u.] -> [K]                                              3.15774647902944E+05
 [a.u.] -> [kJ/mol]                                         2.62549961709828E+03
 [a.u.] -> [kcal/mol]                                       6.27509468713739E+02
 [a.u.] -> [Pa]                                             2.94210107994716E+13
 [a.u.] -> [bar]                                            2.94210107994716E+08
 [a.u.] -> [atm]                                            2.90362800883016E+08
 [a.u.] -> [eV]                                             2.72113838565563E+01
 [a.u.] -> [Hz]                                             6.57968392072181E+15
 [a.u.] -> [1/cm] (wave numbers)                            2.19474631370540E+05
 [a.u./Bohr**2] -> [1/cm]                                   5.14048714338585E+03
 

 CELL_TOP| Volume [angstrom^3]:                                        46.656548
 CELL_TOP| Vector a [angstrom     2.469     0.000     0.000   |a| =     2.468570
 CELL_TOP| Vector b [angstrom    -1.234     2.138     0.000   |b| =     2.468570
 CELL_TOP| Vector c [angstrom     0.000     0.000     8.841   |c| =     8.840790
 CELL_TOP| Angle (b,c), alpha [degree]:                                90.000000
 CELL_TOP| Angle (a,c), beta  [degree]:                                90.000000
 CELL_TOP| Angle (a,b), gamma [degree]:                               120.000000
 CELL_TOP| Numerically orthorhombic:                                          NO
 CELL_TOP| Periodicity                                                       XYZ

 CELL_CIF| Volume [angstrom^3]:                                        46.656548
 CELL_CIF| Vector a [angstrom     2.469     0.000     0.000   |a| =     2.468570
 CELL_CIF| Vector b [angstrom    -1.234     2.138     0.000   |b| =     2.468570
 CELL_CIF| Vector c [angstrom     0.000     0.000     8.841   |c| =     8.840790
 CELL_CIF| Angle (b,c), alpha [degree]:                                90.000000
 CELL_CIF| Angle (a,c), beta  [degree]:                                90.000000
 CELL_CIF| Angle (a,b), gamma [degree]:                               120.000000
 CELL_CIF| Numerically orthorhombic:                                          NO
 CELL_CIF| Periodicity                                                       XYZ

 GENERATE|  Preliminary Number of Bonds generated:                             0
 GENERATE|  Achieved consistency in connectivity generation.

 CELL| Volume [angstrom^3]:                                            46.656548
 CELL| Vector a [angstrom]:       2.469     0.000     0.000   |a| =     2.468570
 CELL| Vector b [angstrom]:      -1.234     2.138     0.000   |b| =     2.468570
 CELL| Vector c [angstrom]:       0.000     0.000     8.841   |c| =     8.840790
 CELL| Angle (b,c), alpha [degree]:                                    90.000000
 CELL| Angle (a,c), beta  [degree]:                                    90.000000
 CELL| Angle (a,b), gamma [degree]:                                   120.000000
 CELL| Numerically orthorhombic:                                              NO
 CELL| Periodicity                                                           XYZ

 CELL_REF| Volume [angstrom^3]:                                        46.656548
 CELL_REF| Vector a [angstrom     2.469     0.000     0.000   |a| =     2.468570
 CELL_REF| Vector b [angstrom    -1.234     2.138     0.000   |b| =     2.468570
 CELL_REF| Vector c [angstrom     0.000     0.000     8.841   |c| =     8.840790
 CELL_REF| Angle (b,c), alpha [degree]:                                90.000000
 CELL_REF| Angle (a,c), beta  [degree]:                                90.000000
 CELL_REF| Angle (a,b), gamma [degree]:                               120.000000
 CELL_REF| Numerically orthorhombic:                                          NO
 CELL_REF| Periodicity                                                       XYZ

 *** WARNING in cryssym.F:180 :: Symmetry library SPGLIB not available ***


 *******************************************************************************
                                    Kpoints
 *******************************************************************************
 BRILLOUIN| K-point scheme                                        Monkhorst-Pack
 BRILLOUIN| K-Point grid                                             8    8    8
 BRILLOUIN| Accuracy in Symmetry determination                      0.100000E-05
 BRILLOUIN| K-Point point group symmetrization                               OFF
 BRILLOUIN| Wavefunction type                                            COMPLEX
 BRILLOUIN| List of Kpoints [2 Pi/Bohr]                                      256
 BRILLOUIN| Number           Weight            X              Y              Z
 BRILLOUIN|     1           0.00391       -0.43750       -0.43750       -0.43750
 BRILLOUIN|     2           0.00391       -0.43750       -0.43750       -0.31250
 BRILLOUIN|     3           0.00391       -0.43750       -0.43750       -0.18750
 BRILLOUIN|     4           0.00391       -0.43750       -0.43750       -0.06250
 BRILLOUIN|     5           0.00391       -0.43750       -0.43750        0.06250
 BRILLOUIN|     6           0.00391       -0.43750       -0.43750        0.18750
 BRILLOUIN|     7           0.00391       -0.43750       -0.43750        0.31250
 BRILLOUIN|     8           0.00391       -0.43750       -0.43750        0.43750
 BRILLOUIN|     9           0.00391       -0.43750       -0.31250       -0.43750
 BRILLOUIN|    10           0.00391       -0.43750       -0.31250       -0.31250
 BRILLOUIN|    11           0.00391       -0.43750       -0.31250       -0.18750
 BRILLOUIN|    12           0.00391       -0.43750       -0.31250       -0.06250
 BRILLOUIN|    13           0.00391       -0.43750       -0.31250        0.06250
 BRILLOUIN|    14           0.00391       -0.43750       -0.31250        0.18750
 BRILLOUIN|    15           0.00391       -0.43750       -0.31250        0.31250
 BRILLOUIN|    16           0.00391       -0.43750       -0.31250        0.43750
 BRILLOUIN|    17           0.00391       -0.43750       -0.18750       -0.43750
 BRILLOUIN|    18           0.00391       -0.43750       -0.18750       -0.31250
 BRILLOUIN|    19           0.00391       -0.43750       -0.18750       -0.18750
 BRILLOUIN|    20           0.00391       -0.43750       -0.18750       -0.06250
 BRILLOUIN|    21           0.00391       -0.43750       -0.18750        0.06250
 BRILLOUIN|    22           0.00391       -0.43750       -0.18750        0.18750
 BRILLOUIN|    23           0.00391       -0.43750       -0.18750        0.31250
 BRILLOUIN|    24           0.00391       -0.43750       -0.18750        0.43750
 BRILLOUIN|    25           0.00391       -0.43750       -0.06250       -0.43750
 BRILLOUIN|    26           0.00391       -0.43750       -0.06250       -0.31250
 BRILLOUIN|    27           0.00391       -0.43750       -0.06250       -0.18750
 BRILLOUIN|    28           0.00391       -0.43750       -0.06250       -0.06250
 BRILLOUIN|    29           0.00391       -0.43750       -0.06250        0.06250
 BRILLOUIN|    30           0.00391       -0.43750       -0.06250        0.18750
 BRILLOUIN|    31           0.00391       -0.43750       -0.06250        0.31250
 BRILLOUIN|    32           0.00391       -0.43750       -0.06250        0.43750
 BRILLOUIN|    33           0.00391       -0.43750        0.06250       -0.43750
 BRILLOUIN|    34           0.00391       -0.43750        0.06250       -0.31250
 BRILLOUIN|    35           0.00391       -0.43750        0.06250       -0.18750
 BRILLOUIN|    36           0.00391       -0.43750        0.06250       -0.06250
 BRILLOUIN|    37           0.00391       -0.43750        0.06250        0.06250
 BRILLOUIN|    38           0.00391       -0.43750        0.06250        0.18750
 BRILLOUIN|    39           0.00391       -0.43750        0.06250        0.31250
 BRILLOUIN|    40           0.00391       -0.43750        0.06250        0.43750
 BRILLOUIN|    41           0.00391       -0.43750        0.18750       -0.43750
 BRILLOUIN|    42           0.00391       -0.43750        0.18750       -0.31250
 BRILLOUIN|    43           0.00391       -0.43750        0.18750       -0.18750
 BRILLOUIN|    44           0.00391       -0.43750        0.18750       -0.06250
 BRILLOUIN|    45           0.00391       -0.43750        0.18750        0.06250
 BRILLOUIN|    46           0.00391       -0.43750        0.18750        0.18750
 BRILLOUIN|    47           0.00391       -0.43750        0.18750        0.31250
 BRILLOUIN|    48           0.00391       -0.43750        0.18750        0.43750
 BRILLOUIN|    49           0.00391       -0.43750        0.31250       -0.43750
 BRILLOUIN|    50           0.00391       -0.43750        0.31250       -0.31250
 BRILLOUIN|    51           0.00391       -0.43750        0.31250       -0.18750
 BRILLOUIN|    52           0.00391       -0.43750        0.31250       -0.06250
 BRILLOUIN|    53           0.00391       -0.43750        0.31250        0.06250
 BRILLOUIN|    54           0.00391       -0.43750        0.31250        0.18750
 BRILLOUIN|    55           0.00391       -0.43750        0.31250        0.31250
 BRILLOUIN|    56           0.00391       -0.43750        0.31250        0.43750
 BRILLOUIN|    57           0.00391       -0.43750        0.43750       -0.43750
 BRILLOUIN|    58           0.00391       -0.43750        0.43750       -0.31250
 BRILLOUIN|    59           0.00391       -0.43750        0.43750       -0.18750
 BRILLOUIN|    60           0.00391       -0.43750        0.43750       -0.06250
 BRILLOUIN|    61           0.00391       -0.43750        0.43750        0.06250
 BRILLOUIN|    62           0.00391       -0.43750        0.43750        0.18750
 BRILLOUIN|    63           0.00391       -0.43750        0.43750        0.31250
 BRILLOUIN|    64           0.00391       -0.43750        0.43750        0.43750
 BRILLOUIN|    65           0.00391       -0.31250       -0.43750       -0.43750
 BRILLOUIN|    66           0.00391       -0.31250       -0.43750       -0.31250
 BRILLOUIN|    67           0.00391       -0.31250       -0.43750       -0.18750
 BRILLOUIN|    68           0.00391       -0.31250       -0.43750       -0.06250
 BRILLOUIN|    69           0.00391       -0.31250       -0.43750        0.06250
 BRILLOUIN|    70           0.00391       -0.31250       -0.43750        0.18750
 BRILLOUIN|    71           0.00391       -0.31250       -0.43750        0.31250
 BRILLOUIN|    72           0.00391       -0.31250       -0.43750        0.43750
 BRILLOUIN|    73           0.00391       -0.31250       -0.31250       -0.43750
 BRILLOUIN|    74           0.00391       -0.31250       -0.31250       -0.31250
 BRILLOUIN|    75           0.00391       -0.31250       -0.31250       -0.18750
 BRILLOUIN|    76           0.00391       -0.31250       -0.31250       -0.06250
 BRILLOUIN|    77           0.00391       -0.31250       -0.31250        0.06250
 BRILLOUIN|    78           0.00391       -0.31250       -0.31250        0.18750
 BRILLOUIN|    79           0.00391       -0.31250       -0.31250        0.31250
 BRILLOUIN|    80           0.00391       -0.31250       -0.31250        0.43750
 BRILLOUIN|    81           0.00391       -0.31250       -0.18750       -0.43750
 BRILLOUIN|    82           0.00391       -0.31250       -0.18750       -0.31250
 BRILLOUIN|    83           0.00391       -0.31250       -0.18750       -0.18750
 BRILLOUIN|    84           0.00391       -0.31250       -0.18750       -0.06250
 BRILLOUIN|    85           0.00391       -0.31250       -0.18750        0.06250
 BRILLOUIN|    86           0.00391       -0.31250       -0.18750        0.18750
 BRILLOUIN|    87           0.00391       -0.31250       -0.18750        0.31250
 BRILLOUIN|    88           0.00391       -0.31250       -0.18750        0.43750
 BRILLOUIN|    89           0.00391       -0.31250       -0.06250       -0.43750
 BRILLOUIN|    90           0.00391       -0.31250       -0.06250       -0.31250
 BRILLOUIN|    91           0.00391       -0.31250       -0.06250       -0.18750
 BRILLOUIN|    92           0.00391       -0.31250       -0.06250       -0.06250
 BRILLOUIN|    93           0.00391       -0.31250       -0.06250        0.06250
 BRILLOUIN|    94           0.00391       -0.31250       -0.06250        0.18750
 BRILLOUIN|    95           0.00391       -0.31250       -0.06250        0.31250
 BRILLOUIN|    96           0.00391       -0.31250       -0.06250        0.43750
 BRILLOUIN|    97           0.00391       -0.31250        0.06250       -0.43750
 BRILLOUIN|    98           0.00391       -0.31250        0.06250       -0.31250
 BRILLOUIN|    99           0.00391       -0.31250        0.06250       -0.18750
 BRILLOUIN|   100           0.00391       -0.31250        0.06250       -0.06250
 BRILLOUIN|   101           0.00391       -0.31250        0.06250        0.06250
 BRILLOUIN|   102           0.00391       -0.31250        0.06250        0.18750
 BRILLOUIN|   103           0.00391       -0.31250        0.06250        0.31250
 BRILLOUIN|   104           0.00391       -0.31250        0.06250        0.43750
 BRILLOUIN|   105           0.00391       -0.31250        0.18750       -0.43750
 BRILLOUIN|   106           0.00391       -0.31250        0.18750       -0.31250
 BRILLOUIN|   107           0.00391       -0.31250        0.18750       -0.18750
 BRILLOUIN|   108           0.00391       -0.31250        0.18750       -0.06250
 BRILLOUIN|   109           0.00391       -0.31250        0.18750        0.06250
 BRILLOUIN|   110           0.00391       -0.31250        0.18750        0.18750
 BRILLOUIN|   111           0.00391       -0.31250        0.18750        0.31250
 BRILLOUIN|   112           0.00391       -0.31250        0.18750        0.43750
 BRILLOUIN|   113           0.00391       -0.31250        0.31250       -0.43750
 BRILLOUIN|   114           0.00391       -0.31250        0.31250       -0.31250
 BRILLOUIN|   115           0.00391       -0.31250        0.31250       -0.18750
 BRILLOUIN|   116           0.00391       -0.31250        0.31250       -0.06250
 BRILLOUIN|   117           0.00391       -0.31250        0.31250        0.06250
 BRILLOUIN|   118           0.00391       -0.31250        0.31250        0.18750
 BRILLOUIN|   119           0.00391       -0.31250        0.31250        0.31250
 BRILLOUIN|   120           0.00391       -0.31250        0.31250        0.43750
 BRILLOUIN|   121           0.00391       -0.31250        0.43750       -0.43750
 BRILLOUIN|   122           0.00391       -0.31250        0.43750       -0.31250
 BRILLOUIN|   123           0.00391       -0.31250        0.43750       -0.18750
 BRILLOUIN|   124           0.00391       -0.31250        0.43750       -0.06250
 BRILLOUIN|   125           0.00391       -0.31250        0.43750        0.06250
 BRILLOUIN|   126           0.00391       -0.31250        0.43750        0.18750
 BRILLOUIN|   127           0.00391       -0.31250        0.43750        0.31250
 BRILLOUIN|   128           0.00391       -0.31250        0.43750        0.43750
 BRILLOUIN|   129           0.00391       -0.18750       -0.43750       -0.43750
 BRILLOUIN|   130           0.00391       -0.18750       -0.43750       -0.31250
 BRILLOUIN|   131           0.00391       -0.18750       -0.43750       -0.18750
 BRILLOUIN|   132           0.00391       -0.18750       -0.43750       -0.06250
 BRILLOUIN|   133           0.00391       -0.18750       -0.43750        0.06250
 BRILLOUIN|   134           0.00391       -0.18750       -0.43750        0.18750
 BRILLOUIN|   135           0.00391       -0.18750       -0.43750        0.31250
 BRILLOUIN|   136           0.00391       -0.18750       -0.43750        0.43750
 BRILLOUIN|   137           0.00391       -0.18750       -0.31250       -0.43750
 BRILLOUIN|   138           0.00391       -0.18750       -0.31250       -0.31250
 BRILLOUIN|   139           0.00391       -0.18750       -0.31250       -0.18750
 BRILLOUIN|   140           0.00391       -0.18750       -0.31250       -0.06250
 BRILLOUIN|   141           0.00391       -0.18750       -0.31250        0.06250
 BRILLOUIN|   142           0.00391       -0.18750       -0.31250        0.18750
 BRILLOUIN|   143           0.00391       -0.18750       -0.31250        0.31250
 BRILLOUIN|   144           0.00391       -0.18750       -0.31250        0.43750
 BRILLOUIN|   145           0.00391       -0.18750       -0.18750       -0.43750
 BRILLOUIN|   146           0.00391       -0.18750       -0.18750       -0.31250
 BRILLOUIN|   147           0.00391       -0.18750       -0.18750       -0.18750
 BRILLOUIN|   148           0.00391       -0.18750       -0.18750       -0.06250
 BRILLOUIN|   149           0.00391       -0.18750       -0.18750        0.06250
 BRILLOUIN|   150           0.00391       -0.18750       -0.18750        0.18750
 BRILLOUIN|   151           0.00391       -0.18750       -0.18750        0.31250
 BRILLOUIN|   152           0.00391       -0.18750       -0.18750        0.43750
 BRILLOUIN|   153           0.00391       -0.18750       -0.06250       -0.43750
 BRILLOUIN|   154           0.00391       -0.18750       -0.06250       -0.31250
 BRILLOUIN|   155           0.00391       -0.18750       -0.06250       -0.18750
 BRILLOUIN|   156           0.00391       -0.18750       -0.06250       -0.06250
 BRILLOUIN|   157           0.00391       -0.18750       -0.06250        0.06250
 BRILLOUIN|   158           0.00391       -0.18750       -0.06250        0.18750
 BRILLOUIN|   159           0.00391       -0.18750       -0.06250        0.31250
 BRILLOUIN|   160           0.00391       -0.18750       -0.06250        0.43750
 BRILLOUIN|   161           0.00391       -0.18750        0.06250       -0.43750
 BRILLOUIN|   162           0.00391       -0.18750        0.06250       -0.31250
 BRILLOUIN|   163           0.00391       -0.18750        0.06250       -0.18750
 BRILLOUIN|   164           0.00391       -0.18750        0.06250       -0.06250
 BRILLOUIN|   165           0.00391       -0.18750        0.06250        0.06250
 BRILLOUIN|   166           0.00391       -0.18750        0.06250        0.18750
 BRILLOUIN|   167           0.00391       -0.18750        0.06250        0.31250
 BRILLOUIN|   168           0.00391       -0.18750        0.06250        0.43750
 BRILLOUIN|   169           0.00391       -0.18750        0.18750       -0.43750
 BRILLOUIN|   170           0.00391       -0.18750        0.18750       -0.31250
 BRILLOUIN|   171           0.00391       -0.18750        0.18750       -0.18750
 BRILLOUIN|   172           0.00391       -0.18750        0.18750       -0.06250
 BRILLOUIN|   173           0.00391       -0.18750        0.18750        0.06250
 BRILLOUIN|   174           0.00391       -0.18750        0.18750        0.18750
 BRILLOUIN|   175           0.00391       -0.18750        0.18750        0.31250
 BRILLOUIN|   176           0.00391       -0.18750        0.18750        0.43750
 BRILLOUIN|   177           0.00391       -0.18750        0.31250       -0.43750
 BRILLOUIN|   178           0.00391       -0.18750        0.31250       -0.31250
 BRILLOUIN|   179           0.00391       -0.18750        0.31250       -0.18750
 BRILLOUIN|   180           0.00391       -0.18750        0.31250       -0.06250
 BRILLOUIN|   181           0.00391       -0.18750        0.31250        0.06250
 BRILLOUIN|   182           0.00391       -0.18750        0.31250        0.18750
 BRILLOUIN|   183           0.00391       -0.18750        0.31250        0.31250
 BRILLOUIN|   184           0.00391       -0.18750        0.31250        0.43750
 BRILLOUIN|   185           0.00391       -0.18750        0.43750       -0.43750
 BRILLOUIN|   186           0.00391       -0.18750        0.43750       -0.31250
 BRILLOUIN|   187           0.00391       -0.18750        0.43750       -0.18750
 BRILLOUIN|   188           0.00391       -0.18750        0.43750       -0.06250
 BRILLOUIN|   189           0.00391       -0.18750        0.43750        0.06250
 BRILLOUIN|   190           0.00391       -0.18750        0.43750        0.18750
 BRILLOUIN|   191           0.00391       -0.18750        0.43750        0.31250
 BRILLOUIN|   192           0.00391       -0.18750        0.43750        0.43750
 BRILLOUIN|   193           0.00391       -0.06250       -0.43750       -0.43750
 BRILLOUIN|   194           0.00391       -0.06250       -0.43750       -0.31250
 BRILLOUIN|   195           0.00391       -0.06250       -0.43750       -0.18750
 BRILLOUIN|   196           0.00391       -0.06250       -0.43750       -0.06250
 BRILLOUIN|   197           0.00391       -0.06250       -0.43750        0.06250
 BRILLOUIN|   198           0.00391       -0.06250       -0.43750        0.18750
 BRILLOUIN|   199           0.00391       -0.06250       -0.43750        0.31250
 BRILLOUIN|   200           0.00391       -0.06250       -0.43750        0.43750
 BRILLOUIN|   201           0.00391       -0.06250       -0.31250       -0.43750
 BRILLOUIN|   202           0.00391       -0.06250       -0.31250       -0.31250
 BRILLOUIN|   203           0.00391       -0.06250       -0.31250       -0.18750
 BRILLOUIN|   204           0.00391       -0.06250       -0.31250       -0.06250
 BRILLOUIN|   205           0.00391       -0.06250       -0.31250        0.06250
 BRILLOUIN|   206           0.00391       -0.06250       -0.31250        0.18750
 BRILLOUIN|   207           0.00391       -0.06250       -0.31250        0.31250
 BRILLOUIN|   208           0.00391       -0.06250       -0.31250        0.43750
 BRILLOUIN|   209           0.00391       -0.06250       -0.18750       -0.43750
 BRILLOUIN|   210           0.00391       -0.06250       -0.18750       -0.31250
 BRILLOUIN|   211           0.00391       -0.06250       -0.18750       -0.18750
 BRILLOUIN|   212           0.00391       -0.06250       -0.18750       -0.06250
 BRILLOUIN|   213           0.00391       -0.06250       -0.18750        0.06250
 BRILLOUIN|   214           0.00391       -0.06250       -0.18750        0.18750
 BRILLOUIN|   215           0.00391       -0.06250       -0.18750        0.31250
 BRILLOUIN|   216           0.00391       -0.06250       -0.18750        0.43750
 BRILLOUIN|   217           0.00391       -0.06250       -0.06250       -0.43750
 BRILLOUIN|   218           0.00391       -0.06250       -0.06250       -0.31250
 BRILLOUIN|   219           0.00391       -0.06250       -0.06250       -0.18750
 BRILLOUIN|   220           0.00391       -0.06250       -0.06250       -0.06250
 BRILLOUIN|   221           0.00391       -0.06250       -0.06250        0.06250
 BRILLOUIN|   222           0.00391       -0.06250       -0.06250        0.18750
 BRILLOUIN|   223           0.00391       -0.06250       -0.06250        0.31250
 BRILLOUIN|   224           0.00391       -0.06250       -0.06250        0.43750
 BRILLOUIN|   225           0.00391       -0.06250        0.06250       -0.43750
 BRILLOUIN|   226           0.00391       -0.06250        0.06250       -0.31250
 BRILLOUIN|   227           0.00391       -0.06250        0.06250       -0.18750
 BRILLOUIN|   228           0.00391       -0.06250        0.06250       -0.06250
 BRILLOUIN|   229           0.00391       -0.06250        0.06250        0.06250
 BRILLOUIN|   230           0.00391       -0.06250        0.06250        0.18750
 BRILLOUIN|   231           0.00391       -0.06250        0.06250        0.31250
 BRILLOUIN|   232           0.00391       -0.06250        0.06250        0.43750
 BRILLOUIN|   233           0.00391       -0.06250        0.18750       -0.43750
 BRILLOUIN|   234           0.00391       -0.06250        0.18750       -0.31250
 BRILLOUIN|   235           0.00391       -0.06250        0.18750       -0.18750
 BRILLOUIN|   236           0.00391       -0.06250        0.18750       -0.06250
 BRILLOUIN|   237           0.00391       -0.06250        0.18750        0.06250
 BRILLOUIN|   238           0.00391       -0.06250        0.18750        0.18750
 BRILLOUIN|   239           0.00391       -0.06250        0.18750        0.31250
 BRILLOUIN|   240           0.00391       -0.06250        0.18750        0.43750
 BRILLOUIN|   241           0.00391       -0.06250        0.31250       -0.43750
 BRILLOUIN|   242           0.00391       -0.06250        0.31250       -0.31250
 BRILLOUIN|   243           0.00391       -0.06250        0.31250       -0.18750
 BRILLOUIN|   244           0.00391       -0.06250        0.31250       -0.06250
 BRILLOUIN|   245           0.00391       -0.06250        0.31250        0.06250
 BRILLOUIN|   246           0.00391       -0.06250        0.31250        0.18750
 BRILLOUIN|   247           0.00391       -0.06250        0.31250        0.31250
 BRILLOUIN|   248           0.00391       -0.06250        0.31250        0.43750
 BRILLOUIN|   249           0.00391       -0.06250        0.43750       -0.43750
 BRILLOUIN|   250           0.00391       -0.06250        0.43750       -0.31250
 BRILLOUIN|   251           0.00391       -0.06250        0.43750       -0.18750
 BRILLOUIN|   252           0.00391       -0.06250        0.43750       -0.06250
 BRILLOUIN|   253           0.00391       -0.06250        0.43750        0.06250
 BRILLOUIN|   254           0.00391       -0.06250        0.43750        0.18750
 BRILLOUIN|   255           0.00391       -0.06250        0.43750        0.31250
 BRILLOUIN|   256           0.00391       -0.06250        0.43750        0.43750
 *******************************************************************************

 *******************************************************************************
 *******************************************************************************
 **                                                                           **
 **     #####                         ##              ##                      **
 **    ##   ##            ##          ##              ##                      **
 **   ##     ##                       ##            ######                    **
 **   ##     ##  ##   ##  ##   #####  ##  ##   ####   ##    #####    #####    **
 **   ##     ##  ##   ##  ##  ##      ## ##   ##      ##   ##   ##  ##   ##   **
 **   ##  ## ##  ##   ##  ##  ##      ####     ###    ##   ######   ######    **
 **    ##  ###   ##   ##  ##  ##      ## ##      ##   ##   ##       ##        **
 **     #######   #####   ##   #####  ##  ##  ####    ##    #####   ##        **
 **           ##                                                    ##        **
 **                                                                           **
 **                                                ... make the atoms dance   **
 **                                                                           **
 **            Copyright (C) by CP2K developers group (2000-2025)             **
 **                      J. Chem. Phys. 152, 194103 (2020)                    **
 **                                                                           **
 *******************************************************************************

 DFT| Spin restricted Kohn-Sham (RKS) calculation                            RKS
 DFT| Multiplicity                                                             1
 DFT| Number of spin states                                                    1
 DFT| Charge                                                                   0
 DFT| Self-interaction correction (SIC)                                       NO
 DFT| Cutoffs: density                                              1.000000E-10
 DFT|          gradient                                             1.000000E-10
 DFT|          tau                                                  1.000000E-10
 DFT|          cutoff_smoothing_range                               0.000000E+00
 DFT| XC density smoothing                                                  NONE
 DFT| XC derivatives                                                          PW

 FUNCTIONAL| PBE:
 FUNCTIONAL| J.P.Perdew, K.Burke, M.Ernzerhof, Phys. Rev. Letter, vol. 77, n 18,
 FUNCTIONAL|  pp. 3865-3868, (1996) {spin unpolarized}                          


 QS| Method:                                                                 GPW
 QS| Density plane wave grid type                        NON-SPHERICAL FULLSPACE
 QS| Number of grid levels:                                                    4
 QS| Density cutoff [a.u.]:                                                500.0
 QS| Multi grid cutoff [a.u.]: 1) grid level                               500.0
 QS|                           2) grid level                               166.7
 QS|                           3) grid level                                55.6
 QS|                           4) grid level                                18.5
 QS| Grid level progression factor:                                          3.0
 QS| Relative density cutoff [a.u.]:                                        50.0
 QS| Interaction thresholds: eps_pgf_orb:                                1.0E-16
 QS|                         eps_filter_matrix:                          0.0E+00
 QS|                         eps_core_charge:                            1.0E-18
 QS|                         eps_rho_gspace:                             1.0E-16
 QS|                         eps_rho_rspace:                             1.0E-16
 QS|                         eps_gvg_rspace:                             1.0E-08
 QS|                         eps_ppl:                                    1.0E-02
 QS|                         eps_ppnl:                                   1.0E-10


 ATOMIC KIND INFORMATION

  1. Atomic kind: C                                     Number of atoms:       4

     Orbital Basis Set                                aug-DZVP-MOLOPT-GTH-tier-2

       Number of orbital shell sets:                                           1
       Number of orbital shells:                                               9
       Number of primitive Cartesian functions:                                7
       Number of Cartesian basis functions:                                   34
       Number of spherical basis functions:                                   29
       Norm type:                                                              2

       Normalised Cartesian orbitals:

                        Set   Shell   Orbital            Exponent    Coefficient

                          1       1    2s                0.030287       0.000417
                                                         0.075145       0.000568
                                                         0.178617       0.065483
                                                         0.478316       0.306085
                                                         1.045457       0.042712
                                                         2.625196      -0.231112
                                                         6.132625      -0.263661

                          1       2    3s                0.030287       0.008247
                                                         0.075145      -0.145101
                                                         0.178617       0.069203
                                                         0.478316       0.644922
                                                         1.045457      -0.593590
                                                         2.625196       0.414269
                                                         6.132625       0.131937

                          1       3    4s                0.030287      -0.016895
                                                         0.075145       0.030607
                                                         0.178617      -0.224246
                                                         0.478316       0.044532
                                                         1.045457       0.000000
                                                         2.625196       0.000000
                                                         6.132625       0.000000

                          1       4    3px               0.030287       0.000105
                                                         0.075145       0.003677
                                                         0.178617       0.052379
                                                         0.478316       0.235193
                                                         1.045457       0.379157
                                                         2.625196       0.633910
                                                         6.132625       0.562677
                          1       4    3py               0.030287       0.000105
                                                         0.075145       0.003677
                                                         0.178617       0.052379
                                                         0.478316       0.235193
                                                         1.045457       0.379157
                                                         2.625196       0.633910
                                                         6.132625       0.562677
                          1       4    3pz               0.030287       0.000105
                                                         0.075145       0.003677
                                                         0.178617       0.052379
                                                         0.478316       0.235193
                                                         1.045457       0.379157
                                                         2.625196       0.633910
                                                         6.132625       0.562677

                          1       5    4px               0.030287       0.002706
                                                         0.075145       0.024920
                                                         0.178617       0.072281
                                                         0.478316       0.135466
                                                         1.045457      -0.481781
                                                         2.625196      -0.221326
                                                         6.132625      -0.472364
                          1       5    4py               0.030287       0.002706
                                                         0.075145       0.024920
                                                         0.178617       0.072281
                                                         0.478316       0.135466
                                                         1.045457      -0.481781
                                                         2.625196      -0.221326
                                                         6.132625      -0.472364
                          1       5    4pz               0.030287       0.002706
                                                         0.075145       0.024920
                                                         0.178617       0.072281
                                                         0.478316       0.135466
                                                         1.045457      -0.481781
                                                         2.625196      -0.221326
                                                         6.132625      -0.472364

                          1       6    5px               0.030287       0.017352
                                                         0.075145      -0.002699
                                                         0.178617       0.032082
                                                         0.478316      -0.042679
                                                         1.045457      -0.009076
                                                         2.625196       0.000000
                                                         6.132625       0.000000
                          1       6    5py               0.030287       0.017352
                                                         0.075145      -0.002699
                                                         0.178617       0.032082
                                                         0.478316      -0.042679
                                                         1.045457      -0.009076
                                                         2.625196       0.000000
                                                         6.132625       0.000000
                          1       6    5pz               0.030287       0.017352
                                                         0.075145      -0.002699
                                                         0.178617       0.032082
                                                         0.478316      -0.042679
                                                         1.045457      -0.009076
                                                         2.625196       0.000000
                                                         6.132625       0.000000

                          1       7    4dx2              0.030287      -0.000011
                                                         0.075145       0.003649
                                                         0.178617       0.018656
                                                         0.478316       0.191007
                                                         1.045457       0.653959
                                                         2.625196       0.375772
                                                         6.132625       0.874783
                          1       7    4dxy              0.030287      -0.000019
                                                         0.075145       0.006321
                                                         0.178617       0.032314
                                                         0.478316       0.330834
                                                         1.045457       1.132690
                                                         2.625196       0.650856
                                                         6.132625       1.515169
                          1       7    4dxz              0.030287      -0.000019
                                                         0.075145       0.006321
                                                         0.178617       0.032314
                                                         0.478316       0.330834
                                                         1.045457       1.132690
                                                         2.625196       0.650856
                                                         6.132625       1.515169
                          1       7    4dy2              0.030287      -0.000011
                                                         0.075145       0.003649
                                                         0.178617       0.018656
                                                         0.478316       0.191007
                                                         1.045457       0.653959
                                                         2.625196       0.375772
                                                         6.132625       0.874783
                          1       7    4dyz              0.030287      -0.000019
                                                         0.075145       0.006321
                                                         0.178617       0.032314
                                                         0.478316       0.330834
                                                         1.045457       1.132690
                                                         2.625196       0.650856
                                                         6.132625       1.515169
                          1       7    4dz2              0.030287      -0.000011
                                                         0.075145       0.003649
                                                         0.178617       0.018656
                                                         0.478316       0.191007
                                                         1.045457       0.653959
                                                         2.625196       0.375772
                                                         6.132625       0.874783

                          1       8    5dx2              0.030287      -0.003947
                                                         0.075145       0.002963
                                                         0.178617       0.031728
                                                         0.478316       0.034826
                                                         1.045457       0.000000
                                                         2.625196       0.000000
                                                         6.132625       0.000000
                          1       8    5dxy              0.030287      -0.006837
                                                         0.075145       0.005132
                                                         0.178617       0.054954
                                                         0.478316       0.060321
                                                         1.045457       0.000000
                                                         2.625196       0.000000
                                                         6.132625       0.000000
                          1       8    5dxz              0.030287      -0.006837
                                                         0.075145       0.005132
                                                         0.178617       0.054954
                                                         0.478316       0.060321
                                                         1.045457       0.000000
                                                         2.625196       0.000000
                                                         6.132625       0.000000
                          1       8    5dy2              0.030287      -0.003947
                                                         0.075145       0.002963
                                                         0.178617       0.031728
                                                         0.478316       0.034826
                                                         1.045457       0.000000
                                                         2.625196       0.000000
                                                         6.132625       0.000000
                          1       8    5dyz              0.030287      -0.006837
                                                         0.075145       0.005132
                                                         0.178617       0.054954
                                                         0.478316       0.060321
                                                         1.045457       0.000000
                                                         2.625196       0.000000
                                                         6.132625       0.000000
                          1       8    5dz2              0.030287      -0.003947
                                                         0.075145       0.002963
                                                         0.178617       0.031728
                                                         0.478316       0.034826
                                                         1.045457       0.000000
                                                         2.625196       0.000000
                                                         6.132625       0.000000

                          1       9    5fx3              0.030287      -0.000285
                                                         0.075145       0.000033
                                                         0.178617       0.028614
                                                         0.478316       0.026019
                                                         1.045457      -0.216259
                                                         2.625196       0.045628
                                                         6.132625       0.000000
                          1       9    5fx2y             0.030287      -0.000636
                                                         0.075145       0.000074
                                                         0.178617       0.063983
                                                         0.478316       0.058181
                                                         1.045457      -0.483570
                                                         2.625196       0.102028
                                                         6.132625       0.000000
                          1       9    5fx2z             0.030287      -0.000636
                                                         0.075145       0.000074
                                                         0.178617       0.063983
                                                         0.478316       0.058181
                                                         1.045457      -0.483570
                                                         2.625196       0.102028
                                                         6.132625       0.000000
                          1       9    5fxy2             0.030287      -0.000636
                                                         0.075145       0.000074
                                                         0.178617       0.063983
                                                         0.478316       0.058181
                                                         1.045457      -0.483570
                                                         2.625196       0.102028
                                                         6.132625       0.000000
                          1       9    5fxyz             0.030287      -0.001102
                                                         0.075145       0.000128
                                                         0.178617       0.110821
                                                         0.478316       0.100772
                                                         1.045457      -0.837569
                                                         2.625196       0.176718
                                                         6.132625       0.000000
                          1       9    5fxz2             0.030287      -0.000636
                                                         0.075145       0.000074
                                                         0.178617       0.063983
                                                         0.478316       0.058181
                                                         1.045457      -0.483570
                                                         2.625196       0.102028
                                                         6.132625       0.000000
                          1       9    5fy3              0.030287      -0.000285
                                                         0.075145       0.000033
                                                         0.178617       0.028614
                                                         0.478316       0.026019
                                                         1.045457      -0.216259
                                                         2.625196       0.045628
                                                         6.132625       0.000000
                          1       9    5fy2z             0.030287      -0.000636
                                                         0.075145       0.000074
                                                         0.178617       0.063983
                                                         0.478316       0.058181
                                                         1.045457      -0.483570
                                                         2.625196       0.102028
                                                         6.132625       0.000000
                          1       9    5fyz2             0.030287      -0.000636
                                                         0.075145       0.000074
                                                         0.178617       0.063983
                                                         0.478316       0.058181
                                                         1.045457      -0.483570
                                                         2.625196       0.102028
                                                         6.132625       0.000000
                          1       9    5fz3              0.030287      -0.000285
                                                         0.075145       0.000033
                                                         0.178617       0.028614
                                                         0.478316       0.026019
                                                         1.045457      -0.216259
                                                         2.625196       0.045628
                                                         6.132625       0.000000

       Atomic covalent radius [Angstrom]:                                  0.770

       Atomic van der Waals radius [Angstrom]:                             1.700

     GTH Potential information for                                       GTH-PBE

       Description:                       Goedecker-Teter-Hutter pseudopotential
                                           Goedecker et al., PRB 54, 1703 (1996)
                                          Hartwigsen et al., PRB 58, 3641 (1998)
                                                      Krack, TCA 114, 145 (2005)

       Gaussian exponent of the core charge distribution:               4.364419
       Electronic configuration (s p d ...):                               2   2

       Parameters of the local part of the GTH pseudopotential:

                          rloc        C1          C2          C3          C4
                        0.338471   -8.803674    1.339211

       Parameters of the non-local part of the GTH (SOC) pseudopotential:

                   l      r(l)      h(i,j,l)
                                    k(i,j,l)
                   0    0.302576    9.622487
                   1    0.291507    0.000000
                                    0.002073


 MOLECULE KIND INFORMATION


 All atoms are their own molecule, skipping detailed information


 TOTAL NUMBERS AND MAXIMUM NUMBERS

  Total number of            - Atomic kinds:                                   1
                             - Atoms:                                          4
                             - Shell sets:                                     4
                             - Shells:                                        36
                             - Primitive Cartesian functions:                 28
                             - Cartesian basis functions:                    136
                             - Spherical basis functions:                    116

  Maximum angular momentum of- Orbital basis functions:                        3
                             - Local part of the GTH pseudopotential:          2
                             - Non-local part of the GTH pseudopotential:      1


 MODULE QUICKSTEP: ATOMIC COORDINATES IN ANGSTROM

   Atom Kind Element         X             Y             Z       Z(eff)     Mass
      1    1 C     6      0.000000      0.000000      2.210198   4.0000  12.0107
      2    1 C     6      0.000000      0.000000      6.630593   4.0000  12.0107
      3    1 C     6     -0.000012      1.425237      2.210198   4.0000  12.0107
      4    1 C     6      1.234297      0.712608      6.630593   4.0000  12.0107



 SCF PARAMETERS         Density guess:                                    ATOMIC
                        --------------------------------------------------------
                        max_scf:                                             500
                        max_scf_history:                                       0
                        max_diis:                                              4
                        --------------------------------------------------------
                        eps_scf:                                        1.00E-09
                        eps_scf_history:                                0.00E+00
                        eps_diis:                                       1.00E-01
                        eps_eigval:                                     1.00E-05
                        --------------------------------------------------------
                        level_shift [a.u.]:                             0.000000
                        added MOs                                       108    0
                        --------------------------------------------------------
                        Mixing method:                            BROYDEN_MIXING
                                                charge density mixing in g-space
                        --------------------------------------------------------
                        No outer SCF

 PW_GRID| Information for grid number                                          1
 PW_GRID| Grid distributed over                                     8 processors
 PW_GRID| Real space group dimensions                                     8    1
 PW_GRID| the grid is blocked:                                                NO
 PW_GRID| Cutoff [a.u.]                                                    500.0
 PW_GRID| spherical cutoff:                                                   NO
 PW_GRID|   Bounds   1            -24      23                Points:          48
 PW_GRID|   Bounds   2            -24      23                Points:          48
 PW_GRID|   Bounds   3            -90      89                Points:         180
 PW_GRID| Volume element (a.u.^3)  0.7592E-03     Volume (a.u.^3)       314.8540
 PW_GRID| Grid span                                                    FULLSPACE
 PW_GRID|   Distribution                         Average         Max         Min
 PW_GRID|   G-Vectors                            51840.0       51840       51840
 PW_GRID|   G-Rays                                1080.0        1080        1080
 PW_GRID|   Real Space Points                    51840.0       51840       51840

 PW_GRID| Information for grid number                                          2
 PW_GRID| Number of the reference grid                                         1
 PW_GRID| Grid distributed over                                     8 processors
 PW_GRID| Real space group dimensions                                     8    1
 PW_GRID| the grid is blocked:                                                NO
 PW_GRID| Cutoff [a.u.]                                                    166.7
 PW_GRID| spherical cutoff:                                                   NO
 PW_GRID|   Bounds   1            -13      13                Points:          27
 PW_GRID|   Bounds   2            -13      13                Points:          27
 PW_GRID|   Bounds   3            -50      49                Points:         100
 PW_GRID| Volume element (a.u.^3)  0.4319E-02     Volume (a.u.^3)       314.8540
 PW_GRID| Grid span                                                    FULLSPACE
 PW_GRID|   Distribution                         Average         Max         Min
 PW_GRID|   G-Vectors                             9112.5       10152        7128
 PW_GRID|   G-Rays                                 337.5         376         264
 PW_GRID|   Real Space Points                     9112.5       10800        8100

 PW_GRID| Information for grid number                                          3
 PW_GRID| Number of the reference grid                                         1
 PW_GRID| Grid distributed over                                     8 processors
 PW_GRID| Real space group dimensions                                     8    1
 PW_GRID| the grid is blocked:                                                NO
 PW_GRID| Cutoff [a.u.]                                                     55.6
 PW_GRID| spherical cutoff:                                                   NO
 PW_GRID|   Bounds   1             -7       7                Points:          15
 PW_GRID|   Bounds   2             -7       7                Points:          15
 PW_GRID|   Bounds   3            -30      29                Points:          60
 PW_GRID| Volume element (a.u.^3)  0.2332E-01     Volume (a.u.^3)       314.8540
 PW_GRID| Grid span                                                    FULLSPACE
 PW_GRID|   Distribution                         Average         Max         Min
 PW_GRID|   G-Vectors                             1687.5        1725        1560
 PW_GRID|   G-Rays                                 112.5         115         104
 PW_GRID|   Real Space Points                     1687.5        1800         900

 PW_GRID| Information for grid number                                          4
 PW_GRID| Number of the reference grid                                         1
 PW_GRID| Grid distributed over                                     8 processors
 PW_GRID| Real space group dimensions                                     8    1
 PW_GRID| the grid is blocked:                                                NO
 PW_GRID| Cutoff [a.u.]                                                     18.5
 PW_GRID| spherical cutoff:                                                   NO
 PW_GRID|   Bounds   1             -4       4                Points:           9
 PW_GRID|   Bounds   2             -4       4                Points:           9
 PW_GRID|   Bounds   3            -18      17                Points:          36
 PW_GRID| Volume element (a.u.^3)  0.1080         Volume (a.u.^3)       314.8540
 PW_GRID| Grid span                                                    FULLSPACE
 PW_GRID|   Distribution                         Average         Max         Min
 PW_GRID|   G-Vectors                              364.5         396         342
 PW_GRID|   G-Rays                                  40.5          44          38
 PW_GRID|   Real Space Points                      364.5         648         324

 POISSON| Solver                                                        PERIODIC
 POISSON| Periodicity                                                        XYZ

 RS_GRID| Information for grid number                                          1
 RS_GRID|   Bounds   1            -24      23                Points:          48
 RS_GRID|   Bounds   2            -24      23                Points:          48
 RS_GRID|   Bounds   3            -90      89                Points:         180
 RS_GRID| Real space fully replicated
 RS_GRID| Group size                                                           1

 RS_GRID| Information for grid number                                          2
 RS_GRID|   Bounds   1            -13      13                Points:          27
 RS_GRID|   Bounds   2            -13      13                Points:          27
 RS_GRID|   Bounds   3            -50      49                Points:         100
 RS_GRID| Real space fully replicated
 RS_GRID| Group size                                                           1

 RS_GRID| Information for grid number                                          3
 RS_GRID|   Bounds   1             -7       7                Points:          15
 RS_GRID|   Bounds   2             -7       7                Points:          15
 RS_GRID|   Bounds   3            -30      29                Points:          60
 RS_GRID| Real space fully replicated
 RS_GRID| Group size                                                           1

 RS_GRID| Information for grid number                                          4
 RS_GRID|   Bounds   1             -4       4                Points:           9
 RS_GRID|   Bounds   2             -4       4                Points:           9
 RS_GRID|   Bounds   3            -18      17                Points:          36
 RS_GRID| Real space fully replicated
 RS_GRID| Group size                                                           1

 Number of electrons:                                                         16
 Number of occupied orbitals:                                                  8
 Number of molecular orbitals:                                               116

 Number of orbital functions:                                                116
 Number of independent orbital functions:                                    116

 Extrapolation method: initial_guess

 Atomic guess: The first density matrix is obtained in terms of atomic orbitals
               and electronic configurations assigned to each atomic kind

 Guess for atomic kind: C

 Electronic structure
    Total number of core electrons                                          2.00
    Total number of valence electrons                                       4.00
    Total number of electrons                                               6.00
    Multiplicity                                                   not specified
    S   [  2.00] 2.00
    P      2.00


 *******************************************************************************
                  Iteration          Convergence                     Energy [au]
 *******************************************************************************
                          1        0.847059E-01                  -5.270330147850
                          2        0.545415E-01                  -5.275201085285
                          3        0.656048E-03                  -5.278694674138
                          4        0.207053E-04                  -5.278695036098
                          5        0.945082E-08                  -5.278695036628

 Energy components [Hartree]           Total Energy ::           -5.278695036628
                                        Band Energy ::           -1.293837271012
                                     Kinetic Energy ::            3.406861322814
                                   Potential Energy ::           -8.685556359442
                                      Virial (-V/T) ::            2.549430556882
                                        Core Energy ::           -8.303656916162
                                          XC Energy ::           -1.384218149142
                                     Coulomb Energy ::            4.409180028677
                       Total Pseudopotential Energy ::          -11.744785124617
                       Local Pseudopotential Energy ::          -12.344468476380
                    Nonlocal Pseudopotential Energy ::            0.599683351762
                                        Confinement ::            0.342668856411

 Orbital energies  State     L     Occupation   Energy[a.u.]          Energy[eV]

                       1     0          2.000      -0.478272          -13.014454

                       1     1          2.000      -0.168646           -4.589097


 Total Electron Density at R=0:                                         0.000043
 Re-scaling the density matrix to get the right number of electrons
                  # Electrons              Trace(P)               Scaling factor
                           16                16.000                        1.000


 SCF WAVEFUNCTION OPTIMIZATION

  Step     Update method      Time    Convergence         Total energy    Change
  ------------------------------------------------------------------------------
     1 NoMix/Diag. 0.50E-01   35.9     0.76012824       -22.9168970371 -2.29E+01
     2 Broy./Diag. 0.50E-01   39.6     0.01038515       -20.3701967613  2.55E+00
     3 Broy./Diag. 0.50E-01   39.6     0.19759097       -21.9099616318 -1.54E+00
     4 Broy./Diag. 0.50E-01   39.8     0.00146907       -22.5812347441 -6.71E-01
     5 Broy./Diag. 0.50E-01   39.7     0.04101461       -22.6292681798 -4.80E-02
     6 Broy./Diag. 0.50E-01   39.8     0.00206550       -22.7306357442 -1.01E-01
     7 Broy./Diag. 0.50E-01   39.7     0.03341629       -22.7410139513 -1.04E-02
     8 Broy./Diag. 0.50E-01   39.7     0.00166799       -22.7808569595 -3.98E-02
     9 Broy./Diag. 0.50E-01   39.7     0.01184271       -22.7864955401 -5.64E-03
    10 Broy./Diag. 0.50E-01   39.7     0.00045471       -22.7919325131 -5.44E-03
    11 Broy./Diag. 0.50E-01   39.7     0.00050901       -22.7905230303  1.41E-03
    12 Broy./Diag. 0.50E-01   39.8     0.00063624       -22.7892014239  1.32E-03
    13 Broy./Diag. 0.50E-01   39.6     0.00002185       -22.7891869791  1.44E-05
    14 Broy./Diag. 0.50E-01   39.8     0.00020899       -22.7892628713 -7.59E-05
    15 Broy./Diag. 0.50E-01   39.5     0.00000886       -22.7893104442 -4.76E-05
    16 Broy./Diag. 0.50E-01   39.5     0.00002093       -22.7892936712  1.68E-05
    17 Broy./Diag. 0.50E-01   39.6     0.00001711       -22.7893243161 -3.06E-05
    18 Broy./Diag. 0.50E-01   39.6     0.00000424       -22.7893268673 -2.55E-06
    19 Broy./Diag. 0.50E-01   39.6     0.00000564       -22.7893406315 -1.38E-05
    20 Broy./Diag. 0.50E-01   39.5     0.00000635       -22.7893545898 -1.40E-05
    21 Broy./Diag. 0.50E-01   39.7     0.00000190       -22.7893531043  1.49E-06
    22 Broy./Diag. 0.50E-01   39.6     0.00000160       -22.7893456772  7.43E-06
    23 Broy./Diag. 0.50E-01   39.7     0.00000379       -22.7893380018  7.68E-06
    24 Broy./Diag. 0.50E-01   39.7     0.00000066       -22.7893348293  3.17E-06
    25 Broy./Diag. 0.50E-01   39.6     0.00000308       -22.7893345408  2.88E-07
    26 Broy./Diag. 0.50E-01   39.6     0.00000266       -22.7893346586 -1.18E-07
    27 Broy./Diag. 0.50E-01   39.5     0.00000219       -22.7893341026  5.56E-07
    28 Broy./Diag. 0.50E-01   39.7     0.00000108       -22.7893329751  1.13E-06
    29 Broy./Diag. 0.50E-01   39.7     0.00000120       -22.7893328864  8.87E-08
    30 Broy./Diag. 0.50E-01   39.5     0.00000165       -22.7893326651  2.21E-07
    31 Broy./Diag. 0.50E-01   39.7     0.00000073       -22.7893324290  2.36E-07
    32 Broy./Diag. 0.50E-01   39.6     0.00000166       -22.7893326232 -1.94E-07
    33 Broy./Diag. 0.50E-01   39.8     0.00000159       -22.7893327532 -1.30E-07
    34 Broy./Diag. 0.50E-01   39.6     0.00000041       -22.7893328933 -1.40E-07
    35 Broy./Diag. 0.50E-01   39.5     0.00000008       -22.7893331097 -2.16E-07
    36 Broy./Diag. 0.50E-01   39.7     0.00000002       -22.7893331682 -5.85E-08
    37 Broy./Diag. 0.50E-01   39.5     0.00000005       -22.7893330416  1.27E-07
    38 Broy./Diag. 0.50E-01   39.6     7.5432E-09       -22.7893329736  6.80E-08
    39 Broy./Diag. 0.50E-01   39.6     0.00000002       -22.7893329808 -7.24E-09
    40 Broy./Diag. 0.50E-01   39.5     0.00000003       -22.7893330179 -3.71E-08
    41 Broy./Diag. 0.50E-01   39.6     2.2720E-09       -22.7893330231 -5.15E-09
    42 Broy./Diag. 0.50E-01   39.5     6.4576E-09       -22.7893330269 -3.85E-09
    43 Broy./Diag. 0.50E-01   39.5     1.7360E-09       -22.7893330240  2.87E-09
    44 Broy./Diag. 0.50E-01   39.6     3.6245E-09       -22.7893330176  6.44E-09
    45 Broy./Diag. 0.50E-01   39.6     1.0638E-09       -22.7893330159  1.66E-09
    46 Broy./Diag. 0.50E-01   39.6     1.2226E-09       -22.7893330159  2.45E-11
    47 Broy./Diag. 0.50E-01   39.5     1.9798E-09       -22.7893330159  5.68E-13
    48 Broy./Diag. 0.50E-01   39.5     5.0401E-11       -22.7893330159  4.82E-11

  *** SCF run converged in    48 steps ***


  Electronic density on regular grids:        -16.0000000000       -0.0000000000
  Core density on regular grids:               16.0000000000        0.0000000000
  Total charge density on r-space grids:       -0.0000000000
  Total charge density g-space grids:          -0.0000000000

  Overlap energy of the core charge distribution:               0.00000065508197
  Self energy of the core charge distribution:                -53.34003170706085
  Core Hamiltonian energy:                                     16.69837567578410
  Hartree energy:                                              20.85439854780233
  Exchange-correlation energy:                                 -7.00207618747654

  Total energy:                                               -22.78933301586898

 !-----------------------------------------------------------------------------!
                     Mulliken Population Analysis

 #  Atom  Element  Kind  Atomic population                           Net charge
       1     C        1          4.000847                             -0.000847
       2     C        1          4.000847                             -0.000847
       3     C        1          3.999153                              0.000847
       4     C        1          3.999153                              0.000847
 # Total charge                             16.000000                 -0.000000

 !-----------------------------------------------------------------------------!

 !-----------------------------------------------------------------------------!
                           Hirshfeld Charges

  #Atom  Element  Kind  Ref Charge     Population                    Net charge
      1       C      1       4.000          4.000                         0.000
      2       C      1       4.000          4.000                         0.000
      3       C      1       4.000          4.000                        -0.000
      4       C      1       4.000          4.000                        -0.000

  Total Charge                                                           -0.000
 !-----------------------------------------------------------------------------!

 KPOINTS| Band Structure Calculation
 KPOINTS| Number of k-point sets                                               1
 KPOINTS| Number of added MOs/bands                                           -1
 KPOINTS| Number of k-points in set    1                                     148
 KPOINTS| In units of b-vector [2pi/Bohr]
 KPOINTS| Special point     1 not specifi     0.000000     0.000000     0.000000
 KPOINTS| Special point     2 not specifi     0.500000     0.000000     0.000000
 KPOINTS| Special point     3 not specifi     0.333333     0.333333     0.000000
 KPOINTS| Special point     4 not specifi     0.000000     0.000000     0.000000
 KPOINTS| Time for k-point line                                           12.817

 ENERGY| Total FORCE_EVAL ( QS ) energy [hartree]            -22.789333015868984

 -------------------------------------------------------------------------------
 -                                                                             -
 -                                DBCSR STATISTICS                             -
 -                                                                             -
 -------------------------------------------------------------------------------
 COUNTER                                    TOTAL       BLAS       SMM       ACC
 flops inhomo. stacks                           0       0.0%      0.0%      0.0%
 flops total                         0.000000E+00       0.0%      0.0%      0.0%
 flops max/rank                      0.000000E+00       0.0%      0.0%      0.0%
 matmuls inhomo. stacks                         0       0.0%      0.0%      0.0%
 matmuls total                                  0       0.0%      0.0%      0.0%
 number of processed stacks                     0       0.0%      0.0%      0.0%
 average stack size                                     0.0       0.0       0.0
 marketing flops                     0.000000E+00
 -------------------------------------------------------------------------------
 -                                                                             -
 -                      DBCSR MESSAGE PASSING PERFORMANCE                      -
 -                                                                             -
 -------------------------------------------------------------------------------
 ROUTINE             CALLS      AVE VOLUME [Bytes]
 MP_Bcast                1                     12.
 MP_Allreduce           19                     21.
 MP_Alltoall       1259780                   5934.
 -------------------------------------------------------------------------------

 -------------------------------------------------------------------------------
 -                                                                             -
 -                                DBM STATISTICS                               -
 -                                                                             -
 -------------------------------------------------------------------------------
    M  x    N  x    K                                          COUNT     PERCENT
 -------------------------------------------------------------------------------

 -------------------------------------------------------------------------------
 -                                                                             -
 -                                GRID STATISTICS                              -
 -                                                                             -
 -------------------------------------------------------------------------------
 LP    KERNEL             BACKEND                              COUNT     PERCENT
 6     collocate general  CPU                               10125556      50.52%
 6     integrate general  CPU                                9918912      49.48%
 0     collocate general  CPU                                      8       0.00%
 0     integrate general  CPU                                      4       0.00%
 -------------------------------------------------------------------------------

 MEMORY| Estimated peak process memory [MiB]                                1169

 -------------------------------------------------------------------------------
 ----                             MULTIGRID INFO                            ----
 -------------------------------------------------------------------------------
 count for grid        1:          65818          cutoff [a.u.]          500.00
 count for grid        2:          76704          cutoff [a.u.]          166.67
 count for grid        3:          87800          cutoff [a.u.]           55.56
 count for grid        4:         210568          cutoff [a.u.]           18.52
 total gridlevel count  :         440890

 -------------------------------------------------------------------------------
 -                                                                             -
 -                         MESSAGE PASSING PERFORMANCE                         -
 -                                                                             -
 -------------------------------------------------------------------------------

 ROUTINE             CALLS      AVE VOLUME [Bytes]
 MP_Group                6
 MP_Bcast           446122                    604.
 MP_Allreduce       969709                     20.
 MP_Sync                 4
 MP_Alltoall           869                2286518.
 MP_SendRecv          1386                 133050.
 MP_ISendRecv         1351                 131650.
 MP_Wait            307995
 MP_comm_split           4
 MP_ISend           325964                   3079.
 MP_IRecv           520832                   1930.
 -------------------------------------------------------------------------------


 -------------------------------------------------------------------------------
 -                                                                             -
 -                           R E F E R E N C E S                               -
 -                                                                             -
 -------------------------------------------------------------------------------
 
 CP2K version 2025.1 (Development Version), the CP2K developers group (2025).
 CP2K is freely available from https://www.cp2k.org/ .
 
 T. D. Kuehne, M. Iannuzzi, M. Del Ben, V. V. Rybkin, P. Seewald, F. Stein, T. 
 Laino, R. Z. Khaliullin, O. Schuett, F. Schiffmann, D. Golze, J. Wilhelm, S. 
 Chulkov, M. H. Bani-Hashemian, V. Weber, U. Borstnik, M. Taillefumier, A. S. 
 Jakobovits, A. Lazzaro, H. Pabst, T. Mueller, R. Schade, M. Guidon, S. 
 Andermatt, N. Holmberg, G. K. Schenter, A. Hehn, A. Bussy, F. Belleflamme, G. 
 Tabacchi, A. Gloess, M. Lass, I. Bethune, C. J. Mundy, C. Plessl, M. Watkins, 
 J. VandeVondele, M. Krack, J. Hutter.
 J. Chem. Phys. 152, 194103 (2020).
 CP2K: An electronic structure and molecular dynamics software package - 
 Quickstep: Efficient and accurate electronic structure calculations.
 https://doi.org/10.1063/5.0007045

 O. Schuett, P. Messmer, J. Hutter, J. VandeVondele.
 Electronic Structure Calculations on Graphics Processing Units, 173-190 (2016).
 GPU-Accelerated Sparse Matrix-Matrix Multiplication for Linear Scaling Density 
 Functional Theory.
 https://doi.org/10.1002/9781118670712.ch8

 J. Hutter, M. Iannuzzi, F. Schiffmann, J. VandeVondele.
 WIREs Comput Mol Sci. 4, 15-25 (2014).
 CP2K: atomistic simulations of condensed matter systems.
 https://doi.org/10.1002/wcms.1159

 U. Borstnik, J. VandeVondele, V. Weber, J. Hutter.
 Parallel Comput. 40, 47-58 (2014).
 Sparse matrix multiplication: The distributed block-compressed sparse row 
 library.
 https://doi.org/10.1016/j.parco.2014.03.012

 J. VandeVondele, J. Hutter.
 J. Chem. Phys. 127, 114105 (2007).
 Gaussian basis sets for accurate calculations on molecular systems in gas and 
 condensed phases.
 https://doi.org/10.1063/1.2770708

 J. VandeVondele, M. Krack, F. Mohamed, M. Parrinello, T. Chassaing, J. Hutter.
 Comput. Phys. Commun. 167, 103-128 (2005).
 QUICKSTEP: Fast and accurate density functional calculations using a mixed 
 Gaussian and plane waves approach.
 https://doi.org/10.1016/j.cpc.2004.12.014

 M. Krack.
 Theor. Chem. Acc. 114, 145-152 (2005).
 Pseudopotentials for H to Kr optimized for gradient-corrected 
 exchange-correlation functionals.
 https://doi.org/10.1007/s00214-005-0655-y

 M. Frigo, S. G. Johnson.
 Proc. IEEE 93, 216-231 (2005).
 The design and implementation of FFTW3.
 https://doi.org/10.1109/JPROC.2004.840301

 C. Hartwigsen, S. Goedecker, J. Hutter.
 Phys. Rev. B 58, 3641-3662 (1998).
 Relativistic separable dual-space Gaussian pseudopotentials from H to Rn.
 https://doi.org/10.1103/PhysRevB.58.3641

 G. Lippert, J. Hutter, M. Parrinello.
 Mol. Phys. 92, 477-487 (1997).
 A hybrid Gaussian and plane wave density functional scheme.
 https://doi.org/10.1080/002689797170220

 S. Goedecker, M. Teter, J. Hutter.
 Phys. Rev. B 54, 1703-1710 (1996).
 Separable dual-space Gaussian pseudopotentials.
 https://doi.org/10.1103/PhysRevB.54.1703

 J. P. Perdew, K. Burke, M. Ernzerhof.
 Phys. Rev. Lett. 77, 3865-3868 (1996).
 Generalized gradient approximation made simple.
 https://doi.org/10.1103/PhysRevLett.77.3865


 -------------------------------------------------------------------------------
 -                                                                             -
 -                                T I M I N G                                  -
 -                                                                             -
 -------------------------------------------------------------------------------
 SUBROUTINE                       CALLS  ASD         SELF TIME        TOTAL TIME
                                MAXIMUM       AVERAGE  MAXIMUM  AVERAGE  MAXIMUM
 CP2K                                 1  1.0    0.039    0.045 1973.615 1973.615
 qs_energies                          1  2.0    0.026    0.066 1973.315 1973.338
 scf_env_do_scf                       1  3.0    0.000    0.000 1918.843 1918.843
 scf_env_do_scf_inner_loop           48  4.0    0.292    0.311 1918.843 1918.843
 do_general_diag_kp                  49  5.9    0.343    0.355 1606.936 1631.859
 qs_scf_new_mos_kp                   48  5.0    0.000    0.001 1594.299 1619.211
 rskp_transform                   24872  7.0  622.245  992.113  622.245  992.113
 mp_alltoall_i22                 214158  8.7  628.722  841.036  628.722  841.036
 dbcsr_desymmetrize_deep         119663  7.4    2.199    2.278  461.845  614.336
 kpoint_density_transform            48  7.0    0.337    0.349  486.076  486.804
 transform_dmat                   12288  8.0  293.210  468.733  293.210  468.733
 dbcsr_complete_redistribute      94495  8.0    3.975    4.079  208.642  270.375
 copy_fm_to_dbcsr                 24576  8.0    0.175    0.181  185.898  247.045
 qs_ks_update_qs_env                 48  5.0    0.000    0.000  135.909  208.892
 rebuild_ks_matrix                   48  6.0    0.000    0.000  125.129  198.112
 qs_ks_build_kohn_sham_matrix        48  7.0    0.551    0.561  125.128  198.112
 sum_up_and_integrate                48  8.0    0.001    0.001  121.106  194.083
 integrate_v_rspace                  48  9.0    0.832    1.312  121.103  194.081
 grid_integrate_task_list            48 10.0  119.814  192.322  119.814  192.322
 qs_rho_update_rho_low               49  5.0    0.000    0.000  164.420  164.664
 calculate_rho_elec                  49  6.0    0.128    0.201  164.420  164.664
 grid_collocate_task_list            49  7.0  101.559  163.512  101.559  163.512
 transfer_rs2pw                     198  8.0    0.002    0.003   71.719   95.774
 transfer_rs2pw_500                  51  8.9    0.090    0.095   71.656   95.708
 mp_sendrecv_dv                    1386 10.0   71.608   95.661   71.608   95.661
 density_rs2pw                       49  7.0    0.002    0.002   62.731   83.585
 copy_dbcsr_to_fm                 69919  6.7    0.794    0.822   41.353   42.865
 qs_energies_init_hamiltonians        1  3.0    0.000    0.000   28.561   28.561
 build_core_hamiltonian_matrix        1  4.0    0.024    0.025   15.879   25.037
 cp_dbcsr_alloc_block_from_nbl    47365  5.0   13.498   21.480   13.968   22.174
 write_kpoints_restart               48  5.0    0.148    0.174   17.435   17.435
 qs_env_update_s_mstruct              1  4.0    0.000    0.000   11.308   14.080
 dbcsr_dot                       645601  8.0    3.965    4.831   12.640   13.459
 calculate_rho_core                   1  5.0    0.001    0.001    9.169   12.372
 build_core_ppnl                      1  5.0    7.341   11.661    7.341   11.661
 cp_fm_start_copy_general         74320  7.3    1.927    2.425   11.117   11.291
 evaluate_core_matrix_traces         48  6.0    0.000    0.000   10.780   10.780
 calculate_ptrace_kp                 96  7.0    0.481    0.490   10.779   10.780
 mp_sum_d                        646407  9.0    8.086    9.625    8.086    9.625
 dbcsr_finalize                  322338  7.8    1.284    1.477    8.717    9.160
 mp_alltoall_d11v                642474  9.2    7.983    8.339    7.983    8.339
 cp_cfm_geeig                      1573  6.9    0.014    0.015    8.140    8.275
 dbcsr_create_new               1001668  7.6    5.648    6.810    6.224    7.389
 cp_fm_write_unformatted          20175  6.0    4.385    6.543    5.086    7.285
 self_consistency_check              48  5.0    0.458    0.469    6.644    6.900
 init_scf_run                         1  3.0    0.000    0.000    5.725    6.543
 scf_env_initial_rho_setup            1  4.0    0.000    0.000    5.725    6.543
 mp_allgather_i                  148640  8.3    6.192    6.540    6.192    6.540
 mixing_allocate                      1  3.0    0.039    0.040    4.072    6.411
 cp_cfm_heevd                      1573  7.9    0.002    0.003    6.202    6.304
 cp_cfm_heevd_base                 1573  8.9    6.199    6.301    6.199    6.301
 dbcsr_copy                      676901  6.6    4.346    4.549    6.060    6.271
 cp_sm_mix                       322800  6.0    1.584    2.034    5.459    5.788
 mp_cart_sub                     139840  8.7    5.723    5.746    5.723    5.746
 dbcsr_merge_all                  94495 10.0    2.881    3.180    5.011    5.330
 hybrid_alltoall_any             119663  8.4    0.515    0.529    4.511    4.739
 mp_alltoall_i11v                403148  8.8    4.049    4.213    4.049    4.213
 mp_max_d                        322802  7.0    3.127    3.599    3.127    3.599
 mp_cart_create                   69926  8.7    3.390    3.438    3.390    3.438
 build_kinetic_matrix_low             1  5.0    0.149    0.235    2.149    3.405
 build_overlap_matrix_low             1  5.0    0.146    0.206    2.147    3.379
 build_core_ppl                       1  5.0    2.073    3.254    2.073    3.254
 qs_env_rebuild_rho                   1  5.0    0.000    0.000    2.034    3.204
 qs_rho_rebuild                       1  6.0    0.019    0.020    2.034    3.204
 calculate_first_density_matrix       1  5.0    0.004    0.004    2.365    3.183
 calculate_atomic_block_dm            1  6.0    0.001    0.001    2.345    3.165
 dbcsr_iterator_start           1560541  8.5    2.348    2.371    2.815    2.850
 copy_fm_to_dbcsr_bc              24576  9.0    0.381    0.397    1.728    2.650
 mp_send_dv                       20175  7.0    0.608    2.447    0.608    2.447
 dbcsr_work_create               214158  8.7    1.335    1.358    2.350    2.385
 dbcsr_set                       830382  7.1    0.742    0.750    1.749    2.184
 mp_bcast_iv                     297303  8.3    1.848    2.095    1.848    2.095
 dbcsr_iterator_stop            1560541  8.5    1.632    1.654    1.948    1.963
 dbcsr_data_new                 2384075  9.5    1.652    1.738    1.652    1.738
 copy_dbcsr_to_fm_bc              69919  7.7    0.788    0.817    1.697    1.715
 dbcsr_work_destroy_all          214158  9.7    1.045    1.055    1.653    1.683
 calculate_ecore_overlap              1  4.0    0.000    0.000    1.237    1.669
 tree_to_linear_d                 94495 11.0    1.607    1.666    1.607    1.666
 mp_sum_iv                           24  5.3    1.155    1.580    1.155    1.580
 qs_scf_ensure_work_matrices          1  3.0    0.000    0.000    1.155    1.580
 dbcsr_data_release             4183942  9.8    1.494    1.532    1.494    1.532
 cp_fm_finish_copy_general        30868  7.8    1.345    1.364    1.435    1.460
 dbcsr_zero                      830382  8.1    1.007    1.438    1.007    1.438
 fft_wrap_pw1pw2                    869 10.0    0.008    0.008    0.936    1.221
 cp_cfm_triangular_multiply        4719  7.9    1.152    1.172    1.152    1.172
 fft_wrap_pw1pw2_500                578 11.3    0.052    0.054    0.857    1.141
 dbcsr_destroy                   356068  7.4    0.619    0.626    1.116    1.138
 fft3d_ps                           869 12.0    0.252    0.254    0.785    1.070
 dbcsr_reserve_blocks             71941  7.7    0.590    0.803    0.653    0.870
 kpoint_density_matrices             48  7.0    0.035    0.036    0.838    0.856
 parallel_gemm_fm                  6144  8.0    0.006    0.006    0.775    0.793
 parallel_gemm_fm_gemm             6144  9.0    0.006    0.006    0.769    0.787
 cp_fm_gemm                        6144 10.0    0.763    0.781    0.763    0.781
 mp_alltoall_z22v                   869 14.0    0.467    0.757    0.467    0.757
 potential_pw2rs                     48 10.0    0.003    0.003    0.457    0.743
 mp_recv_dv                       60525  7.0    0.093    0.742    0.093    0.742
 dbcsr_copy_into_existing         31301  9.1    0.394    0.525    0.579    0.708
 quick_finalize                  119663  9.4    0.395    0.404    0.693    0.703
 mp_bcast_im                     148640  8.3    0.555    0.631    0.555    0.631
 mp_waitall_1                    307995  8.3    0.344    0.582    0.344    0.582
 yz_to_x                            389 12.8    0.020    0.021    0.291    0.580
 qs_vxc_create                       48  8.0    0.001    0.001    0.547    0.548
 xc_vxc_pw_create                    48  9.0    0.022    0.022    0.546    0.547
 mp_comm_free                    209800  8.7    0.520    0.541    0.520    0.541
 gspace_mixing                       47  5.0    0.018    0.018    0.488    0.488
 dbcsr_iterator_seek            1560541  9.5    0.467    0.482    0.467    0.482
 dbcsr_make_index_exist         1001668  8.6    0.419    0.430    0.419    0.430
 broyden_mixing                      47  6.0    0.390    0.398    0.403    0.404
 mp_isend_dv                      74912  8.3    0.372    0.393    0.372    0.393
 cp_cfm_cholesky_decompose         1573  7.9    0.378    0.389    0.378    0.389
 xc_pw_derive                       288 11.0    0.001    0.001    0.354    0.356
 cp_cfm_triangular_invert          1573  7.9    0.348    0.353    0.348    0.353
 kpoint_set_mo_occupation            48  7.0    0.087    0.088    0.281    0.338
 dbcsr_sort_indices              286099 10.2    0.289    0.300    0.289    0.300
 xc_rho_set_and_dset_create          48 10.0    0.013    0.015    0.288    0.291
 dbcsr_reserve_all_blocks         24576 10.0    0.049    0.052    0.251    0.266
 mp_sum_dm3                          48  8.0    0.194    0.251    0.194    0.251
 kpoint_init_cell_index               2  3.5    0.218    0.239    0.241    0.244
 x_to_yz                            480 13.2    0.040    0.043    0.236    0.242
 xc_pw_divergence                    48 10.0    0.000    0.001    0.231    0.234
 transfer_pw2rs                     193 11.0    0.001    0.001    0.226    0.226
 dbcsr_data_copy_aa2              94495 11.0    0.180    0.204    0.180    0.204
 merge_index                      94495 11.0    0.191    0.203    0.191    0.203
 -------------------------------------------------------------------------------

 The number of warnings for this run is : 1
 
 -------------------------------------------------------------------------------
  **** **** ******  **  PROGRAM ENDED AT                 2025-08-05 02:14:39.974
 ***** ** ***  *** **   PROGRAM RAN ON                              i03r09c01s08
 **    ****   ******    PROGRAM RAN BY                                   di38fab
 ***** **    ** ** **   PROGRAM PROCESS ID                                526871
  **** **  *******  **  PROGRAM STOPPED IN /hppfs/scratch/04/di38fab/09_GTH/Delt
                                           a_Set/C/aug-DZVP-MOLOPT-GTH-tier-2/8x
                                           8x8
