 DBCSR| CPU Multiplication driver                                           BLAS (U)
 DBCSR| Multrec recursion limit                                              512 (U)
 DBCSR| Multiplication stack size                                           1000 (D)
 DBCSR| Maximum elements for images                                    UNLIMITED (U)
 DBCSR| Multiplicative factor virtual images                                   1 (U)
 DBCSR| Use multiplication densification                                       T (D)
 DBCSR| Multiplication size stacks                                             3 (U)
 DBCSR| Use memory pool for CPU allocation                                     F (U)
 DBCSR| Number of 3D layers                                               SINGLE (U)
 DBCSR| Use MPI memory allocation                                              F (U)
 DBCSR| Use RMA algorithm                                                      F (U)
 DBCSR| Use Communication thread                                               T (U)
 DBCSR| Communication thread load                                             45 (D)
 DBCSR| MPI: My process id                                                     0
 DBCSR| MPI: Number of processes                                               8
 DBCSR| OMP: Current number of threads                                        12
 DBCSR| OMP: Max number of threads                                            12
 DBCSR| Split modifier for TAS multiplication algorithm                  1.0E+00 (U)


  **** **** ******  **  PROGRAM STARTED AT               2025-08-04 15:28:35.619
 ***** ** ***  *** **   PROGRAM STARTED ON                          i01r02c01s11
 **    ****   ******    PROGRAM STARTED BY                               di38fab
 ***** **    ** ** **   PROGRAM PROCESS ID                               2385659
  **** **  *******  **  PROGRAM STARTED IN /hppfs/scratch/04/di38fab/09_GTH/Delt
                                           a_Set/N/aug-SZV-MOLOPT-GTH-tier-2-SR/
                                           8x8x8

 CP2K| version string:                 CP2K version 2025.1 (Development Version)
 CP2K| source code revision number:                                  git:3130539
 CP2K| cp2kflags: omp libint fftw3 libxc parallel scalapack max_contr=4         
 CP2K| is freely available from                            https://www.cp2k.org/
 CP2K| Program compiled at                         Tue Jun  3 16:14:32 CEST 2025
 CP2K| Program compiled on                                               login01
 CP2K| Program compiled for                                        Supermuc-foss
 CP2K| Data directory path                  /hppfs/work/pn36zo/di38fab/cp2k/data
 CP2K| Input file name                                                    GW.inp

 GLOBAL| Force Environment number                                              1
 GLOBAL| Basis set file name            /hppfs/scratch/04/di38fab/09_GTH/BASIS_A
 GLOBAL| Potential file name            /hppfs/work/pn36zo/di38fab/cp2k/data/GTH
 GLOBAL| MM Potential file name                                     MM_POTENTIAL
 GLOBAL| Coordinate file name                                              N.cif
 GLOBAL| Method name                                                        CP2K
 GLOBAL| Project name                                                       WSe2
 GLOBAL| Run type                                                         ENERGY
 GLOBAL| FFT library                                                       FFTW3
 GLOBAL| Diagonalization library                                       ScaLAPACK
 GLOBAL| Cholesky decomposition library                                ScaLAPACK
 GLOBAL| DGEMM library                                                      BLAS
 GLOBAL| Orthonormality check for eigenvectors                          DISABLED
 GLOBAL| Matrix multiplication library                                 ScaLAPACK
 GLOBAL| All-to-all communication in single precision                          F
 GLOBAL| FFTs using library dependent lengths                                  F
 GLOBAL| Grid backend                                                       AUTO
 GLOBAL| Global print level                                               MEDIUM
 GLOBAL| MPI I/O enabled                                                       T
 GLOBAL| Total number of message passing processes                             8
 GLOBAL| Number of threads for this process                                   12
 GLOBAL| This output is from process                                           0
 GLOBAL| OpenMP stack size per thread (OMP_STACKSIZE)                    default
 GLOBAL| CPU model name             Intel(R) Xeon(R) Platinum 8174 CPU @ 3.10GHz

 MEMORY| system memory details [Kb]
 MEMORY|                        rank 0           min           max       average
 MEMORY| MemTotal             98436664      98436660      98436664      98436662
 MEMORY| MemFree              85014196      84764428      85014196      84889312
 MEMORY| Buffers                     0             0             0             0
 MEMORY| Cached                2346808       2346808       2351976       2349392
 MEMORY| Slab                  1164360       1164360       1269568       1216964
 MEMORY| SReclaimable           261468        261468        279348        270408
 MEMORY| MemLikelyFree        87622472      87395752      87622472      87509112


 *** Fundamental physical constants (SI units) ***

 *** Literature: B. J. Mohr and B. N. Taylor,
 ***             CODATA recommended values of the fundamental physical
 ***             constants: 2006, Web Version 5.1
 ***             http://physics.nist.gov/constants

 Speed of light in vacuum [m/s]                             2.99792458000000E+08
 Magnetic constant or permeability of vacuum [N/A**2]       1.25663706143592E-06
 Electric constant or permittivity of vacuum [F/m]          8.85418781762039E-12
 Planck constant (h) [J*s]                                  6.62606896000000E-34
 Planck constant (h-bar) [J*s]                              1.05457162825177E-34
 Elementary charge [C]                                      1.60217648700000E-19
 Electron mass [kg]                                         9.10938215000000E-31
 Electron g factor [ ]                                     -2.00231930436220E+00
 Proton mass [kg]                                           1.67262163700000E-27
 Fine-structure constant                                    7.29735253760000E-03
 Rydberg constant [1/m]                                     1.09737315685270E+07
 Avogadro constant [1/mol]                                  6.02214179000000E+23
 Boltzmann constant [J/K]                                   1.38065040000000E-23
 Atomic mass unit [kg]                                      1.66053878200000E-27
 Bohr radius [m]                                            5.29177208590000E-11

 *** Conversion factors ***

 [u] -> [a.u.]                                              1.82288848426455E+03
 [Angstrom] -> [Bohr] = [a.u.]                              1.88972613288564E+00
 [a.u.] = [Bohr] -> [Angstrom]                              5.29177208590000E-01
 [a.u.] -> [s]                                              2.41888432650478E-17
 [a.u.] -> [fs]                                             2.41888432650478E-02
 [a.u.] -> [J]                                              4.35974393937059E-18
 [a.u.] -> [N]                                              8.23872205491840E-08
 [a.u.] -> [K]                                              3.15774647902944E+05
 [a.u.] -> [kJ/mol]                                         2.62549961709828E+03
 [a.u.] -> [kcal/mol]                                       6.27509468713739E+02
 [a.u.] -> [Pa]                                             2.94210107994716E+13
 [a.u.] -> [bar]                                            2.94210107994716E+08
 [a.u.] -> [atm]                                            2.90362800883016E+08
 [a.u.] -> [eV]                                             2.72113838565563E+01
 [a.u.] -> [Hz]                                             6.57968392072181E+15
 [a.u.] -> [1/cm] (wave numbers)                            2.19474631370540E+05
 [a.u./Bohr**2] -> [1/cm]                                   5.14048714338585E+03
 

 CELL_TOP| Volume [angstrom^3]:                                       237.198500
 CELL_TOP| Vector a [angstrom     6.190     0.000     0.000   |a| =     6.190190
 CELL_TOP| Vector b [angstrom     0.000     6.190     0.000   |b| =     6.190190
 CELL_TOP| Vector c [angstrom     0.000     0.000     6.190   |c| =     6.190190
 CELL_TOP| Angle (b,c), alpha [degree]:                                90.000000
 CELL_TOP| Angle (a,c), beta  [degree]:                                90.000000
 CELL_TOP| Angle (a,b), gamma [degree]:                                90.000000
 CELL_TOP| Numerically orthorhombic:                                         YES
 CELL_TOP| Periodicity                                                       XYZ

 CELL_CIF| Volume [angstrom^3]:                                       237.198500
 CELL_CIF| Vector a [angstrom     6.190     0.000     0.000   |a| =     6.190190
 CELL_CIF| Vector b [angstrom     0.000     6.190     0.000   |b| =     6.190190
 CELL_CIF| Vector c [angstrom     0.000     0.000     6.190   |c| =     6.190190
 CELL_CIF| Angle (b,c), alpha [degree]:                                90.000000
 CELL_CIF| Angle (a,c), beta  [degree]:                                90.000000
 CELL_CIF| Angle (a,b), gamma [degree]:                                90.000000
 CELL_CIF| Numerically orthorhombic:                                         YES
 CELL_CIF| Periodicity                                                       XYZ

 GENERATE|  Preliminary Number of Bonds generated:                             0
 GENERATE|  Achieved consistency in connectivity generation.

 CELL| Volume [angstrom^3]:                                           237.198500
 CELL| Vector a [angstrom]:       6.190     0.000     0.000   |a| =     6.190190
 CELL| Vector b [angstrom]:       0.000     6.190     0.000   |b| =     6.190190
 CELL| Vector c [angstrom]:       0.000     0.000     6.190   |c| =     6.190190
 CELL| Angle (b,c), alpha [degree]:                                    90.000000
 CELL| Angle (a,c), beta  [degree]:                                    90.000000
 CELL| Angle (a,b), gamma [degree]:                                    90.000000
 CELL| Numerically orthorhombic:                                             YES
 CELL| Periodicity                                                           XYZ

 CELL_REF| Volume [angstrom^3]:                                       237.198500
 CELL_REF| Vector a [angstrom     6.190     0.000     0.000   |a| =     6.190190
 CELL_REF| Vector b [angstrom     0.000     6.190     0.000   |b| =     6.190190
 CELL_REF| Vector c [angstrom     0.000     0.000     6.190   |c| =     6.190190
 CELL_REF| Angle (b,c), alpha [degree]:                                90.000000
 CELL_REF| Angle (a,c), beta  [degree]:                                90.000000
 CELL_REF| Angle (a,b), gamma [degree]:                                90.000000
 CELL_REF| Numerically orthorhombic:                                         YES
 CELL_REF| Periodicity                                                       XYZ

 *** WARNING in cryssym.F:180 :: Symmetry library SPGLIB not available ***


 *******************************************************************************
                                    Kpoints
 *******************************************************************************
 BRILLOUIN| K-point scheme                                        Monkhorst-Pack
 BRILLOUIN| K-Point grid                                             8    8    8
 BRILLOUIN| Accuracy in Symmetry determination                      0.100000E-05
 BRILLOUIN| K-Point point group symmetrization                               OFF
 BRILLOUIN| Wavefunction type                                            COMPLEX
 BRILLOUIN| List of Kpoints [2 Pi/Bohr]                                      256
 BRILLOUIN| Number           Weight            X              Y              Z
 BRILLOUIN|     1           0.00391       -0.43750       -0.43750       -0.43750
 BRILLOUIN|     2           0.00391       -0.43750       -0.43750       -0.31250
 BRILLOUIN|     3           0.00391       -0.43750       -0.43750       -0.18750
 BRILLOUIN|     4           0.00391       -0.43750       -0.43750       -0.06250
 BRILLOUIN|     5           0.00391       -0.43750       -0.43750        0.06250
 BRILLOUIN|     6           0.00391       -0.43750       -0.43750        0.18750
 BRILLOUIN|     7           0.00391       -0.43750       -0.43750        0.31250
 BRILLOUIN|     8           0.00391       -0.43750       -0.43750        0.43750
 BRILLOUIN|     9           0.00391       -0.43750       -0.31250       -0.43750
 BRILLOUIN|    10           0.00391       -0.43750       -0.31250       -0.31250
 BRILLOUIN|    11           0.00391       -0.43750       -0.31250       -0.18750
 BRILLOUIN|    12           0.00391       -0.43750       -0.31250       -0.06250
 BRILLOUIN|    13           0.00391       -0.43750       -0.31250        0.06250
 BRILLOUIN|    14           0.00391       -0.43750       -0.31250        0.18750
 BRILLOUIN|    15           0.00391       -0.43750       -0.31250        0.31250
 BRILLOUIN|    16           0.00391       -0.43750       -0.31250        0.43750
 BRILLOUIN|    17           0.00391       -0.43750       -0.18750       -0.43750
 BRILLOUIN|    18           0.00391       -0.43750       -0.18750       -0.31250
 BRILLOUIN|    19           0.00391       -0.43750       -0.18750       -0.18750
 BRILLOUIN|    20           0.00391       -0.43750       -0.18750       -0.06250
 BRILLOUIN|    21           0.00391       -0.43750       -0.18750        0.06250
 BRILLOUIN|    22           0.00391       -0.43750       -0.18750        0.18750
 BRILLOUIN|    23           0.00391       -0.43750       -0.18750        0.31250
 BRILLOUIN|    24           0.00391       -0.43750       -0.18750        0.43750
 BRILLOUIN|    25           0.00391       -0.43750       -0.06250       -0.43750
 BRILLOUIN|    26           0.00391       -0.43750       -0.06250       -0.31250
 BRILLOUIN|    27           0.00391       -0.43750       -0.06250       -0.18750
 BRILLOUIN|    28           0.00391       -0.43750       -0.06250       -0.06250
 BRILLOUIN|    29           0.00391       -0.43750       -0.06250        0.06250
 BRILLOUIN|    30           0.00391       -0.43750       -0.06250        0.18750
 BRILLOUIN|    31           0.00391       -0.43750       -0.06250        0.31250
 BRILLOUIN|    32           0.00391       -0.43750       -0.06250        0.43750
 BRILLOUIN|    33           0.00391       -0.43750        0.06250       -0.43750
 BRILLOUIN|    34           0.00391       -0.43750        0.06250       -0.31250
 BRILLOUIN|    35           0.00391       -0.43750        0.06250       -0.18750
 BRILLOUIN|    36           0.00391       -0.43750        0.06250       -0.06250
 BRILLOUIN|    37           0.00391       -0.43750        0.06250        0.06250
 BRILLOUIN|    38           0.00391       -0.43750        0.06250        0.18750
 BRILLOUIN|    39           0.00391       -0.43750        0.06250        0.31250
 BRILLOUIN|    40           0.00391       -0.43750        0.06250        0.43750
 BRILLOUIN|    41           0.00391       -0.43750        0.18750       -0.43750
 BRILLOUIN|    42           0.00391       -0.43750        0.18750       -0.31250
 BRILLOUIN|    43           0.00391       -0.43750        0.18750       -0.18750
 BRILLOUIN|    44           0.00391       -0.43750        0.18750       -0.06250
 BRILLOUIN|    45           0.00391       -0.43750        0.18750        0.06250
 BRILLOUIN|    46           0.00391       -0.43750        0.18750        0.18750
 BRILLOUIN|    47           0.00391       -0.43750        0.18750        0.31250
 BRILLOUIN|    48           0.00391       -0.43750        0.18750        0.43750
 BRILLOUIN|    49           0.00391       -0.43750        0.31250       -0.43750
 BRILLOUIN|    50           0.00391       -0.43750        0.31250       -0.31250
 BRILLOUIN|    51           0.00391       -0.43750        0.31250       -0.18750
 BRILLOUIN|    52           0.00391       -0.43750        0.31250       -0.06250
 BRILLOUIN|    53           0.00391       -0.43750        0.31250        0.06250
 BRILLOUIN|    54           0.00391       -0.43750        0.31250        0.18750
 BRILLOUIN|    55           0.00391       -0.43750        0.31250        0.31250
 BRILLOUIN|    56           0.00391       -0.43750        0.31250        0.43750
 BRILLOUIN|    57           0.00391       -0.43750        0.43750       -0.43750
 BRILLOUIN|    58           0.00391       -0.43750        0.43750       -0.31250
 BRILLOUIN|    59           0.00391       -0.43750        0.43750       -0.18750
 BRILLOUIN|    60           0.00391       -0.43750        0.43750       -0.06250
 BRILLOUIN|    61           0.00391       -0.43750        0.43750        0.06250
 BRILLOUIN|    62           0.00391       -0.43750        0.43750        0.18750
 BRILLOUIN|    63           0.00391       -0.43750        0.43750        0.31250
 BRILLOUIN|    64           0.00391       -0.43750        0.43750        0.43750
 BRILLOUIN|    65           0.00391       -0.31250       -0.43750       -0.43750
 BRILLOUIN|    66           0.00391       -0.31250       -0.43750       -0.31250
 BRILLOUIN|    67           0.00391       -0.31250       -0.43750       -0.18750
 BRILLOUIN|    68           0.00391       -0.31250       -0.43750       -0.06250
 BRILLOUIN|    69           0.00391       -0.31250       -0.43750        0.06250
 BRILLOUIN|    70           0.00391       -0.31250       -0.43750        0.18750
 BRILLOUIN|    71           0.00391       -0.31250       -0.43750        0.31250
 BRILLOUIN|    72           0.00391       -0.31250       -0.43750        0.43750
 BRILLOUIN|    73           0.00391       -0.31250       -0.31250       -0.43750
 BRILLOUIN|    74           0.00391       -0.31250       -0.31250       -0.31250
 BRILLOUIN|    75           0.00391       -0.31250       -0.31250       -0.18750
 BRILLOUIN|    76           0.00391       -0.31250       -0.31250       -0.06250
 BRILLOUIN|    77           0.00391       -0.31250       -0.31250        0.06250
 BRILLOUIN|    78           0.00391       -0.31250       -0.31250        0.18750
 BRILLOUIN|    79           0.00391       -0.31250       -0.31250        0.31250
 BRILLOUIN|    80           0.00391       -0.31250       -0.31250        0.43750
 BRILLOUIN|    81           0.00391       -0.31250       -0.18750       -0.43750
 BRILLOUIN|    82           0.00391       -0.31250       -0.18750       -0.31250
 BRILLOUIN|    83           0.00391       -0.31250       -0.18750       -0.18750
 BRILLOUIN|    84           0.00391       -0.31250       -0.18750       -0.06250
 BRILLOUIN|    85           0.00391       -0.31250       -0.18750        0.06250
 BRILLOUIN|    86           0.00391       -0.31250       -0.18750        0.18750
 BRILLOUIN|    87           0.00391       -0.31250       -0.18750        0.31250
 BRILLOUIN|    88           0.00391       -0.31250       -0.18750        0.43750
 BRILLOUIN|    89           0.00391       -0.31250       -0.06250       -0.43750
 BRILLOUIN|    90           0.00391       -0.31250       -0.06250       -0.31250
 BRILLOUIN|    91           0.00391       -0.31250       -0.06250       -0.18750
 BRILLOUIN|    92           0.00391       -0.31250       -0.06250       -0.06250
 BRILLOUIN|    93           0.00391       -0.31250       -0.06250        0.06250
 BRILLOUIN|    94           0.00391       -0.31250       -0.06250        0.18750
 BRILLOUIN|    95           0.00391       -0.31250       -0.06250        0.31250
 BRILLOUIN|    96           0.00391       -0.31250       -0.06250        0.43750
 BRILLOUIN|    97           0.00391       -0.31250        0.06250       -0.43750
 BRILLOUIN|    98           0.00391       -0.31250        0.06250       -0.31250
 BRILLOUIN|    99           0.00391       -0.31250        0.06250       -0.18750
 BRILLOUIN|   100           0.00391       -0.31250        0.06250       -0.06250
 BRILLOUIN|   101           0.00391       -0.31250        0.06250        0.06250
 BRILLOUIN|   102           0.00391       -0.31250        0.06250        0.18750
 BRILLOUIN|   103           0.00391       -0.31250        0.06250        0.31250
 BRILLOUIN|   104           0.00391       -0.31250        0.06250        0.43750
 BRILLOUIN|   105           0.00391       -0.31250        0.18750       -0.43750
 BRILLOUIN|   106           0.00391       -0.31250        0.18750       -0.31250
 BRILLOUIN|   107           0.00391       -0.31250        0.18750       -0.18750
 BRILLOUIN|   108           0.00391       -0.31250        0.18750       -0.06250
 BRILLOUIN|   109           0.00391       -0.31250        0.18750        0.06250
 BRILLOUIN|   110           0.00391       -0.31250        0.18750        0.18750
 BRILLOUIN|   111           0.00391       -0.31250        0.18750        0.31250
 BRILLOUIN|   112           0.00391       -0.31250        0.18750        0.43750
 BRILLOUIN|   113           0.00391       -0.31250        0.31250       -0.43750
 BRILLOUIN|   114           0.00391       -0.31250        0.31250       -0.31250
 BRILLOUIN|   115           0.00391       -0.31250        0.31250       -0.18750
 BRILLOUIN|   116           0.00391       -0.31250        0.31250       -0.06250
 BRILLOUIN|   117           0.00391       -0.31250        0.31250        0.06250
 BRILLOUIN|   118           0.00391       -0.31250        0.31250        0.18750
 BRILLOUIN|   119           0.00391       -0.31250        0.31250        0.31250
 BRILLOUIN|   120           0.00391       -0.31250        0.31250        0.43750
 BRILLOUIN|   121           0.00391       -0.31250        0.43750       -0.43750
 BRILLOUIN|   122           0.00391       -0.31250        0.43750       -0.31250
 BRILLOUIN|   123           0.00391       -0.31250        0.43750       -0.18750
 BRILLOUIN|   124           0.00391       -0.31250        0.43750       -0.06250
 BRILLOUIN|   125           0.00391       -0.31250        0.43750        0.06250
 BRILLOUIN|   126           0.00391       -0.31250        0.43750        0.18750
 BRILLOUIN|   127           0.00391       -0.31250        0.43750        0.31250
 BRILLOUIN|   128           0.00391       -0.31250        0.43750        0.43750
 BRILLOUIN|   129           0.00391       -0.18750       -0.43750       -0.43750
 BRILLOUIN|   130           0.00391       -0.18750       -0.43750       -0.31250
 BRILLOUIN|   131           0.00391       -0.18750       -0.43750       -0.18750
 BRILLOUIN|   132           0.00391       -0.18750       -0.43750       -0.06250
 BRILLOUIN|   133           0.00391       -0.18750       -0.43750        0.06250
 BRILLOUIN|   134           0.00391       -0.18750       -0.43750        0.18750
 BRILLOUIN|   135           0.00391       -0.18750       -0.43750        0.31250
 BRILLOUIN|   136           0.00391       -0.18750       -0.43750        0.43750
 BRILLOUIN|   137           0.00391       -0.18750       -0.31250       -0.43750
 BRILLOUIN|   138           0.00391       -0.18750       -0.31250       -0.31250
 BRILLOUIN|   139           0.00391       -0.18750       -0.31250       -0.18750
 BRILLOUIN|   140           0.00391       -0.18750       -0.31250       -0.06250
 BRILLOUIN|   141           0.00391       -0.18750       -0.31250        0.06250
 BRILLOUIN|   142           0.00391       -0.18750       -0.31250        0.18750
 BRILLOUIN|   143           0.00391       -0.18750       -0.31250        0.31250
 BRILLOUIN|   144           0.00391       -0.18750       -0.31250        0.43750
 BRILLOUIN|   145           0.00391       -0.18750       -0.18750       -0.43750
 BRILLOUIN|   146           0.00391       -0.18750       -0.18750       -0.31250
 BRILLOUIN|   147           0.00391       -0.18750       -0.18750       -0.18750
 BRILLOUIN|   148           0.00391       -0.18750       -0.18750       -0.06250
 BRILLOUIN|   149           0.00391       -0.18750       -0.18750        0.06250
 BRILLOUIN|   150           0.00391       -0.18750       -0.18750        0.18750
 BRILLOUIN|   151           0.00391       -0.18750       -0.18750        0.31250
 BRILLOUIN|   152           0.00391       -0.18750       -0.18750        0.43750
 BRILLOUIN|   153           0.00391       -0.18750       -0.06250       -0.43750
 BRILLOUIN|   154           0.00391       -0.18750       -0.06250       -0.31250
 BRILLOUIN|   155           0.00391       -0.18750       -0.06250       -0.18750
 BRILLOUIN|   156           0.00391       -0.18750       -0.06250       -0.06250
 BRILLOUIN|   157           0.00391       -0.18750       -0.06250        0.06250
 BRILLOUIN|   158           0.00391       -0.18750       -0.06250        0.18750
 BRILLOUIN|   159           0.00391       -0.18750       -0.06250        0.31250
 BRILLOUIN|   160           0.00391       -0.18750       -0.06250        0.43750
 BRILLOUIN|   161           0.00391       -0.18750        0.06250       -0.43750
 BRILLOUIN|   162           0.00391       -0.18750        0.06250       -0.31250
 BRILLOUIN|   163           0.00391       -0.18750        0.06250       -0.18750
 BRILLOUIN|   164           0.00391       -0.18750        0.06250       -0.06250
 BRILLOUIN|   165           0.00391       -0.18750        0.06250        0.06250
 BRILLOUIN|   166           0.00391       -0.18750        0.06250        0.18750
 BRILLOUIN|   167           0.00391       -0.18750        0.06250        0.31250
 BRILLOUIN|   168           0.00391       -0.18750        0.06250        0.43750
 BRILLOUIN|   169           0.00391       -0.18750        0.18750       -0.43750
 BRILLOUIN|   170           0.00391       -0.18750        0.18750       -0.31250
 BRILLOUIN|   171           0.00391       -0.18750        0.18750       -0.18750
 BRILLOUIN|   172           0.00391       -0.18750        0.18750       -0.06250
 BRILLOUIN|   173           0.00391       -0.18750        0.18750        0.06250
 BRILLOUIN|   174           0.00391       -0.18750        0.18750        0.18750
 BRILLOUIN|   175           0.00391       -0.18750        0.18750        0.31250
 BRILLOUIN|   176           0.00391       -0.18750        0.18750        0.43750
 BRILLOUIN|   177           0.00391       -0.18750        0.31250       -0.43750
 BRILLOUIN|   178           0.00391       -0.18750        0.31250       -0.31250
 BRILLOUIN|   179           0.00391       -0.18750        0.31250       -0.18750
 BRILLOUIN|   180           0.00391       -0.18750        0.31250       -0.06250
 BRILLOUIN|   181           0.00391       -0.18750        0.31250        0.06250
 BRILLOUIN|   182           0.00391       -0.18750        0.31250        0.18750
 BRILLOUIN|   183           0.00391       -0.18750        0.31250        0.31250
 BRILLOUIN|   184           0.00391       -0.18750        0.31250        0.43750
 BRILLOUIN|   185           0.00391       -0.18750        0.43750       -0.43750
 BRILLOUIN|   186           0.00391       -0.18750        0.43750       -0.31250
 BRILLOUIN|   187           0.00391       -0.18750        0.43750       -0.18750
 BRILLOUIN|   188           0.00391       -0.18750        0.43750       -0.06250
 BRILLOUIN|   189           0.00391       -0.18750        0.43750        0.06250
 BRILLOUIN|   190           0.00391       -0.18750        0.43750        0.18750
 BRILLOUIN|   191           0.00391       -0.18750        0.43750        0.31250
 BRILLOUIN|   192           0.00391       -0.18750        0.43750        0.43750
 BRILLOUIN|   193           0.00391       -0.06250       -0.43750       -0.43750
 BRILLOUIN|   194           0.00391       -0.06250       -0.43750       -0.31250
 BRILLOUIN|   195           0.00391       -0.06250       -0.43750       -0.18750
 BRILLOUIN|   196           0.00391       -0.06250       -0.43750       -0.06250
 BRILLOUIN|   197           0.00391       -0.06250       -0.43750        0.06250
 BRILLOUIN|   198           0.00391       -0.06250       -0.43750        0.18750
 BRILLOUIN|   199           0.00391       -0.06250       -0.43750        0.31250
 BRILLOUIN|   200           0.00391       -0.06250       -0.43750        0.43750
 BRILLOUIN|   201           0.00391       -0.06250       -0.31250       -0.43750
 BRILLOUIN|   202           0.00391       -0.06250       -0.31250       -0.31250
 BRILLOUIN|   203           0.00391       -0.06250       -0.31250       -0.18750
 BRILLOUIN|   204           0.00391       -0.06250       -0.31250       -0.06250
 BRILLOUIN|   205           0.00391       -0.06250       -0.31250        0.06250
 BRILLOUIN|   206           0.00391       -0.06250       -0.31250        0.18750
 BRILLOUIN|   207           0.00391       -0.06250       -0.31250        0.31250
 BRILLOUIN|   208           0.00391       -0.06250       -0.31250        0.43750
 BRILLOUIN|   209           0.00391       -0.06250       -0.18750       -0.43750
 BRILLOUIN|   210           0.00391       -0.06250       -0.18750       -0.31250
 BRILLOUIN|   211           0.00391       -0.06250       -0.18750       -0.18750
 BRILLOUIN|   212           0.00391       -0.06250       -0.18750       -0.06250
 BRILLOUIN|   213           0.00391       -0.06250       -0.18750        0.06250
 BRILLOUIN|   214           0.00391       -0.06250       -0.18750        0.18750
 BRILLOUIN|   215           0.00391       -0.06250       -0.18750        0.31250
 BRILLOUIN|   216           0.00391       -0.06250       -0.18750        0.43750
 BRILLOUIN|   217           0.00391       -0.06250       -0.06250       -0.43750
 BRILLOUIN|   218           0.00391       -0.06250       -0.06250       -0.31250
 BRILLOUIN|   219           0.00391       -0.06250       -0.06250       -0.18750
 BRILLOUIN|   220           0.00391       -0.06250       -0.06250       -0.06250
 BRILLOUIN|   221           0.00391       -0.06250       -0.06250        0.06250
 BRILLOUIN|   222           0.00391       -0.06250       -0.06250        0.18750
 BRILLOUIN|   223           0.00391       -0.06250       -0.06250        0.31250
 BRILLOUIN|   224           0.00391       -0.06250       -0.06250        0.43750
 BRILLOUIN|   225           0.00391       -0.06250        0.06250       -0.43750
 BRILLOUIN|   226           0.00391       -0.06250        0.06250       -0.31250
 BRILLOUIN|   227           0.00391       -0.06250        0.06250       -0.18750
 BRILLOUIN|   228           0.00391       -0.06250        0.06250       -0.06250
 BRILLOUIN|   229           0.00391       -0.06250        0.06250        0.06250
 BRILLOUIN|   230           0.00391       -0.06250        0.06250        0.18750
 BRILLOUIN|   231           0.00391       -0.06250        0.06250        0.31250
 BRILLOUIN|   232           0.00391       -0.06250        0.06250        0.43750
 BRILLOUIN|   233           0.00391       -0.06250        0.18750       -0.43750
 BRILLOUIN|   234           0.00391       -0.06250        0.18750       -0.31250
 BRILLOUIN|   235           0.00391       -0.06250        0.18750       -0.18750
 BRILLOUIN|   236           0.00391       -0.06250        0.18750       -0.06250
 BRILLOUIN|   237           0.00391       -0.06250        0.18750        0.06250
 BRILLOUIN|   238           0.00391       -0.06250        0.18750        0.18750
 BRILLOUIN|   239           0.00391       -0.06250        0.18750        0.31250
 BRILLOUIN|   240           0.00391       -0.06250        0.18750        0.43750
 BRILLOUIN|   241           0.00391       -0.06250        0.31250       -0.43750
 BRILLOUIN|   242           0.00391       -0.06250        0.31250       -0.31250
 BRILLOUIN|   243           0.00391       -0.06250        0.31250       -0.18750
 BRILLOUIN|   244           0.00391       -0.06250        0.31250       -0.06250
 BRILLOUIN|   245           0.00391       -0.06250        0.31250        0.06250
 BRILLOUIN|   246           0.00391       -0.06250        0.31250        0.18750
 BRILLOUIN|   247           0.00391       -0.06250        0.31250        0.31250
 BRILLOUIN|   248           0.00391       -0.06250        0.31250        0.43750
 BRILLOUIN|   249           0.00391       -0.06250        0.43750       -0.43750
 BRILLOUIN|   250           0.00391       -0.06250        0.43750       -0.31250
 BRILLOUIN|   251           0.00391       -0.06250        0.43750       -0.18750
 BRILLOUIN|   252           0.00391       -0.06250        0.43750       -0.06250
 BRILLOUIN|   253           0.00391       -0.06250        0.43750        0.06250
 BRILLOUIN|   254           0.00391       -0.06250        0.43750        0.18750
 BRILLOUIN|   255           0.00391       -0.06250        0.43750        0.31250
 BRILLOUIN|   256           0.00391       -0.06250        0.43750        0.43750
 *******************************************************************************

 *******************************************************************************
 *******************************************************************************
 **                                                                           **
 **     #####                         ##              ##                      **
 **    ##   ##            ##          ##              ##                      **
 **   ##     ##                       ##            ######                    **
 **   ##     ##  ##   ##  ##   #####  ##  ##   ####   ##    #####    #####    **
 **   ##     ##  ##   ##  ##  ##      ## ##   ##      ##   ##   ##  ##   ##   **
 **   ##  ## ##  ##   ##  ##  ##      ####     ###    ##   ######   ######    **
 **    ##  ###   ##   ##  ##  ##      ## ##      ##   ##   ##       ##        **
 **     #######   #####   ##   #####  ##  ##  ####    ##    #####   ##        **
 **           ##                                                    ##        **
 **                                                                           **
 **                                                ... make the atoms dance   **
 **                                                                           **
 **            Copyright (C) by CP2K developers group (2000-2025)             **
 **                      J. Chem. Phys. 152, 194103 (2020)                    **
 **                                                                           **
 *******************************************************************************

 DFT| Spin restricted Kohn-Sham (RKS) calculation                            RKS
 DFT| Multiplicity                                                             1
 DFT| Number of spin states                                                    1
 DFT| Charge                                                                   0
 DFT| Self-interaction correction (SIC)                                       NO
 DFT| Cutoffs: density                                              1.000000E-10
 DFT|          gradient                                             1.000000E-10
 DFT|          tau                                                  1.000000E-10
 DFT|          cutoff_smoothing_range                               0.000000E+00
 DFT| XC density smoothing                                                  NONE
 DFT| XC derivatives                                                          PW

 FUNCTIONAL| PBE:
 FUNCTIONAL| J.P.Perdew, K.Burke, M.Ernzerhof, Phys. Rev. Letter, vol. 77, n 18,
 FUNCTIONAL|  pp. 3865-3868, (1996) {spin unpolarized}                          


 QS| Method:                                                                 GPW
 QS| Density plane wave grid type                        NON-SPHERICAL FULLSPACE
 QS| Number of grid levels:                                                    4
 QS| Density cutoff [a.u.]:                                                500.0
 QS| Multi grid cutoff [a.u.]: 1) grid level                               500.0
 QS|                           2) grid level                               166.7
 QS|                           3) grid level                                55.6
 QS|                           4) grid level                                18.5
 QS| Grid level progression factor:                                          3.0
 QS| Relative density cutoff [a.u.]:                                        50.0
 QS| Interaction thresholds: eps_pgf_orb:                                1.0E-16
 QS|                         eps_filter_matrix:                          0.0E+00
 QS|                         eps_core_charge:                            1.0E-18
 QS|                         eps_rho_gspace:                             1.0E-16
 QS|                         eps_rho_rspace:                             1.0E-16
 QS|                         eps_gvg_rspace:                             1.0E-08
 QS|                         eps_ppl:                                    1.0E-02
 QS|                         eps_ppnl:                                   1.0E-10


 ATOMIC KIND INFORMATION

  1. Atomic kind: N                                     Number of atoms:       8

     Orbital Basis Set                              aug-SZV-MOLOPT-GTH-tier-2-SR

       Number of orbital shell sets:                                           1
       Number of orbital shells:                                               5
       Number of primitive Cartesian functions:                                6
       Number of Cartesian basis functions:                                   14
       Number of spherical basis functions:                                   13
       Norm type:                                                              2

       Normalised Cartesian orbitals:

                        Set   Shell   Orbital            Exponent    Coefficient

                          1       1    2s                0.112012      -0.019197
                                                         0.150000       0.000000
                                                         0.333802      -0.182244
                                                         0.888575      -0.289383
                                                         2.542637       0.139177
                                                         7.341988       0.360561

                          1       2    3s                0.112012       0.253290
                                                         0.150000      -0.126489
                                                         0.333802      -0.052817
                                                         0.888575       0.000000
                                                         2.542637       0.000000
                                                         7.341988       0.000000

                          1       3    3px               0.112012      -0.013986
                                                         0.150000       0.000000
                                                         0.333802      -0.144894
                                                         0.888575      -0.501079
                                                         2.542637      -0.973969
                                                         7.341988      -1.188719
                          1       3    3py               0.112012      -0.013986
                                                         0.150000       0.000000
                                                         0.333802      -0.144894
                                                         0.888575      -0.501079
                                                         2.542637      -0.973969
                                                         7.341988      -1.188719
                          1       3    3pz               0.112012      -0.013986
                                                         0.150000       0.000000
                                                         0.333802      -0.144894
                                                         0.888575      -0.501079
                                                         2.542637      -0.973969
                                                         7.341988      -1.188719

                          1       4    4px               0.112012      -0.186282
                                                         0.150000       0.372873
                                                         0.333802       0.042335
                                                         0.888575      -0.151812
                                                         2.542637       0.000000
                                                         7.341988       0.000000
                          1       4    4py               0.112012      -0.186282
                                                         0.150000       0.372873
                                                         0.333802       0.042335
                                                         0.888575      -0.151812
                                                         2.542637       0.000000
                                                         7.341988       0.000000
                          1       4    4pz               0.112012      -0.186282
                                                         0.150000       0.372873
                                                         0.333802       0.042335
                                                         0.888575      -0.151812
                                                         2.542637       0.000000
                                                         7.341988       0.000000

                          1       5    4dx2              0.112012       0.001454
                                                         0.150000      -0.002772
                                                         0.333802       0.273208
                                                         0.888575      -0.265043
                                                         2.542637       0.000000
                                                         7.341988       0.000000
                          1       5    4dxy              0.112012       0.002518
                                                         0.150000      -0.004802
                                                         0.333802       0.473211
                                                         0.888575      -0.459068
                                                         2.542637       0.000000
                                                         7.341988       0.000000
                          1       5    4dxz              0.112012       0.002518
                                                         0.150000      -0.004802
                                                         0.333802       0.473211
                                                         0.888575      -0.459068
                                                         2.542637       0.000000
                                                         7.341988       0.000000
                          1       5    4dy2              0.112012       0.001454
                                                         0.150000      -0.002772
                                                         0.333802       0.273208
                                                         0.888575      -0.265043
                                                         2.542637       0.000000
                                                         7.341988       0.000000
                          1       5    4dyz              0.112012       0.002518
                                                         0.150000      -0.004802
                                                         0.333802       0.473211
                                                         0.888575      -0.459068
                                                         2.542637       0.000000
                                                         7.341988       0.000000
                          1       5    4dz2              0.112012       0.001454
                                                         0.150000      -0.002772
                                                         0.333802       0.273208
                                                         0.888575      -0.265043
                                                         2.542637       0.000000
                                                         7.341988       0.000000

       Atomic covalent radius [Angstrom]:                                  0.750

       Atomic van der Waals radius [Angstrom]:                             1.550

     GTH Potential information for                                       GTH-PBE

       Description:                       Goedecker-Teter-Hutter pseudopotential
                                           Goedecker et al., PRB 54, 1703 (1996)
                                          Hartwigsen et al., PRB 58, 3641 (1998)
                                                      Krack, TCA 114, 145 (2005)

       Gaussian exponent of the core charge distribution:               6.208322
       Electronic configuration (s p d ...):                               2   3

       Parameters of the local part of the GTH pseudopotential:

                          rloc        C1          C2          C3          C4
                        0.283791  -12.415226    1.868096

       Parameters of the non-local part of the GTH (SOC) pseudopotential:

                   l      r(l)      h(i,j,l)
                                    k(i,j,l)
                   0    0.255405   13.630263
                   1    0.245495    0.000000
                                    0.004148


 MOLECULE KIND INFORMATION


 All atoms are their own molecule, skipping detailed information


 TOTAL NUMBERS AND MAXIMUM NUMBERS

  Total number of            - Atomic kinds:                                   1
                             - Atoms:                                          8
                             - Shell sets:                                     8
                             - Shells:                                        40
                             - Primitive Cartesian functions:                 48
                             - Cartesian basis functions:                    112
                             - Spherical basis functions:                    104

  Maximum angular momentum of- Orbital basis functions:                        2
                             - Local part of the GTH pseudopotential:          2
                             - Non-local part of the GTH pseudopotential:      1


 MODULE QUICKSTEP: ATOMIC COORDINATES IN ANGSTROM

   Atom Kind Element         X             Y             Z       Z(eff)     Mass
      1    1 N     7      0.321209      0.321209      0.321209   5.0000  14.0067
      2    1 N     7      5.868981      5.868981      5.868981   5.0000  14.0067
      3    1 N     7      2.773886      5.868981      3.416304   5.0000  14.0067
      4    1 N     7      3.416304      0.321209      2.773886   5.0000  14.0067
      5    1 N     7      5.868981      3.416304      2.773886   5.0000  14.0067
      6    1 N     7      0.321209      2.773886      3.416304   5.0000  14.0067
      7    1 N     7      3.416304      2.773886      5.868981   5.0000  14.0067
      8    1 N     7      2.773886      3.416304      0.321209   5.0000  14.0067



 SCF PARAMETERS         Density guess:                                    ATOMIC
                        --------------------------------------------------------
                        max_scf:                                             500
                        max_scf_history:                                       0
                        max_diis:                                              4
                        --------------------------------------------------------
                        eps_scf:                                        1.00E-09
                        eps_scf_history:                                0.00E+00
                        eps_diis:                                       1.00E-01
                        eps_eigval:                                     1.00E-05
                        --------------------------------------------------------
                        level_shift [a.u.]:                             0.000000
                        added MOs                                        84    0
                        --------------------------------------------------------
                        Mixing method:                            BROYDEN_MIXING
                                                charge density mixing in g-space
                        --------------------------------------------------------
                        No outer SCF

 PW_GRID| Information for grid number                                          1
 PW_GRID| Grid distributed over                                     8 processors
 PW_GRID| Real space group dimensions                                     8    1
 PW_GRID| the grid is blocked:                                                NO
 PW_GRID| Cutoff [a.u.]                                                    500.0
 PW_GRID| spherical cutoff:                                                   NO
 PW_GRID|   Bounds   1            -60      59                Points:         120
 PW_GRID|   Bounds   2            -60      59                Points:         120
 PW_GRID|   Bounds   3            -60      59                Points:         120
 PW_GRID| Volume element (a.u.^3)  0.9263E-03     Volume (a.u.^3)      1600.6948
 PW_GRID| Grid span                                                    FULLSPACE
 PW_GRID|   Distribution                         Average         Max         Min
 PW_GRID|   G-Vectors                           216000.0      216000      216000
 PW_GRID|   G-Rays                                1800.0        1800        1800
 PW_GRID|   Real Space Points                   216000.0      216000      216000

 PW_GRID| Information for grid number                                          2
 PW_GRID| Number of the reference grid                                         1
 PW_GRID| Grid distributed over                                     8 processors
 PW_GRID| Real space group dimensions                                     8    1
 PW_GRID| the grid is blocked:                                                NO
 PW_GRID| Cutoff [a.u.]                                                    166.7
 PW_GRID| spherical cutoff:                                                   NO
 PW_GRID|   Bounds   1            -36      35                Points:          72
 PW_GRID|   Bounds   2            -36      35                Points:          72
 PW_GRID|   Bounds   3            -36      35                Points:          72
 PW_GRID| Volume element (a.u.^3)  0.4289E-02     Volume (a.u.^3)      1600.6948
 PW_GRID| Grid span                                                    FULLSPACE
 PW_GRID|   Distribution                         Average         Max         Min
 PW_GRID|   G-Vectors                            46656.0       46872       46512
 PW_GRID|   G-Rays                                 648.0         651         646
 PW_GRID|   Real Space Points                    46656.0       46656       46656

 PW_GRID| Information for grid number                                          3
 PW_GRID| Number of the reference grid                                         1
 PW_GRID| Grid distributed over                                     8 processors
 PW_GRID| Real space group dimensions                                     8    1
 PW_GRID| the grid is blocked:                                                NO
 PW_GRID| Cutoff [a.u.]                                                     55.6
 PW_GRID| spherical cutoff:                                                   NO
 PW_GRID|   Bounds   1            -20      19                Points:          40
 PW_GRID|   Bounds   2            -20      19                Points:          40
 PW_GRID|   Bounds   3            -20      19                Points:          40
 PW_GRID| Volume element (a.u.^3)  0.2501E-01     Volume (a.u.^3)      1600.6948
 PW_GRID| Grid span                                                    FULLSPACE
 PW_GRID|   Distribution                         Average         Max         Min
 PW_GRID|   G-Vectors                             8000.0        8120        7920
 PW_GRID|   G-Rays                                 200.0         203         198
 PW_GRID|   Real Space Points                     8000.0        8000        8000

 PW_GRID| Information for grid number                                          4
 PW_GRID| Number of the reference grid                                         1
 PW_GRID| Grid distributed over                                     8 processors
 PW_GRID| Real space group dimensions                                     8    1
 PW_GRID| the grid is blocked:                                                NO
 PW_GRID| Cutoff [a.u.]                                                     18.5
 PW_GRID| spherical cutoff:                                                   NO
 PW_GRID|   Bounds   1            -12      11                Points:          24
 PW_GRID|   Bounds   2            -12      11                Points:          24
 PW_GRID|   Bounds   3            -12      11                Points:          24
 PW_GRID| Volume element (a.u.^3)  0.1158         Volume (a.u.^3)      1600.6948
 PW_GRID| Grid span                                                    FULLSPACE
 PW_GRID|   Distribution                         Average         Max         Min
 PW_GRID|   G-Vectors                             1728.0        1800        1680
 PW_GRID|   G-Rays                                  72.0          75          70
 PW_GRID|   Real Space Points                     1728.0        1728        1728

 POISSON| Solver                                                        PERIODIC
 POISSON| Periodicity                                                        XYZ

 RS_GRID| Information for grid number                                          1
 RS_GRID|   Bounds   1            -60      59                Points:         120
 RS_GRID|   Bounds   2            -60      59                Points:         120
 RS_GRID|   Bounds   3            -60      59                Points:         120
 RS_GRID| Real space fully replicated
 RS_GRID| Group size                                                           1

 RS_GRID| Information for grid number                                          2
 RS_GRID|   Bounds   1            -36      35                Points:          72
 RS_GRID|   Bounds   2            -36      35                Points:          72
 RS_GRID|   Bounds   3            -36      35                Points:          72
 RS_GRID| Real space fully replicated
 RS_GRID| Group size                                                           1

 RS_GRID| Information for grid number                                          3
 RS_GRID|   Bounds   1            -20      19                Points:          40
 RS_GRID|   Bounds   2            -20      19                Points:          40
 RS_GRID|   Bounds   3            -20      19                Points:          40
 RS_GRID| Real space fully replicated
 RS_GRID| Group size                                                           1

 RS_GRID| Information for grid number                                          4
 RS_GRID|   Bounds   1            -12      11                Points:          24
 RS_GRID|   Bounds   2            -12      11                Points:          24
 RS_GRID|   Bounds   3            -12      11                Points:          24
 RS_GRID| Real space fully replicated
 RS_GRID| Group size                                                           1

 Number of electrons:                                                         40
 Number of occupied orbitals:                                                 20
 Number of molecular orbitals:                                               104

 Number of orbital functions:                                                104
 Number of independent orbital functions:                                    104

 Extrapolation method: initial_guess

 Atomic guess: The first density matrix is obtained in terms of atomic orbitals
               and electronic configurations assigned to each atomic kind

 Guess for atomic kind: N

 Electronic structure
    Total number of core electrons                                          2.00
    Total number of valence electrons                                       5.00
    Total number of electrons                                               7.00
    Multiplicity                                                   not specified
    S   [  2.00] 2.00
    P      3.00


 *******************************************************************************
                  Iteration          Convergence                     Energy [au]
 *******************************************************************************
                          1        0.230708                      -9.525464698752
                          2        0.133955                      -9.535294291091
                          3        0.149662E-03                  -9.540459714613
                          4        0.244006E-05                  -9.540459725509
                          5        0.128773E-05                  -9.540459725510
                          6        0.878801E-06                  -9.540459725510

 Energy components [Hartree]           Total Energy ::           -9.540459725510
                                        Band Energy ::           -1.946170932240
                                     Kinetic Energy ::            6.895603684197
                                   Potential Energy ::          -16.436063409707
                                      Virial (-V/T) ::            2.383556851937
                                        Core Energy ::          -15.621755821548
                                          XC Energy ::           -2.189792915902
                                     Coulomb Energy ::            8.271089011939
                       Total Pseudopotential Energy ::          -22.552417335274
                       Local Pseudopotential Energy ::          -23.448236636001
                    Nonlocal Pseudopotential Energy ::            0.895819300728
                                        Confinement ::            0.350578295289

 Orbital energies  State     L     Occupation   Energy[a.u.]          Energy[eV]

                       1     0          2.000      -0.641867          -17.466101

                       1     1          3.000      -0.220812           -6.008601


 Total Electron Density at R=0:                                         0.000065
 Re-scaling the density matrix to get the right number of electrons
                  # Electrons              Trace(P)               Scaling factor
                           40                40.000                        1.000


 SCF WAVEFUNCTION OPTIMIZATION

  Step     Update method      Time    Convergence         Total energy    Change
  ------------------------------------------------------------------------------
     1 NoMix/Diag. 0.50E-01    2.0     0.55581772       -78.5541380926 -7.86E+01
     2 Broy./Diag. 0.50E-01    2.0     0.00194241       -77.0754659353  1.48E+00
     3 Broy./Diag. 0.50E-01    2.0     0.04542174       -78.6105316965 -1.54E+00
     4 Broy./Diag. 0.50E-01    2.0     0.00040915       -79.6766234680 -1.07E+00
     5 Broy./Diag. 0.50E-01    2.0     0.00597609       -79.4323266299  2.44E-01
     6 Broy./Diag. 0.50E-01    2.0     0.00022585       -79.3706098626  6.17E-02
     7 Broy./Diag. 0.50E-01    2.0     0.00120303       -79.4011801888 -3.06E-02
     8 Broy./Diag. 0.50E-01    2.0     0.00018643       -79.4199394801 -1.88E-02
     9 Broy./Diag. 0.50E-01    2.0     0.00004830       -79.4207371826 -7.98E-04
    10 Broy./Diag. 0.50E-01    2.0     0.00020839       -79.4162078727  4.53E-03
    11 Broy./Diag. 0.50E-01    2.0     0.00000743       -79.4104674321  5.74E-03
    12 Broy./Diag. 0.50E-01    2.0     0.00013227       -79.4088509990  1.62E-03
    13 Broy./Diag. 0.50E-01    2.0     0.00000206       -79.4064929385  2.36E-03
    14 Broy./Diag. 0.50E-01    2.0     0.00002889       -79.4071167847 -6.24E-04
    15 Broy./Diag. 0.50E-01    2.0     0.00000150       -79.4066941418  4.23E-04
    16 Broy./Diag. 0.50E-01    2.0     0.00000298       -79.4066672402  2.69E-05
    17 Broy./Diag. 0.50E-01    2.0     0.00000197       -79.4066136904  5.35E-05
    18 Broy./Diag. 0.50E-01    2.0     0.00000073       -79.4065333143  8.04E-05
    19 Broy./Diag. 0.50E-01    2.0     0.00000160       -79.4064141849  1.19E-04
    20 Broy./Diag. 0.50E-01    2.0     0.00000060       -79.4063826544  3.15E-05
    21 Broy./Diag. 0.50E-01    2.0     0.00000087       -79.4064103803 -2.77E-05
    22 Broy./Diag. 0.50E-01    2.0     0.00000044       -79.4064265829 -1.62E-05
    23 Broy./Diag. 0.50E-01    2.1     0.00000027       -79.4064233581  3.22E-06
    24 Broy./Diag. 0.50E-01    2.0     0.00000052       -79.4064162660  7.09E-06
    25 Broy./Diag. 0.50E-01    2.0     0.00000035       -79.4064280162 -1.18E-05
    26 Broy./Diag. 0.50E-01    2.0     0.00000012       -79.4064420682 -1.41E-05
    27 Broy./Diag. 0.50E-01    2.1     0.00000008       -79.4064473357 -5.27E-06
    28 Broy./Diag. 0.50E-01    2.0     0.00000008       -79.4064503917 -3.06E-06
    29 Broy./Diag. 0.50E-01    2.0     0.00000021       -79.4064610009 -1.06E-05
    30 Broy./Diag. 0.50E-01    2.0     0.00000011       -79.4064560225  4.98E-06
    31 Broy./Diag. 0.50E-01    2.0     0.00000028       -79.4064452955  1.07E-05
    32 Broy./Diag. 0.50E-01    2.0     0.00000002       -79.4064387849  6.51E-06
    33 Broy./Diag. 0.50E-01    2.0     0.00000007       -79.4064387890 -4.09E-09
    34 Broy./Diag. 0.50E-01    2.0     0.00000004       -79.4064391180 -3.29E-07
    35 Broy./Diag. 0.50E-01    2.0     0.00000003       -79.4064381799  9.38E-07
    36 Broy./Diag. 0.50E-01    2.0     0.00000004       -79.4064359989  2.18E-06
    37 Broy./Diag. 0.50E-01    2.0     0.00000002       -79.4064348723  1.13E-06
    38 Broy./Diag. 0.50E-01    2.0     0.00000002       -79.4064349237 -5.14E-08
    39 Broy./Diag. 0.50E-01    2.0     0.00000003       -79.4064343921  5.32E-07
    40 Broy./Diag. 0.50E-01    2.0     0.00000001       -79.4064351875 -7.95E-07
    41 Broy./Diag. 0.50E-01    2.0     0.00000003       -79.4064371107 -1.92E-06
    42 Broy./Diag. 0.50E-01    2.0     2.6291E-09       -79.4064377314 -6.21E-07
    43 Broy./Diag. 0.50E-01    2.0     0.00000002       -79.4064372286  5.03E-07
    44 Broy./Diag. 0.50E-01    2.0     2.9268E-09       -79.4064366092  6.19E-07
    45 Broy./Diag. 0.50E-01    2.0     2.3553E-09       -79.4064365645  4.47E-08
    46 Broy./Diag. 0.50E-01    2.0     0.00000001       -79.4064367312 -1.67E-07
    47 Broy./Diag. 0.50E-01    2.0     3.7312E-09       -79.4064367348 -3.59E-09
    48 Broy./Diag. 0.50E-01    2.1     5.7750E-09       -79.4064366301  1.05E-07
    49 Broy./Diag. 0.50E-01    2.0     1.4829E-09       -79.4064365490  8.11E-08
    50 Broy./Diag. 0.50E-01    2.1     1.6228E-09       -79.4064364986  5.04E-08
    51 Broy./Diag. 0.50E-01    2.0     4.7152E-09       -79.4064362780  2.21E-07
    52 Broy./Diag. 0.50E-01    2.0     8.5926E-10       -79.4064362059  7.20E-08

  *** SCF run converged in    52 steps ***


  Electronic density on regular grids:        -40.0000000000       -0.0000000000
  Core density on regular grids:               40.0000000000       -0.0000000000
  Total charge density on r-space grids:       -0.0000000000
  Total charge density g-space grids:          -0.0000000000

  Overlap energy of the core charge distribution:               0.00000767021668
  Self energy of the core charge distribution:               -198.80495071796318
  Core Hamiltonian energy:                                     56.38002524354103
  Hartree energy:                                              82.48421578252541
  Exchange-correlation energy:                                -19.46573418426809

  Total energy:                                               -79.40643620594813

 !-----------------------------------------------------------------------------!
                     Mulliken Population Analysis

 #  Atom  Element  Kind  Atomic population                           Net charge
       1     N        1          5.000000                             -0.000000
       2     N        1          5.000000                              0.000000
       3     N        1          5.000000                             -0.000000
       4     N        1          5.000000                              0.000000
       5     N        1          5.000000                             -0.000000
       6     N        1          5.000000                              0.000000
       7     N        1          5.000000                             -0.000000
       8     N        1          5.000000                              0.000000
 # Total charge                             40.000000                 -0.000000

 !-----------------------------------------------------------------------------!

 !-----------------------------------------------------------------------------!
                           Hirshfeld Charges

  #Atom  Element  Kind  Ref Charge     Population                    Net charge
      1       N      1       5.000          5.000                        -0.000
      2       N      1       5.000          5.000                        -0.000
      3       N      1       5.000          5.000                        -0.000
      4       N      1       5.000          5.000                        -0.000
      5       N      1       5.000          5.000                        -0.000
      6       N      1       5.000          5.000                        -0.000
      7       N      1       5.000          5.000                        -0.000
      8       N      1       5.000          5.000                        -0.000

  Total Charge                                                           -0.000
 !-----------------------------------------------------------------------------!

 KPOINTS| Band Structure Calculation
 KPOINTS| Number of k-point sets                                               1
 KPOINTS| Number of added MOs/bands                                           -1
 KPOINTS| Number of k-points in set    1                                     148
 KPOINTS| In units of b-vector [2pi/Bohr]
 KPOINTS| Special point     1 not specifi     0.000000     0.000000     0.000000
 KPOINTS| Special point     2 not specifi     0.000000     0.500000     0.000000
 KPOINTS| Special point     3 not specifi     0.500000     0.500000     0.000000
 KPOINTS| Special point     4 not specifi     0.000000     0.000000     0.000000
 KPOINTS| Time for k-point line                                            1.053

 ENERGY| Total FORCE_EVAL ( QS ) energy [hartree]            -79.406436205948125

 -------------------------------------------------------------------------------
 -                                                                             -
 -                                DBCSR STATISTICS                             -
 -                                                                             -
 -------------------------------------------------------------------------------
 COUNTER                                    TOTAL       BLAS       SMM       ACC
 flops inhomo. stacks                           0       0.0%      0.0%      0.0%
 flops total                         0.000000E+00       0.0%      0.0%      0.0%
 flops max/rank                      0.000000E+00       0.0%      0.0%      0.0%
 matmuls inhomo. stacks                         0       0.0%      0.0%      0.0%
 matmuls total                                  0       0.0%      0.0%      0.0%
 number of processed stacks                     0       0.0%      0.0%      0.0%
 average stack size                                     0.0       0.0       0.0
 marketing flops                     0.000000E+00
 -------------------------------------------------------------------------------
 -                                                                             -
 -                      DBCSR MESSAGE PASSING PERFORMANCE                      -
 -                                                                             -
 -------------------------------------------------------------------------------
 ROUTINE             CALLS      AVE VOLUME [Bytes]
 MP_Bcast                1                     12.
 MP_Allreduce           19                     21.
 MP_Alltoall       1112016                   5703.
 -------------------------------------------------------------------------------

 -------------------------------------------------------------------------------
 -                                                                             -
 -                                DBM STATISTICS                               -
 -                                                                             -
 -------------------------------------------------------------------------------
    M  x    N  x    K                                          COUNT     PERCENT
 -------------------------------------------------------------------------------

 -------------------------------------------------------------------------------
 -                                                                             -
 -                                GRID STATISTICS                              -
 -                                                                             -
 -------------------------------------------------------------------------------
 LP    KERNEL             BACKEND                              COUNT     PERCENT
 4     collocate ortho    CPU                                1138864      50.48%
 4     integrate ortho    CPU                                1117376      49.52%
 0     collocate general  CPU                                     16       0.00%
 0     integrate general  CPU                                      8       0.00%
 -------------------------------------------------------------------------------

 MEMORY| Estimated peak process memory [MiB]                                 561

 -------------------------------------------------------------------------------
 ----                             MULTIGRID INFO                            ----
 -------------------------------------------------------------------------------
 count for grid        1:          15272          cutoff [a.u.]          500.00
 count for grid        2:          13172          cutoff [a.u.]          166.67
 count for grid        3:          23032          cutoff [a.u.]           55.56
 count for grid        4:          19640          cutoff [a.u.]           18.52
 total gridlevel count  :          71116

 -------------------------------------------------------------------------------
 -                                                                             -
 -                         MESSAGE PASSING PERFORMANCE                         -
 -                                                                             -
 -------------------------------------------------------------------------------

 ROUTINE             CALLS      AVE VOLUME [Bytes]
 MP_Group                6
 MP_Bcast           482990                    569.
 MP_Allreduce        46281                    259.
 MP_Sync                 4
 MP_Alltoall           941                9600526.
 MP_SendRecv          1498                 555826.
 MP_ISendRecv         1463                 550429.
 MP_Wait            333451
 MP_comm_split           4
 MP_ISend           352844                   2478.
 MP_IRecv           563840                   1553.
 -------------------------------------------------------------------------------


 -------------------------------------------------------------------------------
 -                                                                             -
 -                           R E F E R E N C E S                               -
 -                                                                             -
 -------------------------------------------------------------------------------
 
 CP2K version 2025.1 (Development Version), the CP2K developers group (2025).
 CP2K is freely available from https://www.cp2k.org/ .
 
 T. D. Kuehne, M. Iannuzzi, M. Del Ben, V. V. Rybkin, P. Seewald, F. Stein, T. 
 Laino, R. Z. Khaliullin, O. Schuett, F. Schiffmann, D. Golze, J. Wilhelm, S. 
 Chulkov, M. H. Bani-Hashemian, V. Weber, U. Borstnik, M. Taillefumier, A. S. 
 Jakobovits, A. Lazzaro, H. Pabst, T. Mueller, R. Schade, M. Guidon, S. 
 Andermatt, N. Holmberg, G. K. Schenter, A. Hehn, A. Bussy, F. Belleflamme, G. 
 Tabacchi, A. Gloess, M. Lass, I. Bethune, C. J. Mundy, C. Plessl, M. Watkins, 
 J. VandeVondele, M. Krack, J. Hutter.
 J. Chem. Phys. 152, 194103 (2020).
 CP2K: An electronic structure and molecular dynamics software package - 
 Quickstep: Efficient and accurate electronic structure calculations.
 https://doi.org/10.1063/5.0007045

 O. Schuett, P. Messmer, J. Hutter, J. VandeVondele.
 Electronic Structure Calculations on Graphics Processing Units, 173-190 (2016).
 GPU-Accelerated Sparse Matrix-Matrix Multiplication for Linear Scaling Density 
 Functional Theory.
 https://doi.org/10.1002/9781118670712.ch8

 J. Hutter, M. Iannuzzi, F. Schiffmann, J. VandeVondele.
 WIREs Comput Mol Sci. 4, 15-25 (2014).
 CP2K: atomistic simulations of condensed matter systems.
 https://doi.org/10.1002/wcms.1159

 U. Borstnik, J. VandeVondele, V. Weber, J. Hutter.
 Parallel Comput. 40, 47-58 (2014).
 Sparse matrix multiplication: The distributed block-compressed sparse row 
 library.
 https://doi.org/10.1016/j.parco.2014.03.012

 J. VandeVondele, J. Hutter.
 J. Chem. Phys. 127, 114105 (2007).
 Gaussian basis sets for accurate calculations on molecular systems in gas and 
 condensed phases.
 https://doi.org/10.1063/1.2770708

 J. VandeVondele, M. Krack, F. Mohamed, M. Parrinello, T. Chassaing, J. Hutter.
 Comput. Phys. Commun. 167, 103-128 (2005).
 QUICKSTEP: Fast and accurate density functional calculations using a mixed 
 Gaussian and plane waves approach.
 https://doi.org/10.1016/j.cpc.2004.12.014

 M. Krack.
 Theor. Chem. Acc. 114, 145-152 (2005).
 Pseudopotentials for H to Kr optimized for gradient-corrected 
 exchange-correlation functionals.
 https://doi.org/10.1007/s00214-005-0655-y

 M. Frigo, S. G. Johnson.
 Proc. IEEE 93, 216-231 (2005).
 The design and implementation of FFTW3.
 https://doi.org/10.1109/JPROC.2004.840301

 C. Hartwigsen, S. Goedecker, J. Hutter.
 Phys. Rev. B 58, 3641-3662 (1998).
 Relativistic separable dual-space Gaussian pseudopotentials from H to Rn.
 https://doi.org/10.1103/PhysRevB.58.3641

 G. Lippert, J. Hutter, M. Parrinello.
 Mol. Phys. 92, 477-487 (1997).
 A hybrid Gaussian and plane wave density functional scheme.
 https://doi.org/10.1080/002689797170220

 S. Goedecker, M. Teter, J. Hutter.
 Phys. Rev. B 54, 1703-1710 (1996).
 Separable dual-space Gaussian pseudopotentials.
 https://doi.org/10.1103/PhysRevB.54.1703

 J. P. Perdew, K. Burke, M. Ernzerhof.
 Phys. Rev. Lett. 77, 3865-3868 (1996).
 Generalized gradient approximation made simple.
 https://doi.org/10.1103/PhysRevLett.77.3865


 -------------------------------------------------------------------------------
 -                                                                             -
 -                                T I M I N G                                  -
 -                                                                             -
 -------------------------------------------------------------------------------
 SUBROUTINE                       CALLS  ASD         SELF TIME        TOTAL TIME
                                MAXIMUM       AVERAGE  MAXIMUM  AVERAGE  MAXIMUM
 CP2K                                 1  1.0    0.010    0.013  108.854  108.854
 qs_energies                          1  2.0    0.017    0.124  108.577  108.637
 scf_env_do_scf                       1  3.0    0.000    0.000  107.235  107.236
 scf_env_do_scf_inner_loop           52  4.0    0.015    0.017  107.235  107.235
 do_general_diag_kp                  53  5.9    0.315    0.333   94.654   95.438
 qs_scf_new_mos_kp                   52  5.0    0.000    0.001   93.743   94.538
 dbcsr_complete_redistribute      81328  8.3    3.354    3.507   25.925   29.650
 copy_dbcsr_to_fm                 54704  7.0    0.597    0.640   27.192   27.550
 kpoint_density_transform            52  7.0    0.111    0.121   24.426   24.435
 dbcsr_desymmetrize_deep         108544  7.5    1.938    2.054   14.752   21.851
 rskp_transform                   26920  7.0   19.406   21.813   19.406   21.813
 mp_alltoall_i22                 189872  8.8    7.281   17.906    7.281   17.906
 copy_fm_to_dbcsr                 26624  8.0    0.168    0.179    9.700   12.950
 transform_dmat                   13312  8.0    9.391   10.587    9.391   10.587
 cp_fm_start_copy_general         80464  7.3    1.807    2.322   10.304   10.380
 dbcsr_finalize                  195108  8.8    0.947    1.003    6.788    7.208
 cp_cfm_geeig                      1701  6.9    0.014    0.016    6.813    6.910
 qs_ks_update_qs_env                 52  5.0    0.000    0.000    6.525    6.897
 rebuild_ks_matrix                   52  6.0    0.000    0.000    6.071    6.443
 qs_ks_build_kohn_sham_matrix        52  7.0    0.030    0.032    6.071    6.443
 mp_alltoall_d11v                569616  9.4    5.954    6.307    5.954    6.307
 mp_allgather_i                  160928  8.3    5.478    5.702    5.478    5.702
 cp_cfm_heevd                      1701  7.9    0.003    0.003    5.206    5.273
 cp_cfm_heevd_base                 1701  8.9    5.204    5.270    5.204    5.270
 mp_cart_sub                     109410  9.0    4.458    4.479    4.458    4.479
 dbcsr_merge_all                  81328 10.3    2.106    2.468    3.709    4.068
 hybrid_alltoall_any             108544  8.5    0.454    0.483    3.722    3.988
 sum_up_and_integrate                52  8.0    0.001    0.001    3.463    3.833
 integrate_v_rspace                  52  9.0    0.030    0.046    3.459    3.829
 qs_rho_update_rho_low               53  5.0    0.000    0.000    3.743    3.751
 calculate_rho_elec                  53  6.0    0.086    0.088    3.743    3.750
 mp_alltoall_i11v                352528  9.0    3.608    3.681    3.608    3.681
 grid_integrate_task_list            52 10.0    2.458    2.832    2.458    2.832
 fft_wrap_pw1pw2                    941 10.0    0.010    0.012    2.715    2.736
 mp_cart_create                   54711  9.0    2.617    2.658    2.617    2.658
 fft_wrap_pw1pw2_500                626 11.3    0.220    0.223    2.535    2.566
 grid_collocate_task_list            53  7.0    2.243    2.456    2.243    2.456
 mp_bcast_iv                     321879  8.3    1.902    2.158    1.902    2.158
 fft3d_ps                           941 12.0    0.943    0.971    2.104    2.141
 qs_vxc_create                       52  8.0    0.001    0.001    2.055    2.062
 xc_vxc_pw_create                    52  9.0    0.086    0.086    2.054    2.061
 gspace_mixing                       51  5.0    0.078    0.079    1.999    1.999
 density_rs2pw                       53  7.0    0.002    0.002    1.408    1.921
 dbcsr_work_create               189872  8.8    1.175    1.211    1.808    1.871
 dbcsr_create_new                303536  8.3    1.396    1.451    1.682    1.752
 broyden_mixing                      51  6.0    1.638    1.669    1.678    1.691
 dbcsr_work_destroy_all          189872  9.8    0.902    0.922    1.428    1.468
 transfer_rs2pw                     214  8.0    0.002    0.003    0.919    1.454
 dbcsr_iterator_start            560115  9.1    1.132    1.145    1.322    1.344
 dbcsr_copy                       56864  7.7    0.206    0.213    1.188    1.324
 copy_fm_to_dbcsr_bc              26624  9.0    0.370    0.386    1.255    1.305
 xc_pw_derive                       312 11.0    0.001    0.001    1.294    1.302
 transfer_rs2pw_500                  55  8.9    0.266    0.283    0.748    1.297
 cp_fm_finish_copy_general        33428  7.8    1.157    1.180    1.217    1.249
 copy_dbcsr_to_fm_bc              54704  8.0    0.562    0.568    1.225    1.236
 dbcsr_data_new                 2035617  9.8    1.133    1.186    1.133    1.186
 dbcsr_data_release             2812820 10.2    1.111    1.151    1.111    1.151
 tree_to_linear_d                 81328 11.3    1.105    1.148    1.105    1.148
 xc_rho_set_and_dset_create          52 10.0    0.051    0.053    1.126    1.129
 mp_sendrecv_dv                    1498 10.0    0.585    1.105    0.585    1.105
 dbcsr_copy_into_existing         26912 10.0    0.773    0.902    0.931    1.059
 mp_alltoall_z22v                   941 14.0    1.006    1.043    1.006    1.043
 potential_pw2rs                     52 10.0    0.005    0.005    0.971    0.978
 cp_cfm_triangular_multiply        5103  7.9    0.958    0.973    0.958    0.973
 write_kpoints_restart               52  5.0    0.004    0.009    0.907    0.908
 dbcsr_destroy                   273584  8.3    0.463    0.473    0.849    0.884
 xc_pw_divergence                    52 10.0    0.001    0.001    0.831    0.834
 dbcsr_iterator_stop             560115  9.1    0.698    0.704    0.823    0.829
 mp_waitall_1                    333451  8.3    0.483    0.784    0.483    0.784
 x_to_yz                            520 13.2    0.093    0.095    0.675    0.694
 transfer_pw2rs                     209 11.0    0.002    0.002    0.687    0.688
 kpoint_density_matrices             52  7.0    0.035    0.035    0.662    0.671
 mp_bcast_im                     160928  8.3    0.578    0.657    0.578    0.657
 quick_finalize                  108544  9.5    0.354    0.362    0.622    0.640
 parallel_gemm_fm                  6656  8.0    0.006    0.006    0.603    0.611
 parallel_gemm_fm_gemm             6656  9.0    0.006    0.007    0.597    0.605
 cp_fm_gemm                        6656 10.0    0.591    0.599    0.591    0.599
 transfer_pw2rs_500                  53 11.9    0.265    0.268    0.503    0.516
 yz_to_x                            421 12.8    0.054    0.057    0.478    0.492
 cp_fm_write_unformatted            864  6.0    0.211    0.443    0.260    0.472
 mp_comm_free                    164155  9.0    0.416    0.459    0.416    0.459
 evaluate_core_matrix_traces         52  6.0    0.000    0.000    0.453    0.453
 calculate_ptrace_kp                104  7.0    0.023    0.024    0.453    0.453
 dbcsr_dot                        29953  8.0    0.178    0.188    0.431    0.433
 xc_functional_eval                  52 11.0    0.000    0.001    0.383    0.386
 pbe_lda_eval                        52 12.0    0.383    0.386    0.383    0.386
 mp_isend_dv                      81056  8.3    0.315    0.343    0.315    0.343
 dbcsr_sort_indices              218826 10.9    0.312    0.324    0.312    0.324
 cp_cfm_triangular_invert          1701  7.9    0.304    0.308    0.304    0.308
 cp_cfm_cholesky_decompose         1701  7.9    0.288    0.299    0.288    0.299
 kpoint_set_mo_occupation            52  7.0    0.042    0.042    0.183    0.288
 self_consistency_check              52  5.0    0.022    0.022    0.263    0.277
 mp_send_dv                         864  7.0    0.045    0.266    0.045    0.266
 dbcsr_set                       167057  8.1    0.164    0.171    0.256    0.265
 mp_sum_d                         30791  8.9    0.203    0.257    0.203    0.257
 mp_sum_dm3                          52  8.0    0.141    0.246    0.141    0.246
 dbcsr_reserve_all_blocks         26624 10.0    0.045    0.050    0.214    0.230
 cp_sm_mix                        14976  6.0    0.075    0.080    0.212    0.230
 pw_scatter_p                       520 12.2    0.213    0.216    0.213    0.216
 dbcsr_iterator_seek             560115 10.1    0.190    0.208    0.190    0.208
 dbcsr_reserve_blocks             28954 10.6    0.154    0.167    0.185    0.198
 dbcsr_make_index_exist          303536  9.3    0.179    0.189    0.179    0.189
 merge_index                      81328 11.3    0.162    0.183    0.162    0.183
 pw_poisson_solve                    52  8.0    0.001    0.001    0.169    0.169
 mp_irecv_iv                     321856  8.3    0.020    0.159    0.020    0.159
 transfer_pw2rs_170                  52 12.0    0.067    0.070    0.142    0.156
 dbcsr_data_copy_aa2              81328 11.3    0.133    0.155    0.133    0.155
 mp_sum_dv                          347  3.6    0.069    0.155    0.069    0.155
 transfer_rs2pw_170                  53  9.0    0.054    0.055    0.129    0.147
 qs_energies_init_hamiltonians        1  3.0    0.000    0.000    0.134    0.134
 dbcsr_switch_data_area          108544 10.5    0.096    0.099    0.127    0.133
 mp_max_d                         14978  7.0    0.102    0.133    0.102    0.133
 mp_isendrecv_dv                   1463 13.0    0.068    0.132    0.068    0.132
 init_scf_run                         1  3.0    0.000    0.000    0.124    0.130
 scf_env_initial_rho_setup            1  4.0    0.000    0.000    0.123    0.130
 fft_wrap_pw1pw2_170                105 10.5    0.010    0.011    0.122    0.129
 cp_fm_cleanup_copy_general       57168  7.0    0.080    0.081    0.121    0.122
 restraint_control                    1  2.0    0.000    0.000    0.061    0.121
 mp_sum_i                             4  2.8    0.061    0.121    0.061    0.121
 pw_integral_ab_c1d_c1d_gs           52  9.0    0.112    0.113    0.115    0.116
 mp_isend_iv                     181192  8.3    0.029    0.110    0.029    0.110
 cp_cfm_scale_and_add_fm           6804  6.9    0.104    0.105    0.104    0.105
 dbcsr_zero                      167057  9.1    0.091    0.098    0.091    0.098
 cp_dbcsr_alloc_block_from_nbl     2330  5.4    0.068    0.079    0.086    0.097
 pw_gather_p                        421 11.8    0.090    0.093    0.090    0.093
 dbcsr_get_data_size_used        189872  9.8    0.081    0.090    0.081    0.090
 mp_irecv_im2                    160928  8.3    0.010    0.080    0.010    0.080
 build_core_hamiltonian_matrix        1  4.0    0.001    0.001    0.072    0.080
 qs_init_subsys                       1  2.0    0.001    0.002    0.077    0.078
 parser_read_line                  4213  4.1    0.001    0.002    0.076    0.077
 dbcsr_distribution_new           81330  8.6    0.070    0.076    0.070    0.076
 parser_read_line_low                22  6.3    0.008    0.029    0.075    0.076
 qs_env_setup                         1  3.0    0.000    0.000    0.075    0.075
 qs_env_rebuild_pw_env                2  3.5    0.000    0.000    0.074    0.075
 pw_env_rebuild                       1  5.0    0.001    0.001    0.074    0.074
 broadcast_input_information         22  7.3    0.026    0.029    0.067    0.072
 pw_grid_setup                        4  6.0    0.000    0.000    0.068    0.068
 qs_env_update_s_mstruct              1  4.0    0.000    0.000    0.057    0.068
 pw_grid_setup_internal               4  7.0    0.002    0.002    0.068    0.068
 dbcsr_make_dbcsr_index          218826 10.9    0.065    0.066    0.065    0.066
 pw_copy                            780 10.5    0.062    0.065    0.062    0.065
 pw_derive                          468 11.3    0.060    0.063    0.060    0.063
 topology_control                     1  2.0    0.000    0.000    0.061    0.062
 pw_copy_from_array                 520 12.2    0.047    0.059    0.047    0.059
 calculate_rho_core                   1  5.0    0.002    0.002    0.037    0.054
 mp_isend_im2                     90596  8.3    0.013    0.051    0.013    0.051
 mp_irecv_dv                      81056  8.3    0.047    0.049    0.047    0.049
 pw_grid_sort                         4  8.0    0.033    0.034    0.047    0.048
 cp_cfm_to_cfm_columns             1701  7.9    0.042    0.043    0.042    0.043
 cp_cfm_to_fm                      1701  6.9    0.042    0.043    0.042    0.043
 read_cell_cif                        2  4.5    0.002    0.004    0.041    0.042
 create_qs_kind_set                   1  2.0    0.000    0.000    0.042    0.042
 read_qs_kind                         1  3.0    0.021    0.022    0.042    0.042
 scf_post_calculation_gpw             1  3.0    0.000    0.000    0.041    0.041
 write_available_results              1  4.0    0.000    0.000    0.041    0.041
 write_mo_free_results                1  5.0    0.002    0.002    0.041    0.041
 pw_poisson_set                      53  8.9    0.001    0.001    0.037    0.038
 coordinate_control                   1  3.0    0.001    0.001    0.038    0.038
 mp_sum_dm                           51  7.0    0.024    0.038    0.024    0.038
 coordinate_control_READ_COORDI       1  4.0    0.000    0.000    0.037    0.038
 read_coordinate_cif                  1  5.0    0.002    0.002    0.037    0.038
 fft_wrap_pw1pw2_60                 105 10.5    0.002    0.002    0.034    0.035
 transfer_rs2pw_60                   53  9.0    0.009    0.009    0.030    0.035
 mixing_init                          1  5.0    0.031    0.033    0.033    0.033
 transfer_pw2rs_60                   52 12.0    0.011    0.012    0.030    0.033
 mp_bcast_i_src                      88  8.3    0.024    0.029    0.024    0.029
 mp_recv_dv                        2592  7.0    0.004    0.029    0.004    0.029
 mixing_allocate                      1  3.0    0.002    0.002    0.026    0.028
 pw_axpy                            524  9.3    0.024    0.026    0.024    0.026
 cp_fm_to_fm_matrix                3328  8.0    0.023    0.024    0.023    0.024
 pw_copy_to_array                   421 11.8    0.019    0.021    0.019    0.021
 calculate_hirshfeld_normalizat       1  6.0    0.004    0.005    0.019    0.020
 mp_bcast_am_src                     22  8.3    0.012    0.013    0.017    0.020
 build_overlap_matrix_low             1  5.0    0.006    0.006    0.018    0.019
 build_kinetic_matrix_low             1  5.0    0.005    0.005    0.016    0.018
 hirshfeld_integration                1  6.0    0.004    0.004    0.016    0.016
 pw_zero                            261 10.4    0.013    0.015    0.013    0.015
 fft_wrap_pw1pw2_20                 105 10.5    0.001    0.001    0.014    0.015
 build_core_ppl                       1  5.0    0.010    0.015    0.010    0.015
 sort_shells                          4  9.0    0.014    0.014    0.014    0.014
 cp_fm_create                       475  4.2    0.014    0.014    0.014    0.014
 qs_env_rebuild_rho                   1  5.0    0.000    0.000    0.012    0.013
 qs_rho_rebuild                       1  6.0    0.001    0.001    0.012    0.013
 transfer_pw2rs_20                   52 12.0    0.004    0.004    0.010    0.012
 calculate_first_density_matrix       1  5.0    0.000    0.000    0.006    0.012
 pw_grid_assign                       4  8.0    0.009    0.011    0.011    0.012
 transfer_rs2pw_20                   53  9.0    0.003    0.003    0.009    0.012
 calculate_atomic_block_dm            1  6.0    0.001    0.001    0.005    0.011
 -------------------------------------------------------------------------------

 The number of warnings for this run is : 1
 
 -------------------------------------------------------------------------------
  **** **** ******  **  PROGRAM ENDED AT                 2025-08-04 15:30:24.881
 ***** ** ***  *** **   PROGRAM RAN ON                              i01r02c01s11
 **    ****   ******    PROGRAM RAN BY                                   di38fab
 ***** **    ** ** **   PROGRAM PROCESS ID                               2385659
  **** **  *******  **  PROGRAM STOPPED IN /hppfs/scratch/04/di38fab/09_GTH/Delt
                                           a_Set/N/aug-SZV-MOLOPT-GTH-tier-2-SR/
                                           8x8x8
