Sn                                      
   1.00000000000000     
     4.075923    0.000000    2.353235
     1.358641    3.842817    2.353235
     0.000000    0.000000    4.706470
   Sn
     2
Direct
  0.000000  0.000000  0.000000
  0.250000  0.250000  0.250000
 
   40   40   40
  913.32      872.11      759.48      603.10      435.50      283.98      165.98      88.319      47.328      30.532    
  22.342      16.993      13.571      11.278      9.6461      8.4462      7.5802      6.9907      6.6127      6.3936    
  6.3194      6.3935      6.6127      6.9906      7.5803      8.4462      9.6462      11.278      13.571      16.993    
  22.342      30.532      47.328      88.319      165.98      283.98      435.50      603.10      759.48      872.11    
  872.11      794.87      660.47      499.78      342.84      211.63      117.76      62.367      36.967      26.572    
  20.135      16.022      13.342      11.478      10.117      9.1215      8.4287      7.9751      7.6943      7.5542    
  7.5558      7.6964      7.9742      8.4265      9.1222      10.120      11.478      13.339      16.021      20.137    
  26.573      36.964      62.364      117.76      211.63      342.84      499.77      660.48      794.88      872.11    
  759.48      660.47      523.07      376.22      244.33      142.95      77.624      44.171      30.556      23.241    
  18.482      15.430      13.366      11.883      10.793      10.022      9.5154      9.2018      9.0219      8.9607    
  9.0219      9.2019      9.5154      10.022      10.793      11.883      13.366      15.430      18.482      23.241    
  30.556      44.171      77.624      142.95      244.33      376.22      523.07      660.47      759.48      795.71    
  603.10      499.78      376.22      256.22      157.48      89.040      50.688      33.946      25.992      20.756    
  17.410      15.194      13.639      12.513      11.718      11.201      10.896      10.727      10.647      10.646    
  10.726      10.896      11.202      11.718      12.512      13.640      15.196      17.410      20.755      25.992    
  33.947      50.690      89.040      157.48      256.22      376.22      499.77      603.10      662.38      662.38    
  435.50      342.84      244.33      157.48      93.271      54.595      36.372      28.057      22.610      19.111    
  16.834      15.274      14.175      13.426      12.971      12.745      12.660      12.635      12.630      12.635    
  12.660      12.745      12.971      13.426      14.175      15.274      16.834      19.111      22.610      28.057    
  36.372      54.596      93.271      157.48      244.33      342.84      435.50      502.25      526.63      502.25    
  283.98      211.63      142.95      89.040      54.595      37.267      29.165      23.827      20.365      18.139    
  16.656      15.657      15.031      14.724      14.673      14.777      14.919      15.010      15.010      14.919    
  14.778      14.673      14.724      15.031      15.657      16.656      18.139      20.364      23.827      29.165    
  37.267      54.594      89.040      142.95      211.63      283.98      344.99      380.05      380.05      344.99    
  165.98      117.76      77.624      50.688      36.372      29.165      24.251      21.030      18.983      17.663    
  16.834      16.403      16.329      16.554      16.968      17.415      17.749      17.870      17.749      17.416    
  16.968      16.554      16.328      16.403      16.834      17.663      18.983      21.030      24.252      29.165    
  36.372      50.688      77.624      117.76      165.98      212.76      246.92      259.46      246.92      212.76    
  88.319      62.367      44.171      33.946      28.057      23.827      21.030      19.274      18.195      17.594    
  17.410      17.629      18.214      19.048      19.942      20.682      21.098      21.098      20.682      19.941    
  19.048      18.214      17.630      17.410      17.594      18.195      19.275      21.031      23.827      28.057    
  33.947      44.171      62.364      88.315      117.69      143.49      158.61      158.61      143.49      117.69    
  47.328      36.967      30.556      25.992      22.610      20.365      18.983      18.195      17.857      17.944    
  18.482      19.463      20.782      22.225      23.519      24.409      24.726      24.409      23.519      22.225    
  20.782      19.462      18.482      17.944      17.857      18.195      18.983      20.364      22.610      25.992    
  30.556      36.967      47.328      61.410      76.301      87.740      92.037      87.740      76.301      61.410    
  30.532      26.572      23.241      20.756      19.111      18.139      17.663      17.594      17.944      18.779    
  20.135      21.937      23.966      25.900      27.415      28.276      28.276      27.415      25.900      23.966    
  21.936      20.134      18.778      17.944      17.594      17.663      18.139      19.111      20.755      23.241    
  26.573      30.535      35.542      41.692      47.582      51.225      51.226      47.584      41.692      35.539    
  22.342      20.135      18.482      17.410      16.834      16.656      16.834      17.410      18.482      20.135    
  22.342      24.908      27.488      29.822      31.598      32.276      31.598      29.822      27.488      24.908    
  22.342      20.135      18.482      17.409      16.834      16.657      16.834      17.409      18.482      20.135    
  22.342      24.908      27.488      29.822      31.598      32.276      31.598      29.822      27.488      24.908    
  16.993      16.022      15.430      15.194      15.274      15.657      16.403      17.629      19.463      21.937    
  24.908      28.051      31.225      34.136      35.937      35.936      34.135      31.225      28.051      24.908    
  21.936      19.463      17.630      16.403      15.657      15.274      15.196      15.431      16.021      16.990    
  18.289      19.770      21.203      22.335      22.959      22.959      22.335      21.202      19.770      18.291    
  13.571      13.342      13.366      13.639      14.175      15.031      16.329      18.214      20.782      23.966    
  27.488      31.225      35.099      38.182      39.369      38.182      35.099      31.225      27.488      23.966    
  20.782      18.214      16.328      15.031      14.174      13.639      13.366      13.342      13.571      14.042    
  14.697      15.430      16.099      16.566      16.734      16.566      16.099      15.430      14.698      14.042    
  11.278      11.478      11.883      12.513      13.426      14.724      16.554      19.048      22.225      25.900    
  29.822      34.136      38.182      40.685      40.685      38.182      34.135      29.822      25.900      22.226    
  19.048      16.554      14.724      13.426      12.512      11.881      11.478      11.281      11.272      11.422    
  11.678      11.969      12.218      12.360      12.359      12.217      11.970      11.680      11.421      11.269    
  9.6461      10.117      10.793      11.718      12.971      14.673      16.968      19.942      23.519      27.415    
  31.598      35.937      39.369      40.685      39.368      35.936      31.598      27.415      23.519      19.942    
  16.968      14.673      12.971      11.718      10.793      10.117      9.6461      9.3521      9.2071      9.1749    
  9.2134      9.2801      9.3379      9.3605      9.3380      9.2801      9.2134      9.1748      9.2070      9.3521    
  8.4462      9.1215      10.022      11.201      12.745      14.777      17.415      20.682      24.409      28.276    
  32.276      35.936      38.182      38.182      35.936      32.276      28.276      24.409      20.682      17.416    
  14.778      12.746      11.202      10.023      9.1222      8.4448      7.9550      7.6218      7.4122      7.2917    
  7.2290      7.2007      7.1911      7.1916      7.2012      7.2284      7.2904      7.4121      7.6239      7.9578    
  7.5802      8.4287      9.5154      10.896      12.660      14.919      17.749      21.098      24.726      28.276    
  31.598      34.135      35.099      34.135      31.598      28.276      24.726      21.098      17.749      14.919    
  12.660      10.896      9.5155      8.4288      7.5802      6.9341      6.4601      6.1255      5.8966      5.7438    
  5.6460      5.5912      5.5735      5.5911      5.6459      5.7439      5.8967      6.1255      6.4601      6.9342    
  6.9907      7.9751      9.2018      10.727      12.635      15.010      17.870      21.098      24.409      27.415    
  29.822      31.225      31.225      29.822      27.415      24.409      21.098      17.870      15.010      12.635    
  10.726      9.1999      7.9741      6.9917      6.2176      5.6255      5.1879      4.8733      4.6509      4.4975    
  4.3996      4.3517      4.3518      4.3996      4.4976      4.6513      4.8737      5.1874      5.6236      6.2152    
  6.6127      7.6943      9.0219      10.647      12.630      15.010      17.749      20.682      23.519      25.900    
  27.488      28.051      27.488      25.900      23.519      20.682      17.749      15.010      12.630      10.647    
  9.0219      7.6942      6.6126      5.7418      5.0560      4.5309      4.1400      3.8559      3.6540      3.5171    
  3.4368      3.4102      3.4369      3.5172      3.6540      3.8559      4.1400      4.5308      5.0560      5.7419    
  6.3936      7.5542      8.9607      10.646      12.635      14.919      17.416      19.941      22.225      23.966    
  24.908      24.908      23.966      22.226      19.942      17.416      14.919      12.635      10.647      8.9627    
  7.5558      6.3932      5.4455      4.6874      4.0938      3.6392      3.2988      3.0503      2.8763      2.7649    
  2.7099      2.7096      2.7644      2.8762      3.0505      3.2987      3.6390      4.0945      4.6894      5.4477    
  6.3194      7.5558      9.0219      10.726      12.660      14.778      16.968      19.048      20.782      21.936    
  22.342      21.936      20.782      19.048      16.968      14.778      12.660      10.726      9.0219      7.5558    
  6.3194      5.2981      4.4732      3.8208      3.3139      2.9263      2.6358      2.4254      2.2830      2.2006    
  2.1737      2.2007      2.2830      2.4253      2.6357      2.9263      3.3140      3.8208      4.4732      5.2981    
  6.3935      7.6964      9.2019      10.896      12.745      14.673      16.554      18.214      19.462      20.134    
  20.135      19.463      18.214      16.554      14.673      12.746      10.896      9.1999      7.6942      6.3932    
  5.2981      4.4010      3.6847      3.1245      2.6928      2.3644      2.1207      1.9486      1.8391      1.7861    
  1.7862      1.8395      1.9489      2.1205      2.3642      2.6928      3.1246      3.6837      4.3989      5.2965    
  6.6127      7.9742      9.5154      11.202      12.971      14.724      16.328      17.630      18.482      18.778    
  18.482      17.630      16.328      14.724      12.971      11.202      9.5155      7.9741      6.6126      5.4455    
  4.4732      3.6847      3.0607      2.5766      2.2068      1.9292      1.7278      1.5919      1.5140      1.4886    
  1.5139      1.5920      1.7279      1.9292      2.2067      2.5766      3.0607      3.6846      4.4731      5.4455    
  6.9906      8.4265      10.022      11.718      13.426      15.031      16.403      17.410      17.944      17.944    
  17.409      16.403      15.031      13.426      11.718      10.023      8.4288      6.9917      5.7418      4.6874    
  3.8208      3.1245      2.5766      2.1539      1.8347      1.6003      1.4366      1.3335      1.2840      1.2840    
  1.3333      1.4362      1.6001      1.8350      2.1543      2.5765      3.1245      3.8219      4.6894      5.7429    
  7.5803      9.1222      10.793      12.512      14.175      15.657      16.834      17.594      17.857      17.594    
  16.834      15.657      14.174      12.512      10.793      9.1222      7.5802      6.2176      5.0560      4.0938    
  3.3139      2.6928      2.2068      1.8347      1.5581      1.3610      1.2302      1.1560      1.1319      1.1560    
  1.2302      1.3610      1.5581      1.8346      2.2067      2.6928      3.3140      4.0938      5.0560      6.2175    
  8.4462      10.120      11.883      13.640      15.274      16.656      17.663      18.195      18.195      17.663    
  16.657      15.274      13.639      11.881      10.117      8.4448      6.9341      5.6255      4.5309      3.6392    
  2.9263      2.3644      1.9292      1.6003      1.3610      1.1964      1.0944      1.0457      1.0457      1.0944    
  1.1967      1.3613      1.6002      1.9286      2.3642      2.9264      3.6390      4.5295      5.6237      6.9335    
  9.6462      11.478      13.366      15.196      16.834      18.139      18.983      19.275      18.983      18.139    
  16.834      15.196      13.366      11.478      9.6461      7.9550      6.4601      5.1879      4.1400      3.2988    
  2.6358      2.1207      1.7278      1.4366      1.2302      1.0944      1.0177     0.99298      1.0177      1.0944    
  1.2302      1.4366      1.7279      2.1207      2.6357      3.2987      4.1400      5.1879      6.4601      7.9550    
  11.278      13.339      15.430      17.410      19.111      20.364      21.030      21.031      20.364      19.111    
  17.409      15.431      13.342      11.281      9.3521      7.6218      6.1255      4.8733      3.8559      3.0503    
  2.4254      1.9486      1.5919      1.3335      1.1560      1.0457     0.99298     0.99294      1.0457      1.1559    
  1.3333      1.5918      1.9488      2.4259      3.0505      3.8557      4.8736      6.1272      7.6238      9.3521    
  13.571      16.021      18.482      20.755      22.610      23.827      24.252      23.827      22.610      20.755    
  18.482      16.021      13.571      11.272      9.2071      7.4122      5.8966      4.6509      3.6540      2.8763    
  2.2830      1.8391      1.5140      1.2840      1.1319      1.0457      1.0177      1.0457      1.1319      1.2840    
  1.5139      1.8391      2.2830      2.8763      3.6540      4.6510      5.8967      7.4123      9.2069      11.272    
  16.993      20.137      23.241      25.992      28.057      29.165      29.165      28.057      25.992      23.241    
  20.135      16.990      14.042      11.422      9.1749      7.2917      5.7438      4.4975      3.5171      2.7649    
  2.2006      1.7861      1.4886      1.2840      1.1560      1.0944      1.0944      1.1559      1.2840      1.4887    
  1.7863      2.2006      2.7644      3.5168      4.4976      5.7437      7.2904      9.1729      11.421      14.043    
  22.342      26.573      30.556      33.947      36.372      37.267      36.372      33.947      30.556      26.573    
  22.342      18.289      14.697      11.678      9.2134      7.2290      5.6460      4.3996      3.4368      2.7099    
  2.1737      1.7862      1.5139      1.3333      1.2302      1.1967      1.2302      1.3333      1.5139      1.7863    
  2.1737      2.7099      3.4368      4.3997      5.6459      7.2288      9.2134      11.678      14.698      18.289    
  30.532      36.964      44.171      50.690      54.596      54.594      50.688      44.171      36.967      30.535    
  24.908      19.770      15.430      11.969      9.2801      7.2007      5.5912      4.3517      3.4102      2.7096    
  2.2007      1.8395      1.5920      1.4362      1.3610      1.3613      1.4366      1.5918      1.8391      2.2006    
  2.7099      3.4104      4.3517      5.5913      7.2012      9.2809      11.970      15.431      19.770      24.906    
  47.328      62.364      77.624      89.040      93.271      89.040      77.624      62.364      47.328      35.542    
  27.488      21.203      16.099      12.218      9.3379      7.1911      5.5735      4.3518      3.4369      2.7644    
  2.2830      1.9489      1.7279      1.6001      1.5581      1.6002      1.7279      1.9488      2.2830      2.7644    
  3.4368      4.3517      5.5735      7.1912      9.3380      12.218      16.099      21.202      27.488      35.542    
  88.319      117.76      142.95      157.48      157.48      142.95      117.76      88.315      61.410      41.692    
  29.822      22.335      16.566      12.360      9.3605      7.1916      5.5911      4.3996      3.5172      2.8762    
  2.4253      2.1205      1.9292      1.8350      1.8346      1.9286      2.1207      2.4259      2.8763      3.5168    
  4.3997      5.5913      7.1912      9.3595      12.359      16.566      22.335      29.821      41.692      61.413    
  165.98      211.63      244.33      256.22      244.33      211.63      165.98      117.69      76.301      47.582    
  31.598      22.959      16.734      12.359      9.3380      7.2012      5.6459      4.4976      3.6540      3.0505    
  2.6357      2.3642      2.2067      2.1543      2.2067      2.3642      2.6357      3.0505      3.6540      4.4976    
  5.6459      7.2012      9.3380      12.359      16.734      22.959      31.598      47.583      76.301      117.69    
  283.98      342.84      376.22      376.22      342.84      283.98      212.76      143.49      87.740      51.225    
  32.276      22.959      16.566      12.217      9.2801      7.2284      5.7439      4.6513      3.8559      3.2987    
  2.9263      2.6928      2.5766      2.5765      2.6928      2.9264      3.2987      3.8557      4.6510      5.7437    
  7.2288      9.2809      12.218      16.566      22.959      32.277      51.226      87.740      143.49      212.75    
  435.50      499.77      523.07      499.77      435.50      344.99      246.92      158.61      92.037      51.226    
  31.598      22.335      16.099      11.970      9.2134      7.2904      5.8967      4.8737      4.1400      3.6390    
  3.3140      3.1246      3.0607      3.1245      3.3140      3.6390      4.1400      4.8736      5.8967      7.2904    
  9.2134      11.970      16.099      22.335      31.598      51.226      92.037      158.61      246.92      344.99    
  603.10      660.48      660.47      603.10      502.25      380.05      259.46      158.61      87.740      47.584    
  29.822      21.202      15.430      11.680      9.1748      7.4121      6.1255      5.1874      4.5308      4.0945    
  3.8208      3.6837      3.6846      3.8219      4.0938      4.5295      5.1879      6.1272      7.4123      9.1729    
  11.678      15.431      21.202      29.821      47.583      87.740      158.61      259.46      380.05      502.25    
  759.48      794.88      759.48      662.38      526.63      380.05      246.92      143.49      76.301      41.692    
  27.488      19.770      14.698      11.421      9.2070      7.6239      6.4601      5.6236      5.0560      4.6894    
  4.4732      4.3989      4.4731      4.6894      5.0560      5.6237      6.4601      7.6238      9.2069      11.421    
  14.698      19.770      27.488      41.692      76.301      143.49      246.92      380.05      526.63      662.38    
  872.11      872.11      795.71      662.38      502.25      344.99      212.76      117.69      61.410      35.539    
  24.908      18.291      14.042      11.269      9.3521      7.9578      6.9342      6.2152      5.7419      5.4477    
  5.2981      5.2965      5.4455      5.7429      6.2175      6.9335      7.9550      9.3521      11.272      14.043    
  18.289      24.906      35.542      61.413      117.69      212.75      344.99      502.25      662.38      795.70    
  872.11      794.87      660.47      499.78      342.84      211.63      117.76      62.367      36.967      26.572    
  20.135      16.022      13.342      11.478      10.117      9.1215      8.4287      7.9752      7.6943      7.5542    
  7.5558      7.6964      7.9741      8.4265      9.1222      10.120      11.478      13.339      16.021      20.137    
  26.573      36.964      62.364      117.76      211.63      342.84      499.77      660.48      794.88      872.11    
  794.87      691.27      547.64      394.23      256.39      150.13      81.256      45.659      31.183      23.667    
  18.779      15.656      13.554      12.047      10.940      10.157      9.6437      9.3267      9.1446      9.0826    
  9.1446      9.3266      9.6439      10.157      10.940      12.046      13.553      15.655      18.779      23.667    
  31.182      45.659      81.257      150.13      256.38      394.23      547.64      691.28      794.88      832.80    
  660.47      547.64      412.85      281.85      173.60      97.811      54.618      35.524      26.996      21.463    
  17.944      15.637      14.029      12.869      12.050      11.518      11.208      11.038      10.957      10.956    
  11.036      11.209      11.520      12.050      12.868      14.029      15.638      17.944      21.461      26.994    
  35.525      54.620      97.811      173.59      281.85      412.85      547.64      660.47      725.29      725.29    
  499.78      394.23      281.85      182.16      107.48      61.447      39.224      29.737      23.817      20.028    
  17.594      15.948      14.798      14.020      13.552      13.328      13.251      13.235      13.234      13.235    
  13.251      13.327      13.552      14.021      14.799      15.948      17.594      20.028      23.817      29.737    
  39.224      61.448      107.48      182.16      281.85      394.22      499.77      575.83      603.63      575.83    
  342.84      256.39      173.60      107.48      64.002      41.411      31.545      25.578      21.709      19.262    
  17.663      16.604      15.953      15.649      15.625      15.770      15.951      16.065      16.065      15.951    
  15.770      15.625      15.649      15.954      16.604      17.663      19.261      21.709      25.578      31.545    
  41.411      64.003      107.48      173.60      256.38      342.84      415.50      457.21      457.21      415.50    
  211.63      150.13      97.811      61.447      41.411      32.175      26.521      22.806      20.483      19.026    
  18.139      17.704      17.672      17.978      18.498      19.049      19.456      19.604      19.456      19.049    
  18.498      17.978      17.671      17.703      18.139      19.026      20.483      22.806      26.521      32.176    
  41.410      61.446      97.810      150.13      211.63      270.55      313.33      328.99      313.33      270.55    
  117.76      81.256      54.618      39.224      31.545      26.521      23.187      21.129      19.906      19.262    
  19.111      19.438      20.193      21.237      22.340      23.247      23.753      23.753      23.247      22.341    
  21.237      20.193      19.437      19.111      19.261      19.906      21.130      23.187      26.521      31.545    
  39.224      54.618      81.256      117.76      157.94      192.66      212.84      212.84      192.66      157.94    
  62.367      45.659      35.524      29.737      25.578      22.806      21.129      20.210      19.856      20.028    
  20.756      22.025      23.697      25.498      27.092      28.198      28.606      28.198      27.092      25.500    
  23.699      22.026      20.755      20.027      19.856      20.211      21.130      22.806      25.578      29.738    
  35.526      45.658      62.363      84.219      106.60      123.45      129.72      123.45      106.60      84.222    
  36.967      31.183      26.996      23.817      21.709      20.483      19.906      19.856      20.347      21.463    
  23.241      25.564      28.130      30.670      32.980      34.413      34.413      32.979      30.672      28.133    
  25.566      23.241      21.461      20.345      19.856      19.906      20.483      21.709      23.817      26.995    
  31.182      36.966      45.660      56.412      66.466      72.568      72.568      66.465      56.411      45.660    
  26.572      23.667      21.463      20.028      19.262      19.026      19.262      20.028      21.463      23.667    
  26.572      29.897      33.720      37.873      41.226      42.521      41.225      37.874      33.722      29.900    
  26.574      23.667      21.461      20.027      19.261      19.026      19.261      20.027      21.461      23.667    
  26.574      29.900      33.722      37.874      41.225      42.521      41.226      37.873      33.720      29.897    
  20.135      18.779      17.944      17.594      17.663      18.139      19.111      20.756      23.241      26.572    
  30.532      35.539      41.692      47.584      51.226      51.225      47.582      41.692      35.542      30.535    
  26.573      23.241      20.755      19.111      18.139      17.663      17.594      17.944      18.778      20.134    
  21.936      23.966      25.900      27.415      28.276      28.276      27.415      25.900      23.966      21.937    
  16.022      15.656      15.637      15.948      16.604      17.704      19.438      22.025      25.564      29.897    
  35.539      43.144      51.463      58.029      60.528      58.027      51.461      43.144      35.541      29.900    
  25.565      22.025      19.437      17.703      16.604      15.949      15.638      15.657      16.021      16.723    
  17.687      18.755      19.724      20.397      20.637      20.396      19.724      18.756      17.689      16.726    
  13.342      13.554      14.029      14.798      15.953      17.672      20.193      23.697      28.130      33.720    
  41.692      51.463      60.607      66.165      66.165      60.606      51.461      41.690      33.721      28.132    
  23.698      20.192      17.671      15.954      14.799      14.029      13.553      13.342      13.382      13.643    
  14.054      14.512      14.899      15.119      15.118      14.898      14.512      14.055      13.643      13.381    
  11.478      12.047      12.869      14.020      15.649      17.978      21.237      25.498      30.670      37.873    
  47.584      58.029      66.165      69.243      66.165      58.028      47.583      37.873      30.671      25.500    
  21.237      17.978      15.649      14.020      12.868      12.045      11.478      11.133      10.981      10.983    
  11.082      11.213      11.318      11.358      11.318      11.213      11.082      10.983      10.979      11.131    
  10.117      10.940      12.050      13.552      15.625      18.498      22.340      27.092      32.980      41.226    
  51.226      60.528      66.165      66.165      60.527      51.225      41.225      32.979      27.092      22.341    
  18.498      15.625      13.552      12.050      10.940      10.117      9.5233      9.1215      8.8774      8.7507    
  8.6989      8.6860      8.6866      8.6869      8.6865      8.6987      8.7500      8.8773      9.1222      9.5239    
  9.1215      10.157      11.518      13.328      15.770      19.049      23.247      28.198      34.413      42.521    
  51.225      58.027      60.606      58.028      51.225      42.519      34.412      28.198      23.247      19.049    
  15.770      13.328      11.520      10.159      9.1221      8.3389      7.7636      7.3585      7.0863      6.9112    
  6.8038      6.7456      6.7272      6.7459      6.8040      6.9109      7.0863      7.3597      7.7660      8.3406    
  8.4287      9.6437      11.208      13.251      15.951      19.456      23.753      28.606      34.413      41.225    
  47.582      51.461      51.461      47.583      41.225      34.412      28.606      23.754      19.456      15.950    
  13.251      11.208      9.6442      8.4288      7.4862      6.7699      6.2419      5.8642      5.6005      5.4213    
  5.3084      5.2532      5.2528      5.3080      5.4214      5.6009      5.8642      6.2415      6.7697      7.4864    
  7.9752      9.3267      11.038      13.235      16.065      19.604      23.753      28.198      32.979      37.874    
  41.692      43.144      41.690      37.873      32.979      28.198      23.754      19.605      16.065      13.235    
  11.036      9.3244      7.9742      6.9059      6.0721      5.4386      4.9718      4.6358      4.3985      4.2381    
  4.1443      4.1133      4.1442      4.2379      4.3983      4.6358      4.9714      5.4372      6.0700      6.9047    
  7.6943      9.1446      10.957      13.234      16.065      19.456      23.247      27.092      30.672      33.722    
  35.542      35.541      33.721      30.671      27.092      23.247      19.456      16.065      13.234      10.957    
  9.1444      7.6941      6.5316      5.6085      4.8899      4.3451      3.9430      3.6532      3.4505      3.3200    
  3.2555      3.2557      3.3203      3.4505      3.6529      3.9430      4.3452      4.8899      5.6083      6.5316    
  7.5542      9.0826      10.956      13.235      15.951      19.049      22.341      25.500      28.133      29.900    
  30.535      29.900      28.132      25.500      22.341      19.049      15.950      13.235      10.957      9.0848    
  7.5559      6.3148      5.3191      4.5339      3.9272      3.4681      3.1287      2.8854      2.7208      2.6245    
  2.5925      2.6242      2.7208      2.8858      3.1290      3.4681      3.9276      4.5355      5.3209      6.3151    
  7.5558      9.1446      11.036      13.251      15.770      18.498      21.237      23.699      25.566      26.574    
  26.573      25.565      23.698      21.237      18.498      15.770      13.251      11.036      9.1444      7.5559    
  6.2421      5.1752      4.3265      3.6651      3.1584      2.7763      2.4949      2.2969      2.1707      2.1092    
  2.1091      2.1705      2.2969      2.4950      2.7763      3.1583      3.6652      4.3266      5.1751      6.2419    
  7.6964      9.3266      11.209      13.327      15.625      17.978      20.193      22.026      23.241      23.667    