Sn                                      
   1.00000000000000     
     4.075923    0.000000    2.353235
     1.358641    3.842817    2.353235
     0.000000    0.000000    4.706470
   Sn
     2
Direct
  0.000000  0.000000  0.000000
  0.250000  0.250000  0.250000
 
   40   40   40
 0.91331673205E+03 0.87210927449E+03 0.75948455878E+03 0.60310125398E+03 0.43550472690E+03
 0.28397858945E+03 0.16598348074E+03 0.88319214936E+02 0.47327944884E+02 0.30531564710E+02
 0.22341935568E+02 0.16992715788E+02 0.13571095463E+02 0.11278436846E+02 0.96461097440E+01
 0.84461793593E+01 0.75802336804E+01 0.69906548993E+01 0.66126916198E+01 0.63935725567E+01
 0.63194302659E+01 0.63935446739E+01 0.66126523374E+01 0.69906318423E+01 0.75802524764E+01
 0.84462415343E+01 0.96461782804E+01 0.11278459140E+02 0.13571057988E+02 0.16992668409E+02
 0.22341940571E+02 0.30531622243E+02 0.47327990723E+02 0.88319198014E+02 0.16598342165E+03
 0.28397854840E+03 0.43550473073E+03 0.60310127656E+03 0.75948456724E+03 0.87210926932E+03
 0.87210927449E+03 0.79487035453E+03 0.66047233250E+03 0.49977544609E+03 0.34284025678E+03
 0.21163095627E+03 0.11775609489E+03 0.62366697404E+02 0.36966597887E+02 0.26571868531E+02
 0.20134638735E+02 0.16022249919E+02 0.13341738490E+02 0.11478355511E+02 0.10117017424E+02
 0.91215376553E+01 0.84286791828E+01 0.79751450819E+01 0.76942681463E+01 0.75542226835E+01
 0.75558499401E+01 0.76963601774E+01 0.79741737705E+01 0.84265251348E+01 0.91222335853E+01
 0.10119600116E+02 0.11478278529E+02 0.13338703008E+02 0.16020984462E+02 0.20136937349E+02
 0.26573398734E+02 0.36964241486E+02 0.62364033919E+02 0.11775733477E+03 0.21163350590E+03
 0.34283919780E+03 0.49977295741E+03 0.66047540457E+03 0.79487894755E+03 0.87211412423E+03
 0.75948455878E+03 0.66047233250E+03 0.52307404869E+03 0.37621893910E+03 0.24433414851E+03
 0.14294994702E+03 0.77623833064E+02 0.44171198401E+02 0.30555577284E+02 0.23241352411E+02
 0.18481860277E+02 0.15429961523E+02 0.13365963077E+02 0.11882659828E+02 0.10792967706E+02
 0.10021747895E+02 0.95154111118E+01 0.92018362688E+01 0.90219001920E+01 0.89606531249E+01
 0.90219188671E+01 0.92018646474E+01 0.95154132702E+01 0.10021719248E+02 0.10792985699E+02
 0.11882780537E+02 0.13366100144E+02 0.15429984730E+02 0.18481790333E+02 0.23241332400E+02
 0.30555662687E+02 0.44171296078E+02 0.77623841082E+02 0.14294984867E+03 0.24433399478E+03
 0.37621885092E+03 0.52307418621E+03 0.66047270755E+03 0.75948490494E+03 0.79570968675E+03
 0.60310125398E+03 0.49977544609E+03 0.37621893910E+03 0.25621512894E+03 0.15747659054E+03
 0.89040366359E+02 0.50688028430E+02 0.33945951767E+02 0.25992471944E+02 0.20756379131E+02
 0.17409532889E+02 0.15194459329E+02 0.13639300325E+02 0.12513317446E+02 0.11717973551E+02
 0.11200793529E+02 0.10896167386E+02 0.10727238171E+02 0.10646902698E+02 0.10646059873E+02
 0.10726066047E+02 0.10896440020E+02 0.11201746572E+02 0.11717760291E+02 0.12512366628E+02
 0.13639691601E+02 0.15196228001E+02 0.17410306215E+02 0.20755270285E+02 0.25991718846E+02
 0.33947291453E+02 0.50689760178E+02 0.89040151792E+02 0.15747529886E+03 0.25621500715E+03
 0.37621910600E+03 0.49977283457E+03 0.60309622161E+03 0.66237649534E+03 0.66237917444E+03
 0.43550472690E+03 0.34284025678E+03 0.24433414851E+03 0.15747659054E+03 0.93271382758E+02
 0.54595462489E+02 0.36371790780E+02 0.28056784974E+02 0.22609954626E+02 0.19111250053E+02
 0.16834158253E+02 0.15273612222E+02 0.14174528279E+02 0.13425619092E+02 0.12970540365E+02
 0.12745119918E+02 0.12660183417E+02 0.12635373662E+02 0.12630155172E+02 0.12635434882E+02
 0.12660164277E+02 0.12745049797E+02 0.12970581957E+02 0.13425739035E+02 0.14174561594E+02
 0.15273612280E+02 0.16834304105E+02 0.19111454729E+02 0.22609966442E+02 0.28056637569E+02
 0.36371746223E+02 0.54595550036E+02 0.93271410111E+02 0.15747656547E+03 0.24433425029E+03
 0.34284042251E+03 0.43550471682E+03 0.50224526056E+03 0.52662632206E+03 0.50224540260E+03
 0.28397858945E+03 0.21163095627E+03 0.14294994702E+03 0.89040366359E+02 0.54595462489E+02
 0.37267193737E+02 0.29164601244E+02 0.23827285974E+02 0.20364539610E+02 0.18139140315E+02
 0.16656382387E+02 0.15657448654E+02 0.15031409764E+02 0.14724116454E+02 0.14673117006E+02
 0.14777300897E+02 0.14919075966E+02 0.15010077298E+02 0.15010182244E+02 0.14919364675E+02
 0.14777642272E+02 0.14673263951E+02 0.14723908505E+02 0.15030989921E+02 0.15657122635E+02
 0.16656237318E+02 0.18139005360E+02 0.20364363933E+02 0.23827214214E+02 0.29164501925E+02
 0.37266591603E+02 0.54594424101E+02 0.89040048959E+02 0.14295147858E+03 0.21163386161E+03
 0.28398113360E+03 0.34499078720E+03 0.38005367021E+03 0.38005345454E+03 0.34498962991E+03
 0.16598348074E+03 0.11775609489E+03 0.77623833064E+02 0.50688028430E+02 0.36371790780E+02
 0.29164601244E+02 0.24251483642E+02 0.21030455519E+02 0.18982634225E+02 0.17663273174E+02
 0.16834244580E+02 0.16402732812E+02 0.16328545955E+02 0.16554298421E+02 0.16968153464E+02
 0.17415490337E+02 0.17748523694E+02 0.17870293188E+02 0.17748605967E+02 0.17415581171E+02
 0.16968148586E+02 0.16554174597E+02 0.16328412453E+02 0.16402697367E+02 0.16834265232E+02
 0.17663241242E+02 0.18982563901E+02 0.21030463179E+02 0.24251592210E+02 0.29164691409E+02
 0.36371754804E+02 0.50687875155E+02 0.77623652909E+02 0.11775601846E+03 0.16598363393E+03
 0.21275794441E+03 0.24691698630E+03 0.25945704903E+03 0.24691666521E+03 0.21275758186E+03
 0.88319214936E+02 0.62366697404E+02 0.44171198401E+02 0.33945951767E+02 0.28056784974E+02
 0.23827285974E+02 0.21030455519E+02 0.19274076988E+02 0.18194599979E+02 0.17594083098E+02
 0.17409576138E+02 0.17629180898E+02 0.18213968446E+02 0.19048286046E+02 0.19941734406E+02
 0.20681767630E+02 0.21097535642E+02 0.21097783084E+02 0.20682002055E+02 0.19941358675E+02
 0.19047770601E+02 0.18214162501E+02 0.17629882693E+02 0.17409842920E+02 0.17593815071E+02
 0.18194647151E+02 0.19274650587E+02 0.21030744795E+02 0.23827134990E+02 0.28057284451E+02
 0.33947282876E+02 0.44171283369E+02 0.62363851249E+02 0.88315321936E+02 0.11768961273E+03
 0.14348848461E+03 0.15861188397E+03 0.15861053900E+03 0.14348673322E+03 0.11769090619E+03
 0.47327944884E+02 0.36966597887E+02 0.30555577284E+02 0.25992471944E+02 0.22609954626E+02
 0.20364539610E+02 0.18982634225E+02 0.18194599979E+02 0.17856572642E+02 0.17943985855E+02
 0.18481865607E+02 0.19462510113E+02 0.20781636935E+02 0.22225278613E+02 0.23519220582E+02
 0.24409407575E+02 0.24725652282E+02 0.24409480705E+02 0.23519411468E+02 0.22225456853E+02
 0.20781584803E+02 0.19462268051E+02 0.18481713396E+02 0.17944036851E+02 0.17856647907E+02
 0.18194547694E+02 0.18982516397E+02 0.20364448817E+02 0.22609890132E+02 0.25992457362E+02
 0.30555672318E+02 0.36966728028E+02 0.47327923974E+02 0.61409719834E+02 0.76300554955E+02
 0.87739975325E+02 0.92036802451E+02 0.87740115388E+02 0.76300807143E+02 0.61409936036E+02
 0.30531564710E+02 0.26571868531E+02 0.23241352411E+02 0.20756379131E+02 0.19111250053E+02
 0.18139140315E+02 0.17663273174E+02 0.17594083098E+02 0.17943985855E+02 0.18778831875E+02
 0.20134736455E+02 0.21936747914E+02 0.23965776995E+02 0.25899856330E+02 0.27414983506E+02
 0.28275647819E+02 0.28275725876E+02 0.27415233460E+02 0.25900167675E+02 0.23965840199E+02
 0.21936405624E+02 0.20134217863E+02 0.18778428739E+02 0.17943725193E+02 0.17593908016E+02
 0.17663205222E+02 0.18138973423E+02 0.19110517673E+02 0.20755185282E+02 0.23240932176E+02
 0.26573488270E+02 0.30534707527E+02 0.35541656919E+02 0.41691515781E+02 0.47582495161E+02
 0.51224915819E+02 0.51226016225E+02 0.47584415581E+02 0.41691705196E+02 0.35539298056E+02
 0.22341935568E+02 0.20134638735E+02 0.18481860277E+02 0.17409532889E+02 0.16834158253E+02
 0.16656382387E+02 0.16834244580E+02 0.17409576138E+02 0.18481865607E+02 0.20134736455E+02
 0.22342106747E+02 0.24907803115E+02 0.27488046069E+02 0.29821913551E+02 0.31597823787E+02
 0.32276119051E+02 0.31597841000E+02 0.29821952562E+02 0.27488061331E+02 0.24907751106E+02
 0.22342016580E+02 0.20134629501E+02 0.18481704450E+02 0.17409417832E+02 0.16834282343E+02
 0.16656643885E+02 0.16834343947E+02 0.17409406383E+02 0.18481621129E+02 0.20134609776E+02
 0.22342058782E+02 0.24907719690E+02 0.27487961929E+02 0.29821930672E+02 0.31597903591E+02
 0.32276127400E+02 0.31597763481E+02 0.29821900382E+02 0.27488065199E+02 0.24907718771E+02
 0.16992715788E+02 0.16022249919E+02 0.15429961523E+02 0.15194459329E+02 0.15273612222E+02
 0.15657448654E+02 0.16402732812E+02 0.17629180898E+02 0.19462510113E+02 0.21936747914E+02
 0.24907803115E+02 0.28050563131E+02 0.31224833959E+02 0.34135687846E+02 0.35936602657E+02
 0.35936266300E+02 0.34135316738E+02 0.31225173954E+02 0.28051094785E+02 0.24907686667E+02
 0.21936388229E+02 0.19462848379E+02 0.17629920818E+02 0.16402785374E+02 0.15657017530E+02
 0.15274191806E+02 0.15196313775E+02 0.15431080584E+02 0.16020801596E+02 0.16989584844E+02
 0.18288824689E+02 0.19769678233E+02 0.21202525212E+02 0.22335164143E+02 0.22959339774E+02
 0.22959205499E+02 0.22334561063E+02 0.21201656679E+02 0.19769863743E+02 0.18291079987E+02
 0.13571095463E+02 0.13341738490E+02 0.13365963077E+02 0.13639300325E+02 0.14174528279E+02
 0.15031409764E+02 0.16328545955E+02 0.18213968446E+02 0.20781636935E+02 0.23965776995E+02
 0.27488046069E+02 0.31224833959E+02 0.35099253448E+02 0.38182016905E+02 0.39368659596E+02
 0.38181967745E+02 0.35099279725E+02 0.31224950946E+02 0.27488130036E+02 0.23965783552E+02
 0.20781646990E+02 0.18213990721E+02 0.16328481380E+02 0.15031266868E+02 0.14174478122E+02
 0.13639432491E+02 0.13366145280E+02 0.13341804193E+02 0.13571040634E+02 0.14041732683E+02
 0.14697466782E+02 0.15430145572E+02 0.16098898861E+02 0.16566165502E+02 0.16733702273E+02
 0.16566174146E+02 0.16098930618E+02 0.15430197644E+02 0.14697532859E+02 0.14041815476E+02
 0.11278436846E+02 0.11478355511E+02 0.11882659828E+02 0.12513317446E+02 0.13425619092E+02
 0.14724116454E+02 0.16554298421E+02 0.19048286046E+02 0.22225278613E+02 0.25899856330E+02
 0.29821913551E+02 0.34135687846E+02 0.38182016905E+02 0.40684560039E+02 0.40684674820E+02
 0.38181996255E+02 0.34135219120E+02 0.29821549183E+02 0.25900140483E+02 0.22225652340E+02
 0.19047913522E+02 0.16553544391E+02 0.14723936478E+02 0.13425695027E+02 0.12512381778E+02
 0.11880991408E+02 0.11478247862E+02 0.11281098589E+02 0.11272496916E+02 0.11422297241E+02
 0.11678229486E+02 0.11969044486E+02 0.12217727226E+02 0.12359660862E+02 0.12359078407E+02
 0.12217230361E+02 0.11970121005E+02 0.11679594844E+02 0.11421325054E+02 0.11269180755E+02
 0.96461097440E+01 0.10117017424E+02 0.10792967706E+02 0.11717973551E+02 0.12970540365E+02
 0.14673117006E+02 0.16968153464E+02 0.19941734406E+02 0.23519220582E+02 0.27414983506E+02
 0.31597823787E+02 0.35936602657E+02 0.39368659596E+02 0.40684674820E+02 0.39368440612E+02
 0.35936381686E+02 0.31597756972E+02 0.27415021467E+02 0.23519261032E+02 0.19941777005E+02
 0.16968235036E+02 0.14673203936E+02 0.12970579106E+02 0.11717982990E+02 0.10792998035E+02
 0.10117061662E+02 0.96461317947E+01 0.93521419163E+01 0.92070523760E+01 0.91749161127E+01
 0.92134107686E+01 0.92800788680E+01 0.93379053868E+01 0.93604923947E+01 0.93379868628E+01
 0.92801417386E+01 0.92133799614E+01 0.91748276513E+01 0.92069903619E+01 0.93521241129E+01
 0.84461793593E+01 0.91215376553E+01 0.10021747895E+02 0.11200793529E+02 0.12745119918E+02
 0.14777300897E+02 0.17415490337E+02 0.20681767630E+02 0.24409407575E+02 0.28275647819E+02
 0.32276119051E+02 0.35936266300E+02 0.38181967745E+02 0.38181996255E+02 0.35936381686E+02
 0.32276288823E+02 0.28275733002E+02 0.24409414285E+02 0.20681898653E+02 0.17415789256E+02
 0.14777592800E+02 0.12745521851E+02 0.11201778609E+02 0.10023197539E+02 0.91221736331E+01
 0.84447893620E+01 0.79550385055E+01 0.76218336048E+01 0.74122370157E+01 0.72916507399E+01
 0.72289514132E+01 0.72006633399E+01 0.71911112132E+01 0.71915682637E+01 0.72012024845E+01
 0.72283641109E+01 0.72903723276E+01 0.74121357666E+01 0.76238556877E+01 0.79578318820E+01
 0.75802336804E+01 0.84286791828E+01 0.95154111118E+01 0.10896167386E+02 0.12660183417E+02
 0.14919075966E+02 0.17748523694E+02 0.21097535642E+02 0.24725652282E+02 0.28275725876E+02
 0.31597841000E+02 0.34135316738E+02 0.35099279725E+02 0.34135219120E+02 0.31597756972E+02
 0.28275733002E+02 0.24725742843E+02 0.21097675004E+02 0.17748648594E+02 0.14919087406E+02
 0.12660070488E+02 0.10896076314E+02 0.95154546557E+01 0.84287597627E+01 0.75802100227E+01
 0.69341478020E+01 0.64600900416E+01 0.61255249306E+01 0.58966464313E+01 0.57437918658E+01
 0.56460272692E+01 0.55912304241E+01 0.55734647282E+01 0.55910583119E+01 0.56459279111E+01
 0.57438585474E+01 0.58967188392E+01 0.61255111404E+01 0.64600970311E+01 0.69342244591E+01
 0.69906548993E+01 0.79751450819E+01 0.92018362688E+01 0.10727238171E+02 0.12635373662E+02
 0.15010077298E+02 0.17870293188E+02 0.21097783084E+02 0.24409480705E+02 0.27415233460E+02
 0.29821952562E+02 0.31225173954E+02 0.31224950946E+02 0.29821549183E+02 0.27415021467E+02
 0.24409414285E+02 0.21097675004E+02 0.17870286880E+02 0.15010286772E+02 0.12635246774E+02
 0.10726039423E+02 0.91999380185E+01 0.79741425370E+01 0.69916908046E+01 0.62175891619E+01
 0.56255189402E+01 0.51878858349E+01 0.48732802002E+01 0.46509305739E+01 0.44974549384E+01
 0.43996243346E+01 0.43517331852E+01 0.43517514066E+01 0.43996484519E+01 0.44975686299E+01
 0.46513311307E+01 0.48737071659E+01 0.51874270255E+01 0.56236375979E+01 0.62152312730E+01
 0.66126916198E+01 0.76942681463E+01 0.90219001920E+01 0.10646902698E+02 0.12630155172E+02
 0.15010182244E+02 0.17748605967E+02 0.20682002055E+02 0.23519411468E+02 0.25900167675E+02
 0.27488061331E+02 0.28051094785E+02 0.27488130036E+02 0.25900140483E+02 0.23519261032E+02
 0.20681898653E+02 0.17748648594E+02 0.15010286772E+02 0.12630238552E+02 0.10646972177E+02
 0.90219324639E+01 0.76942017201E+01 0.66125740446E+01 0.57418187940E+01 0.50560071704E+01
 0.45308623223E+01 0.41400217375E+01 0.38559125513E+01 0.36539926690E+01 0.35171396545E+01
 0.34367624519E+01 0.34101519297E+01 0.34368529983E+01 0.35171955723E+01 0.36539764204E+01
 0.38559011959E+01 0.41400280690E+01 0.45308241594E+01 0.50559549061E+01 0.57418580889E+01
 0.63935725567E+01 0.75542226835E+01 0.89606531249E+01 0.10646059873E+02 0.12635434882E+02
 0.14919364675E+02 0.17415581171E+02 0.19941358675E+02 0.22225456853E+02 0.23965840199E+02
 0.24907751106E+02 0.24907686667E+02 0.23965783552E+02 0.22225652340E+02 0.19941777005E+02
 0.17415789256E+02 0.14919087406E+02 0.12635246774E+02 0.10646972177E+02 0.89626763316E+01
 0.75558205017E+01 0.63931679631E+01 0.54455195552E+01 0.46873551674E+01 0.40937660267E+01
 0.36392333566E+01 0.32988160657E+01 0.30503419506E+01 0.28762896039E+01 0.27648592572E+01
 0.27099253988E+01 0.27096280920E+01 0.27643894081E+01 0.28762400534E+01 0.30505369270E+01
 0.32986760139E+01 0.36389789926E+01 0.40944794089E+01 0.46894438082E+01 0.54476773857E+01
 0.63194302659E+01 0.75558499401E+01 0.90219188671E+01 0.10726066047E+02 0.12660164277E+02
 0.14777642272E+02 0.16968148586E+02 0.19047770601E+02 0.20781584803E+02 0.21936405624E+02
 0.22342016580E+02 0.21936388229E+02 0.20781646990E+02 0.19047913522E+02 0.16968235036E+02
 0.14777592800E+02 0.12660070488E+02 0.10726039423E+02 0.90219324639E+01 0.75558205017E+01
 0.63193735567E+01 0.52981315699E+01 0.44731807883E+01 0.38207530103E+01 0.33138930300E+01
 0.29262933575E+01 0.26357609804E+01 0.24253939002E+01 0.22830497695E+01 0.22006447231E+01
 0.21736691081E+01 0.22006673001E+01 0.22830200587E+01 0.24253014544E+01 0.26357050876E+01
 0.29263458025E+01 0.33139883468E+01 0.38207849726E+01 0.44731567979E+01 0.52981408298E+01
 0.63935446739E+01 0.76963601774E+01 0.92018646474E+01 0.10896440020E+02 0.12745049797E+02
 0.14673263951E+02 0.16554174597E+02 0.18214162501E+02 0.19462268051E+02 0.20134217863E+02
 0.20134629501E+02 0.19462848379E+02 0.18213990721E+02 0.16553544391E+02 0.14673203936E+02
 0.12745521851E+02 0.10896076314E+02 0.91999380185E+01 0.76942017201E+01 0.63931679631E+01
 0.52981315699E+01 0.44009810803E+01 0.36846697987E+01 0.31245435437E+01 0.26928032866E+01
 0.23644386126E+01 0.21206930301E+01 0.19486160874E+01 0.18391188054E+01 0.17860537520E+01
 0.17862453497E+01 0.18395310646E+01 0.19488610274E+01 0.21205358413E+01 0.23641640839E+01
 0.26928392996E+01 0.31245775237E+01 0.36837386675E+01 0.43989321279E+01 0.52964574976E+01
 0.66126523374E+01 0.79741737705E+01 0.95154132702E+01 0.11201746572E+02 0.12970581957E+02
 0.14723908505E+02 0.16328412453E+02 0.17629882693E+02 0.18481713396E+02 0.18778428739E+02
 0.18481704450E+02 0.17629920818E+02 0.16328481380E+02 0.14723936478E+02 0.12970579106E+02
 0.11201778609E+02 0.95154546557E+01 0.79741425370E+01 0.66125740446E+01 0.54455195552E+01
 0.44731807883E+01 0.36846697987E+01 0.30606916871E+01 0.25766114737E+01 0.22067751944E+01
 0.19291533619E+01 0.17277899263E+01 0.15919443390E+01 0.15139562164E+01 0.14885741745E+01
 0.15139022853E+01 0.15919578961E+01 0.17278810261E+01 0.19291934406E+01 0.22067189373E+01
 0.25765523190E+01 0.30606758829E+01 0.36846424230E+01 0.44731401168E+01 0.54455416058E+01
 0.69906318423E+01 0.84265251348E+01 0.10021719248E+02 0.11717760291E+02 0.13425739035E+02
 0.15030989921E+02 0.16402697367E+02 0.17409842920E+02 0.17944036851E+02 0.17943725193E+02
 0.17409417832E+02 0.16402785374E+02 0.15031266868E+02 0.13425695027E+02 0.11717982990E+02
 0.10023197539E+02 0.84287597627E+01 0.69916908046E+01 0.57418187940E+01 0.46873551674E+01
 0.38207530103E+01 0.31245435437E+01 0.25766114737E+01 0.21539024417E+01 0.18346785246E+01
 0.16003185356E+01 0.14365910105E+01 0.13334666778E+01 0.12839743055E+01 0.12839902593E+01
 0.13333257186E+01 0.14362057983E+01 0.16001439861E+01 0.18350433456E+01 0.21543147399E+01
 0.25765192264E+01 0.31245205941E+01 0.38219038118E+01 0.46894225426E+01 0.57429454823E+01
 0.75802524764E+01 0.91222335853E+01 0.10792985699E+02 0.12512366628E+02 0.14174561594E+02
 0.15657122635E+02 0.16834265232E+02 0.17593815071E+02 0.17856647907E+02 0.17593908016E+02
 0.16834282343E+02 0.15657017530E+02 0.14174478122E+02 0.12512381778E+02 0.10792998035E+02
 0.91221736331E+01 0.75802100227E+01 0.62175891619E+01 0.50560071704E+01 0.40937660267E+01
 0.33138930300E+01 0.26928032866E+01 0.22067751944E+01 0.18346785246E+01 0.15580744270E+01
 0.13609846027E+01 0.12302443353E+01 0.11559718627E+01 0.11319313438E+01 0.11559639832E+01
 0.12302348513E+01 0.13609796858E+01 0.15580593001E+01 0.18346329473E+01 0.22067322090E+01
 0.26928329706E+01 0.33139855484E+01 0.40938111127E+01 0.50559558112E+01 0.62175416126E+01
 0.84462415343E+01 0.10119600116E+02 0.11882780537E+02 0.13639691601E+02 0.15273612280E+02
 0.16656237318E+02 0.17663241242E+02 0.18194647151E+02 0.18194547694E+02 0.17663205222E+02
 0.16656643885E+02 0.15274191806E+02 0.13639432491E+02 0.11880991408E+02 0.10117061662E+02
 0.84447893620E+01 0.69341478020E+01 0.56255189402E+01 0.45308623223E+01 0.36392333566E+01
 0.29262933575E+01 0.23644386126E+01 0.19291533619E+01 0.16003185356E+01 0.13609846027E+01
 0.11964446309E+01 0.10943833562E+01 0.10457141337E+01 0.10456632837E+01 0.10944066641E+01
 0.11967286724E+01 0.13612709422E+01 0.16001664725E+01 0.19286456146E+01 0.23641770648E+01
 0.29264468183E+01 0.36390122907E+01 0.45295053804E+01 0.56236560686E+01 0.69334923688E+01
 0.96461782804E+01 0.11478278529E+02 0.13366100144E+02 0.15196228001E+02 0.16834304105E+02
 0.18139005360E+02 0.18982563901E+02 0.19274650587E+02 0.18982516397E+02 0.18138973423E+02
 0.16834343947E+02 0.15196313775E+02 0.13366145280E+02 0.11478247862E+02 0.96461317947E+01
 0.79550385055E+01 0.64600900416E+01 0.51878858349E+01 0.41400217375E+01 0.32988160657E+01
 0.26357609804E+01 0.21206930301E+01 0.17277899263E+01 0.14365910105E+01 0.12302443353E+01
 0.10943833562E+01 0.10176933834E+01 0.99297754064E+00 0.10177360935E+01 0.10943835195E+01
 0.12302025712E+01 0.14366073638E+01 0.17278812666E+01 0.21207441131E+01 0.26357025195E+01
 0.32987222617E+01 0.41399777018E+01 0.51878749825E+01 0.64600741360E+01 0.79550434217E+01
 0.11278459140E+02 0.13338703008E+02 0.15429984730E+02 0.17410306215E+02 0.19111454729E+02
 0.20364363933E+02 0.21030463179E+02 0.21030744795E+02 0.20364448817E+02 0.19110517673E+02
 0.17409406383E+02 0.15431080584E+02 0.13341804193E+02 0.11281098589E+02 0.93521419163E+01
 0.76218336048E+01 0.61255249306E+01 0.48732802002E+01 0.38559125513E+01 0.30503419506E+01
 0.24253939002E+01 0.19486160874E+01 0.15919443390E+01 0.13334666778E+01 0.11559718627E+01
 0.10457141337E+01 0.99297754064E+00 0.99294116504E+00 0.10456580285E+01 0.11559075021E+01
 0.13333128788E+01 0.15918243887E+01 0.19488462044E+01 0.24258937771E+01 0.30505277855E+01
 0.38556814163E+01 0.48736093774E+01 0.61272005857E+01 0.76237673050E+01 0.93520935053E+01
 0.13571057988E+02 0.16020984462E+02 0.18481790333E+02 0.20755270285E+02 0.22609966442E+02
 0.23827214214E+02 0.24251592210E+02 0.23827134990E+02 0.22609890132E+02 0.20755185282E+02
 0.18481621129E+02 0.16020801596E+02 0.13571040634E+02 0.11272496916E+02 0.92070523760E+01
 0.74122370157E+01 0.58966464313E+01 0.46509305739E+01 0.36539926690E+01 0.28762896039E+01
 0.22830497695E+01 0.18391188054E+01 0.15139562164E+01 0.12839743055E+01 0.11319313438E+01
 0.10456632837E+01 0.10177360935E+01 0.10456580285E+01 0.11319479935E+01 0.12839907864E+01
 0.15139285231E+01 0.18390714050E+01 0.22830363352E+01 0.28762963308E+01 0.36539885030E+01
 0.46509560694E+01 0.58967219348E+01 0.74122539987E+01 0.92069208487E+01 0.11272339953E+02
 0.16992668409E+02 0.20136937349E+02 0.23241332400E+02 0.25991718846E+02 0.28056637569E+02
 0.29164501925E+02 0.29164691409E+02 0.28057284451E+02 0.25992457362E+02 0.23240932176E+02
 0.20134609776E+02 0.16989584844E+02 0.14041732683E+02 0.11422297241E+02 0.91749161127E+01
 0.72916507399E+01 0.57437918658E+01 0.44974549384E+01 0.35171396545E+01 0.27648592572E+01
 0.22006447231E+01 0.17860537520E+01 0.14885741745E+01 0.12839902593E+01 0.11559639832E+01
 0.10944066641E+01 0.10943835195E+01 0.11559075021E+01 0.12839907864E+01 0.14887443110E+01
 0.17862694027E+01 0.22005578953E+01 0.27644156298E+01 0.35168297559E+01 0.44975989765E+01
 0.57437451972E+01 0.72904479344E+01 0.91729025581E+01 0.11421359412E+02 0.14043266119E+02
 0.22341940571E+02 0.26573398734E+02 0.30555662687E+02 0.33947291453E+02 0.36371746223E+02
 0.37266591603E+02 0.36371754804E+02 0.33947282876E+02 0.30555672318E+02 0.26573488270E+02
 0.22342058782E+02 0.18288824689E+02 0.14697466782E+02 0.11678229486E+02 0.92134107686E+01
 0.72289514132E+01 0.56460272692E+01 0.43996243346E+01 0.34367624519E+01 0.27099253988E+01
 0.21736691081E+01 0.17862453497E+01 0.15139022853E+01 0.13333257186E+01 0.12302348513E+01
 0.11967286724E+01 0.12302025712E+01 0.13333128788E+01 0.15139285231E+01 0.17862694027E+01
 0.21736666885E+01 0.27099400838E+01 0.34368233533E+01 0.43996568866E+01 0.56459380877E+01
 0.72287942321E+01 0.92133588169E+01 0.11678346260E+02 0.14697605190E+02 0.18288821141E+02
 0.30531622243E+02 0.36964241486E+02 0.44171296078E+02 0.50689760178E+02 0.54595550036E+02
 0.54594424101E+02 0.50687875155E+02 0.44171283369E+02 0.36966728028E+02 0.30534707527E+02
 0.24907719690E+02 0.19769678233E+02 0.15430145572E+02 0.11969044486E+02 0.92800788680E+01
 0.72006633399E+01 0.55912304241E+01 0.43517331852E+01 0.34101519297E+01 0.27096280920E+01
 0.22006673001E+01 0.18395310646E+01 0.15919578961E+01 0.14362057983E+01 0.13609796858E+01
 0.13612709422E+01 0.14366073638E+01 0.15918243887E+01 0.18390714050E+01 0.22005578953E+01
 0.27099400838E+01 0.34103691464E+01 0.43516867645E+01 0.55913273420E+01 0.72011908710E+01
 0.92809012528E+01 0.11970006486E+02 0.15431070826E+02 0.19769822563E+02 0.24906105788E+02
 0.47327990723E+02 0.62364033919E+02 0.77623841082E+02 0.89040151792E+02 0.93271410111E+02
 0.89040048959E+02 0.77623652909E+02 0.62363851249E+02 0.47327923974E+02 0.35541656919E+02
 0.27487961929E+02 0.21202525212E+02 0.16098898861E+02 0.12217727226E+02 0.93379053868E+01
 0.71911112132E+01 0.55734647282E+01 0.43517514066E+01 0.34368529983E+01 0.27643894081E+01
 0.22830200587E+01 0.19488610274E+01 0.17278810261E+01 0.16001439861E+01 0.15580593001E+01
 0.16001664725E+01 0.17278812666E+01 0.19488462044E+01 0.22830363352E+01 0.27644156298E+01
 0.34368233533E+01 0.43516867645E+01 0.55734641159E+01 0.71912008573E+01 0.93380041348E+01
 0.12217770938E+02 0.16098895187E+02 0.21202483546E+02 0.27487883138E+02 0.35541604069E+02
 0.88319198014E+02 0.11775733477E+03 0.14294984867E+03 0.15747529886E+03 0.15747656547E+03
 0.14295147858E+03 0.11775601846E+03 0.88315321936E+02 0.61409719834E+02 0.41691515781E+02
 0.29821930672E+02 0.22335164143E+02 0.16566165502E+02 0.12359660862E+02 0.93604923947E+01
 0.71915682637E+01 0.55910583119E+01 0.43996484519E+01 0.35171955723E+01 0.28762400534E+01
 0.24253014544E+01 0.21205358413E+01 0.19291934406E+01 0.18350433456E+01 0.18346329473E+01
 0.19286456146E+01 0.21207441131E+01 0.24258937771E+01 0.28762963308E+01 0.35168297559E+01
 0.43996568866E+01 0.55913273420E+01 0.71912008573E+01 0.93595118780E+01 0.12359123029E+02
 0.16566230002E+02 0.22334639464E+02 0.29820631777E+02 0.41691524193E+02 0.61412624586E+02
 0.16598342165E+03 0.21163350590E+03 0.24433399478E+03 0.25621500715E+03 0.24433425029E+03
 0.21163386161E+03 0.16598363393E+03 0.11768961273E+03 0.76300554955E+02 0.47582495161E+02
 0.31597903591E+02 0.22959339774E+02 0.16733702273E+02 0.12359078407E+02 0.93379868628E+01
 0.72012024845E+01 0.56459279111E+01 0.44975686299E+01 0.36539764204E+01 0.30505369270E+01
 0.26357050876E+01 0.23641640839E+01 0.22067189373E+01 0.21543147399E+01 0.22067322090E+01
 0.23641770648E+01 0.26357025195E+01 0.30505277855E+01 0.36539885030E+01 0.44975989765E+01
 0.56459380877E+01 0.72011908710E+01 0.93380041348E+01 0.12359123029E+02 0.16733681288E+02
 0.22959220286E+02 0.31597826211E+02 0.47582608045E+02 0.76300773425E+02 0.11768967996E+03
 0.28397854840E+03 0.34283919780E+03 0.37621885092E+03 0.37621910600E+03 0.34284042251E+03
 0.28398113360E+03 0.21275794441E+03 0.14348848461E+03 0.87739975325E+02 0.51224915819E+02
 0.32276127400E+02 0.22959205499E+02 0.16566174146E+02 0.12217230361E+02 0.92801417386E+01
 0.72283641109E+01 0.57438585474E+01 0.46513311307E+01 0.38559011959E+01 0.32986760139E+01
 0.29263458025E+01 0.26928392996E+01 0.25765523190E+01 0.25765192264E+01 0.26928329706E+01
 0.29264468183E+01 0.32987222617E+01 0.38556814163E+01 0.46509560694E+01 0.57437451972E+01
 0.72287942321E+01 0.92809012528E+01 0.12217770938E+02 0.16566230002E+02 0.22959220286E+02
 0.32276779793E+02 0.51226030266E+02 0.87740261215E+02 0.14348686551E+03 0.21275498609E+03
 0.43550473073E+03 0.49977295741E+03 0.52307418621E+03 0.49977283457E+03 0.43550471682E+03
 0.34499078720E+03 0.24691698630E+03 0.15861188397E+03 0.92036802451E+02 0.51226016225E+02
 0.31597763481E+02 0.22334561063E+02 0.16098930618E+02 0.11970121005E+02 0.92133799614E+01
 0.72903723276E+01 0.58967188392E+01 0.48737071659E+01 0.41400280690E+01 0.36389789926E+01
 0.33139883468E+01 0.31245775237E+01 0.30606758829E+01 0.31245205941E+01 0.33139855484E+01
 0.36390122907E+01 0.41399777018E+01 0.48736093774E+01 0.58967219348E+01 0.72904479344E+01
 0.92133588169E+01 0.11970006486E+02 0.16098895187E+02 0.22334639464E+02 0.31597826211E+02
 0.51226030266E+02 0.92036838359E+02 0.15861189260E+03 0.24691686383E+03 0.34499063505E+03
 0.60310127656E+03 0.66047540457E+03 0.66047270755E+03 0.60309622161E+03 0.50224526056E+03
 0.38005367021E+03 0.25945704903E+03 0.15861053900E+03 0.87740115388E+02 0.47584415581E+02
 0.29821900382E+02 0.21201656679E+02 0.15430197644E+02 0.11679594844E+02 0.91748276513E+01
 0.74121357666E+01 0.61255111404E+01 0.51874270255E+01 0.45308241594E+01 0.40944794089E+01
 0.38207849726E+01 0.36837386675E+01 0.36846424230E+01 0.38219038118E+01 0.40938111127E+01
 0.45295053804E+01 0.51878749825E+01 0.61272005857E+01 0.74122539987E+01 0.91729025581E+01
 0.11678346260E+02 0.15431070826E+02 0.21202483546E+02 0.29820631777E+02 0.47582608045E+02
 0.87740261215E+02 0.15861189260E+03 0.25945728085E+03 0.38005355234E+03 0.50224787999E+03
 0.75948456724E+03 0.79487894755E+03 0.75948490494E+03 0.66237649534E+03 0.52662632206E+03
 0.38005345454E+03 0.24691666521E+03 0.14348673322E+03 0.76300807143E+02 0.41691705196E+02
 0.27488065199E+02 0.19769863743E+02 0.14697532859E+02 0.11421325054E+02 0.92069903619E+01
 0.76238556877E+01 0.64600970311E+01 0.56236375979E+01 0.50559549061E+01 0.46894438082E+01
 0.44731567979E+01 0.43989321279E+01 0.44731401168E+01 0.46894225426E+01 0.50559558112E+01
 0.56236560686E+01 0.64600741360E+01 0.76237673050E+01 0.92069208487E+01 0.11421359412E+02
 0.14697605190E+02 0.19769822563E+02 0.27487883138E+02 0.41691524193E+02 0.76300773425E+02
 0.14348686551E+03 0.24691686383E+03 0.38005355234E+03 0.52662616742E+03 0.66237611355E+03
 0.87210926932E+03 0.87211412423E+03 0.79570968675E+03 0.66237917444E+03 0.50224540260E+03
 0.34498962991E+03 0.21275758186E+03 0.11769090619E+03 0.61409936036E+02 0.35539298056E+02
 0.24907718771E+02 0.18291079987E+02 0.14041815476E+02 0.11269180755E+02 0.93521241129E+01
 0.79578318820E+01 0.69342244591E+01 0.62152312730E+01 0.57418580889E+01 0.54476773857E+01
 0.52981408298E+01 0.52964574976E+01 0.54455416058E+01 0.57429454823E+01 0.62175416126E+01
 0.69334923688E+01 0.79550434217E+01 0.93520935053E+01 0.11272339953E+02 0.14043266119E+02
 0.18288821141E+02 0.24906105788E+02 0.35541604069E+02 0.61412624586E+02 0.11768967996E+03
 0.21275498609E+03 0.34499063505E+03 0.50224787999E+03 0.66237611355E+03 0.79570109313E+03
 0.87210935014E+03 0.79487048404E+03 0.66047242368E+03 0.49977549460E+03 0.34284032948E+03
 0.21163104372E+03 0.11775612775E+03 0.62366687142E+02 0.36966613481E+02 0.26571895096E+02
 0.20134606774E+02 0.16022183672E+02 0.13341727458E+02 0.11478398200E+02 0.10117037888E+02
 0.91215340943E+01 0.84287095490E+01 0.79751888600E+01 0.76942521459E+01 0.75541644788E+01
 0.75558291885E+01 0.76963680910E+01 0.79741363313E+01 0.84264528058E+01 0.91222006145E+01
 0.10119597287E+02 0.11478234187E+02 0.13338629095E+02 0.16020954683E+02 0.20136941608E+02