   2   2   0   0
  0.3685877E+02  0.4706470E-09  0.4706470E-09  0.4706470E-09  0.5000000E-15
  1.000000000000000E-004
  CAR 
 Sn                                      
     38.02628346    -19.32962591  301      4.83729807      1.00000000
    -19.330  0.0000E+00  0.0000E+00
    -19.138  0.0000E+00  0.0000E+00
    -18.947  0.0000E+00  0.0000E+00
    -18.756  0.0000E+00  0.0000E+00
    -18.565  0.0000E+00  0.0000E+00
    -18.374  0.0000E+00  0.0000E+00
    -18.183  0.0000E+00  0.0000E+00
    -17.991  0.0000E+00  0.0000E+00
    -17.800  0.0000E+00  0.0000E+00
    -17.609  0.0000E+00  0.0000E+00
    -17.418  0.0000E+00  0.0000E+00
    -17.227  0.0000E+00  0.0000E+00
    -17.035  0.0000E+00  0.0000E+00
    -16.844  0.1176E-02  0.2249E-03
    -16.653  0.2113E+02  0.4040E+01
    -16.462  0.3822E+02  0.1135E+02
    -16.271  0.4145E+02  0.1927E+02
    -16.079  0.3817E+01  0.2000E+02
    -15.888  0.6580E-08  0.2000E+02
    -15.697  0.0000E+00  0.2000E+02
    -15.506  0.0000E+00  0.2000E+02
    -15.315  0.0000E+00  0.2000E+02
    -15.124  0.0000E+00  0.2000E+02
    -14.932  0.0000E+00  0.2000E+02
    -14.741  0.0000E+00  0.2000E+02
    -14.550  0.0000E+00  0.2000E+02
    -14.359  0.0000E+00  0.2000E+02
    -14.168  0.0000E+00  0.2000E+02
    -13.976  0.0000E+00  0.2000E+02
    -13.785  0.0000E+00  0.2000E+02
    -13.594  0.0000E+00  0.2000E+02
    -13.403  0.0000E+00  0.2000E+02
    -13.212  0.0000E+00  0.2000E+02
    -13.020  0.0000E+00  0.2000E+02
    -12.829  0.0000E+00  0.2000E+02
    -12.638  0.0000E+00  0.2000E+02
    -12.447  0.0000E+00  0.2000E+02
    -12.256  0.0000E+00  0.2000E+02
    -12.065  0.0000E+00  0.2000E+02
    -11.873  0.0000E+00  0.2000E+02
    -11.682  0.0000E+00  0.2000E+02
    -11.491  0.0000E+00  0.2000E+02
    -11.300  0.0000E+00  0.2000E+02
    -11.109  0.0000E+00  0.2000E+02
    -10.917  0.0000E+00  0.2000E+02
    -10.726  0.0000E+00  0.2000E+02
    -10.535  0.0000E+00  0.2000E+02
    -10.344  0.0000E+00  0.2000E+02
    -10.153  0.0000E+00  0.2000E+02
     -9.961  0.0000E+00  0.2000E+02
     -9.770  0.0000E+00  0.2000E+02
     -9.579  0.0000E+00  0.2000E+02
     -9.388  0.0000E+00  0.2000E+02
     -9.197  0.0000E+00  0.2000E+02
     -9.006  0.0000E+00  0.2000E+02
     -8.814  0.0000E+00  0.2000E+02
     -8.623  0.0000E+00  0.2000E+02
     -8.432  0.0000E+00  0.2000E+02
     -8.241  0.0000E+00  0.2000E+02
     -8.050  0.0000E+00  0.2000E+02
     -7.858  0.0000E+00  0.2000E+02
     -7.667  0.0000E+00  0.2000E+02
     -7.476  0.0000E+00  0.2000E+02
     -7.285  0.0000E+00  0.2000E+02
     -7.094  0.0000E+00  0.2000E+02
     -6.903  0.0000E+00  0.2000E+02
     -6.711  0.0000E+00  0.2000E+02
     -6.520  0.0000E+00  0.2000E+02
     -6.329  0.0000E+00  0.2000E+02
     -6.138  0.0000E+00  0.2000E+02
     -5.947  0.0000E+00  0.2000E+02
     -5.755  0.0000E+00  0.2000E+02
     -5.564  0.0000E+00  0.2000E+02
     -5.373  0.1691E-05  0.2000E+02
     -5.182  0.4671E-01  0.2001E+02
     -4.991  0.2693E+00  0.2006E+02
     -4.799  0.3697E+00  0.2013E+02
     -4.608  0.3882E+00  0.2021E+02
     -4.417  0.6749E+00  0.2033E+02
     -4.226  0.5663E+00  0.2044E+02
     -4.035  0.9306E+00  0.2062E+02
     -3.844  0.8545E+00  0.2078E+02
     -3.652  0.1331E+01  0.2104E+02
     -3.461  0.1224E+01  0.2127E+02
     -3.270  0.1008E+01  0.2147E+02
     -3.079  0.1151E+01  0.2169E+02
     -2.888  0.4428E+00  0.2177E+02
     -2.696  0.9013E+00  0.2194E+02
     -2.505  0.9988E-01  0.2196E+02
     -2.314  0.3814E+00  0.2203E+02
     -2.123  0.9284E-01  0.2205E+02
     -1.932  0.6320E+00  0.2217E+02
     -1.740  0.5068E+00  0.2227E+02
     -1.549  0.8783E+00  0.2244E+02
     -1.358  0.7492E+00  0.2258E+02
     -1.167  0.1345E+01  0.2284E+02
     -0.976  0.9385E+00  0.2302E+02
     -0.785  0.7966E+00  0.2317E+02
     -0.593  0.7680E+00  0.2332E+02
     -0.402  0.4433E+00  0.2340E+02
     -0.211  0.5184E+00  0.2350E+02
     -0.020  0.3064E+00  0.2356E+02
      0.171  0.4000E+00  0.2364E+02
      0.363  0.1941E+00  0.2367E+02
      0.554  0.2916E+00  0.2373E+02
      0.745  0.3366E+00  0.2379E+02
      0.936  0.1077E+00  0.2381E+02
      1.127  0.1539E+00  0.2384E+02
      1.319  0.1394E+00  0.2387E+02
      1.510  0.2302E+00  0.2391E+02
      1.701  0.6706E-01  0.2393E+02
      1.892  0.7775E+00  0.2407E+02
      2.083  0.1604E+01  0.2438E+02
      2.274  0.2006E+01  0.2476E+02
      2.466  0.1150E+01  0.2498E+02
      2.657  0.1820E+01  0.2533E+02
      2.848  0.1954E+01  0.2571E+02
      3.039  0.1990E+01  0.2609E+02
      3.230  0.1809E+01  0.2643E+02
      3.422  0.1865E+01  0.2679E+02
      3.613  0.1560E+01  0.2709E+02
      3.804  0.1517E+01  0.2738E+02
      3.995  0.1052E+01  0.2758E+02
      4.186  0.8856E+00  0.2775E+02
      4.377  0.7424E+00  0.2789E+02
      4.569  0.1758E+00  0.2792E+02
      4.760  0.2670E+00  0.2797E+02
      4.951  0.2496E+00  0.2802E+02
      5.142  0.6006E-01  0.2803E+02
      5.333  0.1550E+00  0.2806E+02
      5.525  0.5594E+00  0.2817E+02
      5.716  0.5676E+00  0.2828E+02
      5.907  0.6240E+00  0.2840E+02
      6.098  0.1856E+01  0.2875E+02
      6.289  0.2250E+01  0.2918E+02
      6.481  0.2067E+01  0.2958E+02
      6.672  0.1566E+01  0.2988E+02
      6.863  0.8296E+00  0.3004E+02
      7.054  0.4792E+00  0.3013E+02
      7.245  0.2835E+01  0.3067E+02
      7.436  0.5773E+00  0.3078E+02
      7.628  0.7099E+00  0.3092E+02
      7.819  0.1243E+01  0.3115E+02
      8.010  0.2256E+01  0.3158E+02
      8.201  0.2562E+01  0.3207E+02
      8.392  0.9736E+00  0.3226E+02
      8.584  0.7250E+00  0.3240E+02
      8.775  0.2232E+01  0.3283E+02
      8.966  0.2547E+01  0.3331E+02
      9.157  0.1349E+01  0.3357E+02
      9.348  0.1557E+01  0.3387E+02
      9.540  0.1419E+01  0.3414E+02
      9.731  0.1510E+01  0.3443E+02
      9.922  0.1545E+01  0.3472E+02
     10.113  0.1551E+01  0.3502E+02
     10.304  0.1200E+01  0.3525E+02
     10.495  0.1076E+01  0.3546E+02
     10.687  0.9750E+00  0.3564E+02
     10.878  0.1302E+01  0.3589E+02
     11.069  0.9710E+00  0.3608E+02
     11.260  0.1383E+01  0.3634E+02
     11.451  0.2005E+01  0.3672E+02
     11.643  0.1354E+01  0.3698E+02
     11.834  0.2043E+01  0.3737E+02
     12.025  0.2548E+01  0.3786E+02
     12.216  0.1469E+01  0.3814E+02
     12.407  0.1008E+01  0.3833E+02
     12.598  0.2117E+01  0.3874E+02
     12.790  0.2458E+01  0.3921E+02
     12.981  0.1767E+01  0.3955E+02
     13.172  0.1481E+01  0.3983E+02
     13.363  0.2424E+01  0.4029E+02
     13.554  0.1953E+01  0.4067E+02
     13.746  0.1798E+01  0.4101E+02
     13.937  0.2141E+01  0.4142E+02
     14.128  0.2243E+01  0.4185E+02
     14.319  0.2655E+01  0.4236E+02
     14.510  0.1884E+01  0.4272E+02
     14.702  0.1960E+01  0.4309E+02
     14.893  0.2102E+01  0.4349E+02
     15.084  0.1498E+01  0.4378E+02
     15.275  0.8237E+00  0.4394E+02
     15.466  0.2510E+01  0.4442E+02
     15.657  0.2478E+01  0.4489E+02
     15.849  0.1704E+01  0.4522E+02
     16.040  0.1067E+01  0.4542E+02
     16.231  0.7753E+00  0.4557E+02
     16.422  0.1170E+01  0.4579E+02
     16.613  0.2756E+01  0.4632E+02
     16.805  0.2430E+01  0.4678E+02
     16.996  0.2774E+01  0.4731E+02
     17.187  0.2019E+01  0.4770E+02
     17.378  0.1820E+01  0.4805E+02
     17.569  0.2924E+01  0.4861E+02
     17.761  0.2278E+01  0.4904E+02
     17.952  0.2144E+01  0.4945E+02
     18.143  0.2141E+01  0.4986E+02
     18.334  0.1850E+01  0.5022E+02
     18.525  0.2552E+01  0.5070E+02
     18.716  0.3241E+01  0.5132E+02
     18.908  0.2533E+01  0.5181E+02
     19.099  0.2449E+01  0.5228E+02
     19.290  0.3113E+01  0.5287E+02
     19.481  0.2219E+01  0.5329E+02
     19.672  0.2293E+01  0.5373E+02
     19.864  0.1841E+01  0.5408E+02
     20.055  0.9325E+00  0.5426E+02
     20.246  0.2140E+01  0.5467E+02
     20.437  0.2619E+01  0.5517E+02
     20.628  0.1681E+01  0.5549E+02
     20.820  0.1909E+01  0.5586E+02
     21.011  0.3152E+01  0.5646E+02
     21.202  0.3509E+01  0.5713E+02
     21.393  0.2002E+01  0.5752E+02
     21.584  0.2658E+01  0.5802E+02
     21.775  0.3549E+01  0.5870E+02
     21.967  0.2757E+01  0.5923E+02
     22.158  0.2168E+01  0.5964E+02
     22.349  0.2586E+01  0.6014E+02
     22.540  0.2128E+01  0.6054E+02
     22.731  0.3575E+01  0.6123E+02
     22.923  0.3775E+01  0.6195E+02
     23.114  0.2739E+01  0.6247E+02
     23.305  0.2029E+01  0.6286E+02
     23.496  0.2192E+01  0.6328E+02
     23.687  0.3726E+01  0.6399E+02
     23.878  0.3328E+01  0.6463E+02
     24.070  0.3697E+01  0.6534E+02
     24.261  0.2030E+01  0.6572E+02
     24.452  0.2427E+01  0.6619E+02
     24.643  0.2459E+01  0.6666E+02
     24.834  0.2660E+01  0.6717E+02
     25.026  0.2727E+01  0.6769E+02
     25.217  0.3062E+01  0.6827E+02
     25.408  0.2180E+01  0.6869E+02
     25.599  0.2508E+01  0.6917E+02
     25.790  0.1402E+01  0.6944E+02
     25.982  0.1810E+01  0.6978E+02
     26.173  0.2839E+01  0.7033E+02
     26.364  0.2258E+01  0.7076E+02
     26.555  0.2179E+01  0.7117E+02
     26.746  0.2936E+01  0.7174E+02
     26.937  0.3360E+01  0.7238E+02
     27.129  0.3264E+01  0.7300E+02
     27.320  0.3245E+01  0.7362E+02
     27.511  0.2844E+01  0.7417E+02
     27.702  0.3258E+01  0.7479E+02
     27.893  0.3090E+01  0.7538E+02
     28.085  0.2687E+01  0.7589E+02
     28.276  0.3086E+01  0.7648E+02
     28.467  0.3455E+01  0.7714E+02
     28.658  0.2488E+01  0.7762E+02
     28.849  0.2823E+01  0.7816E+02
     29.041  0.5138E+01  0.7914E+02
     29.232  0.4047E+01  0.7992E+02
     29.423  0.4413E+01  0.8076E+02
     29.614  0.2462E+01  0.8123E+02
     29.805  0.3004E+01  0.8180E+02
     29.996  0.2271E+01  0.8224E+02
     30.188  0.1859E+01  0.8259E+02
     30.379  0.3940E+01  0.8335E+02
     30.570  0.2070E+01  0.8374E+02
     30.761  0.2339E+01  0.8419E+02
     30.952  0.2940E+01  0.8475E+02
     31.144  0.2529E+01  0.8524E+02
     31.335  0.2986E+01  0.8581E+02
     31.526  0.2719E+01  0.8633E+02
     31.717  0.2543E+01  0.8681E+02
     31.908  0.4255E+01  0.8763E+02
     32.100  0.2685E+01  0.8814E+02
     32.291  0.3972E+01  0.8890E+02
     32.482  0.3014E+01  0.8948E+02
     32.673  0.3019E+01  0.9005E+02
     32.864  0.2925E+01  0.9061E+02
     33.055  0.3468E+01  0.9128E+02
     33.247  0.3026E+01  0.9185E+02
     33.438  0.4156E+01  0.9265E+02
     33.629  0.3922E+01  0.9340E+02
     33.820  0.2933E+01  0.9396E+02
     34.011  0.2749E+01  0.9448E+02
     34.203  0.1623E+01  0.9479E+02
     34.394  0.1619E+01  0.9510E+02
     34.585  0.8114E+00  0.9526E+02
     34.776  0.9440E+00  0.9544E+02
     34.967  0.1318E+01  0.9569E+02
     35.158  0.1120E+01  0.9591E+02
     35.350  0.2803E+00  0.9596E+02
     35.541  0.2116E+00  0.9600E+02
     35.732  0.4873E-04  0.9600E+02
     35.923  0.0000E+00  0.9600E+02
     36.114  0.0000E+00  0.9600E+02
     36.306  0.0000E+00  0.9600E+02
     36.497  0.0000E+00  0.9600E+02
     36.688  0.0000E+00  0.9600E+02
     36.879  0.0000E+00  0.9600E+02
     37.070  0.0000E+00  0.9600E+02
     37.262  0.0000E+00  0.9600E+02
     37.453  0.0000E+00  0.9600E+02
     37.644  0.0000E+00  0.9600E+02
     37.835  0.0000E+00  0.9600E+02
     38.026  0.0000E+00  0.9600E+02
