 DBCSR| CPU Multiplication driver                                           BLAS (U)
 DBCSR| Multrec recursion limit                                              512 (U)
 DBCSR| Multiplication stack size                                           1000 (D)
 DBCSR| Maximum elements for images                                    UNLIMITED (U)
 DBCSR| Multiplicative factor virtual images                                   1 (U)
 DBCSR| Use multiplication densification                                       T (D)
 DBCSR| Multiplication size stacks                                             3 (U)
 DBCSR| Use memory pool for CPU allocation                                     F (U)
 DBCSR| Number of 3D layers                                               SINGLE (U)
 DBCSR| Use MPI memory allocation                                              F (U)
 DBCSR| Use RMA algorithm                                                      F (U)
 DBCSR| Use Communication thread                                               T (U)
 DBCSR| Communication thread load                                             45 (D)
 DBCSR| MPI: My process id                                                     0
 DBCSR| MPI: Number of processes                                              16
 DBCSR| OMP: Current number of threads                                        12
 DBCSR| OMP: Max number of threads                                            12
 DBCSR| Split modifier for TAS multiplication algorithm                  1.0E+00 (U)


  **** **** ******  **  PROGRAM STARTED AT               2025-08-21 04:22:28.185
 ***** ** ***  *** **   PROGRAM STARTED ON                          i05r08c02s04
 **    ****   ******    PROGRAM STARTED BY                               di38fab
 ***** **    ** ** **   PROGRAM PROCESS ID                               3104955
  **** **  *******  **  PROGRAM STARTED IN /hppfs/scratch/04/di38fab/09_GTH/Delt
                                           a_Set/Na/aug-DZVP-MOLOPT-GTH-tier-1/8
                                           x8x8

 CP2K| version string:                 CP2K version 2025.1 (Development Version)
 CP2K| source code revision number:                                  git:3130539
 CP2K| cp2kflags: omp libint fftw3 libxc parallel scalapack max_contr=4         
 CP2K| is freely available from                            https://www.cp2k.org/
 CP2K| Program compiled at                         Tue Jun  3 16:14:32 CEST 2025
 CP2K| Program compiled on                                               login01
 CP2K| Program compiled for                                        Supermuc-foss
 CP2K| Data directory path                  /hppfs/work/pn36zo/di38fab/cp2k/data
 CP2K| Input file name                                                    GW.inp

 GLOBAL| Force Environment number                                              1
 GLOBAL| Basis set file name            /hppfs/scratch/04/di38fab/09_GTH/BASIS_A
 GLOBAL| Potential file name            /hppfs/work/pn36zo/di38fab/cp2k/data/GTH
 GLOBAL| MM Potential file name                                     MM_POTENTIAL
 GLOBAL| Coordinate file name                                             Na.cif
 GLOBAL| Method name                                                        CP2K
 GLOBAL| Project name                                                       WSe2
 GLOBAL| Run type                                                         ENERGY
 GLOBAL| FFT library                                                       FFTW3
 GLOBAL| Diagonalization library                                       ScaLAPACK
 GLOBAL| Cholesky decomposition library                                ScaLAPACK
 GLOBAL| DGEMM library                                                      BLAS
 GLOBAL| Orthonormality check for eigenvectors                          DISABLED
 GLOBAL| Matrix multiplication library                                 ScaLAPACK
 GLOBAL| All-to-all communication in single precision                          F
 GLOBAL| FFTs using library dependent lengths                                  F
 GLOBAL| Grid backend                                                       AUTO
 GLOBAL| Global print level                                               MEDIUM
 GLOBAL| MPI I/O enabled                                                       T
 GLOBAL| Total number of message passing processes                            16
 GLOBAL| Number of threads for this process                                   12
 GLOBAL| This output is from process                                           0
 GLOBAL| OpenMP stack size per thread (OMP_STACKSIZE)                        64M
 GLOBAL| CPU model name             Intel(R) Xeon(R) Platinum 8174 CPU @ 3.10GHz

 MEMORY| system memory details [Kb]
 MEMORY|                        rank 0           min           max       average
 MEMORY| MemTotal             98436660      98436660      98436708      98436684
 MEMORY| MemFree              86145292      85984724      86184092      86121516
 MEMORY| Buffers                     0             0             0             0
 MEMORY| Cached                2357264       2356808       2364364       2359049
 MEMORY| Slab                  1041448       1041448       1064352       1051677
 MEMORY| SReclaimable           247888        246232        252952        249532
 MEMORY| MemLikelyFree        88750444      88592588      88789272      88730097


 *** Fundamental physical constants (SI units) ***

 *** Literature: B. J. Mohr and B. N. Taylor,
 ***             CODATA recommended values of the fundamental physical
 ***             constants: 2006, Web Version 5.1
 ***             http://physics.nist.gov/constants

 Speed of light in vacuum [m/s]                             2.99792458000000E+08
 Magnetic constant or permeability of vacuum [N/A**2]       1.25663706143592E-06
 Electric constant or permittivity of vacuum [F/m]          8.85418781762039E-12
 Planck constant (h) [J*s]                                  6.62606896000000E-34
 Planck constant (h-bar) [J*s]                              1.05457162825177E-34
 Elementary charge [C]                                      1.60217648700000E-19
 Electron mass [kg]                                         9.10938215000000E-31
 Electron g factor [ ]                                     -2.00231930436220E+00
 Proton mass [kg]                                           1.67262163700000E-27
 Fine-structure constant                                    7.29735253760000E-03
 Rydberg constant [1/m]                                     1.09737315685270E+07
 Avogadro constant [1/mol]                                  6.02214179000000E+23
 Boltzmann constant [J/K]                                   1.38065040000000E-23
 Atomic mass unit [kg]                                      1.66053878200000E-27
 Bohr radius [m]                                            5.29177208590000E-11

 *** Conversion factors ***

 [u] -> [a.u.]                                              1.82288848426455E+03
 [Angstrom] -> [Bohr] = [a.u.]                              1.88972613288564E+00
 [a.u.] = [Bohr] -> [Angstrom]                              5.29177208590000E-01
 [a.u.] -> [s]                                              2.41888432650478E-17
 [a.u.] -> [fs]                                             2.41888432650478E-02
 [a.u.] -> [J]                                              4.35974393937059E-18
 [a.u.] -> [N]                                              8.23872205491840E-08
 [a.u.] -> [K]                                              3.15774647902944E+05
 [a.u.] -> [kJ/mol]                                         2.62549961709828E+03
 [a.u.] -> [kcal/mol]                                       6.27509468713739E+02
 [a.u.] -> [Pa]                                             2.94210107994716E+13
 [a.u.] -> [bar]                                            2.94210107994716E+08
 [a.u.] -> [atm]                                            2.90362800883016E+08
 [a.u.] -> [eV]                                             2.72113838565563E+01
 [a.u.] -> [Hz]                                             6.57968392072181E+15
 [a.u.] -> [1/cm] (wave numbers)                            2.19474631370540E+05
 [a.u./Bohr**2] -> [1/cm]                                   5.14048714338585E+03
 

 CELL_TOP| Volume [angstrom^3]:                                       111.209583
 CELL_TOP| Vector a [angstrom     9.418     0.000     0.000   |a| =     9.418130
 CELL_TOP| Vector b [angstrom     8.674     3.668     0.000   |b| =     9.418130
 CELL_TOP| Vector c [angstrom     8.674     1.759     3.219   |c| =     9.418130
 CELL_TOP| Angle (b,c), alpha [degree]:                                22.922030
 CELL_TOP| Angle (a,c), beta  [degree]:                                22.922030
 CELL_TOP| Angle (a,b), gamma [degree]:                                22.922030
 CELL_TOP| Numerically orthorhombic:                                          NO
 CELL_TOP| Periodicity                                                       XYZ

 CELL_CIF| Volume [angstrom^3]:                                       111.209583
 CELL_CIF| Vector a [angstrom     9.418     0.000     0.000   |a| =     9.418130
 CELL_CIF| Vector b [angstrom     8.674     3.668     0.000   |b| =     9.418130
 CELL_CIF| Vector c [angstrom     8.674     1.759     3.219   |c| =     9.418130
 CELL_CIF| Angle (b,c), alpha [degree]:                                22.922030
 CELL_CIF| Angle (a,c), beta  [degree]:                                22.922030
 CELL_CIF| Angle (a,b), gamma [degree]:                                22.922030
 CELL_CIF| Numerically orthorhombic:                                          NO
 CELL_CIF| Periodicity                                                       XYZ

 GENERATE|  Preliminary Number of Bonds generated:                             0
 GENERATE|  Achieved consistency in connectivity generation.

 CELL| Volume [angstrom^3]:                                           111.209583
 CELL| Vector a [angstrom]:       9.418     0.000     0.000   |a| =     9.418130
 CELL| Vector b [angstrom]:       8.674     3.668     0.000   |b| =     9.418130
 CELL| Vector c [angstrom]:       8.674     1.759     3.219   |c| =     9.418130
 CELL| Angle (b,c), alpha [degree]:                                    22.922030
 CELL| Angle (a,c), beta  [degree]:                                    22.922030
 CELL| Angle (a,b), gamma [degree]:                                    22.922030
 CELL| Numerically orthorhombic:                                              NO
 CELL| Periodicity                                                           XYZ

 CELL_REF| Volume [angstrom^3]:                                       111.209583
 CELL_REF| Vector a [angstrom     9.418     0.000     0.000   |a| =     9.418130
 CELL_REF| Vector b [angstrom     8.674     3.668     0.000   |b| =     9.418130
 CELL_REF| Vector c [angstrom     8.674     1.759     3.219   |c| =     9.418130
 CELL_REF| Angle (b,c), alpha [degree]:                                22.922030
 CELL_REF| Angle (a,c), beta  [degree]:                                22.922030
 CELL_REF| Angle (a,b), gamma [degree]:                                22.922030
 CELL_REF| Numerically orthorhombic:                                          NO
 CELL_REF| Periodicity                                                       XYZ

 *** WARNING in cryssym.F:180 :: Symmetry library SPGLIB not available ***


 *******************************************************************************
                                    Kpoints
 *******************************************************************************
 BRILLOUIN| K-point scheme                                        Monkhorst-Pack
 BRILLOUIN| K-Point grid                                             8    8    8
 BRILLOUIN| Accuracy in Symmetry determination                      0.100000E-05
 BRILLOUIN| K-Point point group symmetrization                               OFF
 BRILLOUIN| Wavefunction type                                            COMPLEX
 BRILLOUIN| List of Kpoints [2 Pi/Bohr]                                      256
 BRILLOUIN| Number           Weight            X              Y              Z
 BRILLOUIN|     1           0.00391       -0.43750       -0.43750       -0.43750
 BRILLOUIN|     2           0.00391       -0.43750       -0.43750       -0.31250
 BRILLOUIN|     3           0.00391       -0.43750       -0.43750       -0.18750
 BRILLOUIN|     4           0.00391       -0.43750       -0.43750       -0.06250
 BRILLOUIN|     5           0.00391       -0.43750       -0.43750        0.06250
 BRILLOUIN|     6           0.00391       -0.43750       -0.43750        0.18750
 BRILLOUIN|     7           0.00391       -0.43750       -0.43750        0.31250
 BRILLOUIN|     8           0.00391       -0.43750       -0.43750        0.43750
 BRILLOUIN|     9           0.00391       -0.43750       -0.31250       -0.43750
 BRILLOUIN|    10           0.00391       -0.43750       -0.31250       -0.31250
 BRILLOUIN|    11           0.00391       -0.43750       -0.31250       -0.18750
 BRILLOUIN|    12           0.00391       -0.43750       -0.31250       -0.06250
 BRILLOUIN|    13           0.00391       -0.43750       -0.31250        0.06250
 BRILLOUIN|    14           0.00391       -0.43750       -0.31250        0.18750
 BRILLOUIN|    15           0.00391       -0.43750       -0.31250        0.31250
 BRILLOUIN|    16           0.00391       -0.43750       -0.31250        0.43750
 BRILLOUIN|    17           0.00391       -0.43750       -0.18750       -0.43750
 BRILLOUIN|    18           0.00391       -0.43750       -0.18750       -0.31250
 BRILLOUIN|    19           0.00391       -0.43750       -0.18750       -0.18750
 BRILLOUIN|    20           0.00391       -0.43750       -0.18750       -0.06250
 BRILLOUIN|    21           0.00391       -0.43750       -0.18750        0.06250
 BRILLOUIN|    22           0.00391       -0.43750       -0.18750        0.18750
 BRILLOUIN|    23           0.00391       -0.43750       -0.18750        0.31250
 BRILLOUIN|    24           0.00391       -0.43750       -0.18750        0.43750
 BRILLOUIN|    25           0.00391       -0.43750       -0.06250       -0.43750
 BRILLOUIN|    26           0.00391       -0.43750       -0.06250       -0.31250
 BRILLOUIN|    27           0.00391       -0.43750       -0.06250       -0.18750
 BRILLOUIN|    28           0.00391       -0.43750       -0.06250       -0.06250
 BRILLOUIN|    29           0.00391       -0.43750       -0.06250        0.06250
 BRILLOUIN|    30           0.00391       -0.43750       -0.06250        0.18750
 BRILLOUIN|    31           0.00391       -0.43750       -0.06250        0.31250
 BRILLOUIN|    32           0.00391       -0.43750       -0.06250        0.43750
 BRILLOUIN|    33           0.00391       -0.43750        0.06250       -0.43750
 BRILLOUIN|    34           0.00391       -0.43750        0.06250       -0.31250
 BRILLOUIN|    35           0.00391       -0.43750        0.06250       -0.18750
 BRILLOUIN|    36           0.00391       -0.43750        0.06250       -0.06250
 BRILLOUIN|    37           0.00391       -0.43750        0.06250        0.06250
 BRILLOUIN|    38           0.00391       -0.43750        0.06250        0.18750
 BRILLOUIN|    39           0.00391       -0.43750        0.06250        0.31250
 BRILLOUIN|    40           0.00391       -0.43750        0.06250        0.43750
 BRILLOUIN|    41           0.00391       -0.43750        0.18750       -0.43750
 BRILLOUIN|    42           0.00391       -0.43750        0.18750       -0.31250
 BRILLOUIN|    43           0.00391       -0.43750        0.18750       -0.18750
 BRILLOUIN|    44           0.00391       -0.43750        0.18750       -0.06250
 BRILLOUIN|    45           0.00391       -0.43750        0.18750        0.06250
 BRILLOUIN|    46           0.00391       -0.43750        0.18750        0.18750
 BRILLOUIN|    47           0.00391       -0.43750        0.18750        0.31250
 BRILLOUIN|    48           0.00391       -0.43750        0.18750        0.43750
 BRILLOUIN|    49           0.00391       -0.43750        0.31250       -0.43750
 BRILLOUIN|    50           0.00391       -0.43750        0.31250       -0.31250
 BRILLOUIN|    51           0.00391       -0.43750        0.31250       -0.18750
 BRILLOUIN|    52           0.00391       -0.43750        0.31250       -0.06250
 BRILLOUIN|    53           0.00391       -0.43750        0.31250        0.06250
 BRILLOUIN|    54           0.00391       -0.43750        0.31250        0.18750
 BRILLOUIN|    55           0.00391       -0.43750        0.31250        0.31250
 BRILLOUIN|    56           0.00391       -0.43750        0.31250        0.43750
 BRILLOUIN|    57           0.00391       -0.43750        0.43750       -0.43750
 BRILLOUIN|    58           0.00391       -0.43750        0.43750       -0.31250
 BRILLOUIN|    59           0.00391       -0.43750        0.43750       -0.18750
 BRILLOUIN|    60           0.00391       -0.43750        0.43750       -0.06250
 BRILLOUIN|    61           0.00391       -0.43750        0.43750        0.06250
 BRILLOUIN|    62           0.00391       -0.43750        0.43750        0.18750
 BRILLOUIN|    63           0.00391       -0.43750        0.43750        0.31250
 BRILLOUIN|    64           0.00391       -0.43750        0.43750        0.43750
 BRILLOUIN|    65           0.00391       -0.31250       -0.43750       -0.43750
 BRILLOUIN|    66           0.00391       -0.31250       -0.43750       -0.31250
 BRILLOUIN|    67           0.00391       -0.31250       -0.43750       -0.18750
 BRILLOUIN|    68           0.00391       -0.31250       -0.43750       -0.06250
 BRILLOUIN|    69           0.00391       -0.31250       -0.43750        0.06250
 BRILLOUIN|    70           0.00391       -0.31250       -0.43750        0.18750
 BRILLOUIN|    71           0.00391       -0.31250       -0.43750        0.31250
 BRILLOUIN|    72           0.00391       -0.31250       -0.43750        0.43750
 BRILLOUIN|    73           0.00391       -0.31250       -0.31250       -0.43750
 BRILLOUIN|    74           0.00391       -0.31250       -0.31250       -0.31250
 BRILLOUIN|    75           0.00391       -0.31250       -0.31250       -0.18750
 BRILLOUIN|    76           0.00391       -0.31250       -0.31250       -0.06250
 BRILLOUIN|    77           0.00391       -0.31250       -0.31250        0.06250
 BRILLOUIN|    78           0.00391       -0.31250       -0.31250        0.18750
 BRILLOUIN|    79           0.00391       -0.31250       -0.31250        0.31250
 BRILLOUIN|    80           0.00391       -0.31250       -0.31250        0.43750
 BRILLOUIN|    81           0.00391       -0.31250       -0.18750       -0.43750
 BRILLOUIN|    82           0.00391       -0.31250       -0.18750       -0.31250
 BRILLOUIN|    83           0.00391       -0.31250       -0.18750       -0.18750
 BRILLOUIN|    84           0.00391       -0.31250       -0.18750       -0.06250
 BRILLOUIN|    85           0.00391       -0.31250       -0.18750        0.06250
 BRILLOUIN|    86           0.00391       -0.31250       -0.18750        0.18750
 BRILLOUIN|    87           0.00391       -0.31250       -0.18750        0.31250
 BRILLOUIN|    88           0.00391       -0.31250       -0.18750        0.43750
 BRILLOUIN|    89           0.00391       -0.31250       -0.06250       -0.43750
 BRILLOUIN|    90           0.00391       -0.31250       -0.06250       -0.31250
 BRILLOUIN|    91           0.00391       -0.31250       -0.06250       -0.18750
 BRILLOUIN|    92           0.00391       -0.31250       -0.06250       -0.06250
 BRILLOUIN|    93           0.00391       -0.31250       -0.06250        0.06250
 BRILLOUIN|    94           0.00391       -0.31250       -0.06250        0.18750
 BRILLOUIN|    95           0.00391       -0.31250       -0.06250        0.31250
 BRILLOUIN|    96           0.00391       -0.31250       -0.06250        0.43750
 BRILLOUIN|    97           0.00391       -0.31250        0.06250       -0.43750
 BRILLOUIN|    98           0.00391       -0.31250        0.06250       -0.31250
 BRILLOUIN|    99           0.00391       -0.31250        0.06250       -0.18750
 BRILLOUIN|   100           0.00391       -0.31250        0.06250       -0.06250
 BRILLOUIN|   101           0.00391       -0.31250        0.06250        0.06250
 BRILLOUIN|   102           0.00391       -0.31250        0.06250        0.18750
 BRILLOUIN|   103           0.00391       -0.31250        0.06250        0.31250
 BRILLOUIN|   104           0.00391       -0.31250        0.06250        0.43750
 BRILLOUIN|   105           0.00391       -0.31250        0.18750       -0.43750
 BRILLOUIN|   106           0.00391       -0.31250        0.18750       -0.31250
 BRILLOUIN|   107           0.00391       -0.31250        0.18750       -0.18750
 BRILLOUIN|   108           0.00391       -0.31250        0.18750       -0.06250
 BRILLOUIN|   109           0.00391       -0.31250        0.18750        0.06250
 BRILLOUIN|   110           0.00391       -0.31250        0.18750        0.18750
 BRILLOUIN|   111           0.00391       -0.31250        0.18750        0.31250
 BRILLOUIN|   112           0.00391       -0.31250        0.18750        0.43750
 BRILLOUIN|   113           0.00391       -0.31250        0.31250       -0.43750
 BRILLOUIN|   114           0.00391       -0.31250        0.31250       -0.31250
 BRILLOUIN|   115           0.00391       -0.31250        0.31250       -0.18750
 BRILLOUIN|   116           0.00391       -0.31250        0.31250       -0.06250
 BRILLOUIN|   117           0.00391       -0.31250        0.31250        0.06250
 BRILLOUIN|   118           0.00391       -0.31250        0.31250        0.18750
 BRILLOUIN|   119           0.00391       -0.31250        0.31250        0.31250
 BRILLOUIN|   120           0.00391       -0.31250        0.31250        0.43750
 BRILLOUIN|   121           0.00391       -0.31250        0.43750       -0.43750
 BRILLOUIN|   122           0.00391       -0.31250        0.43750       -0.31250
 BRILLOUIN|   123           0.00391       -0.31250        0.43750       -0.18750
 BRILLOUIN|   124           0.00391       -0.31250        0.43750       -0.06250
 BRILLOUIN|   125           0.00391       -0.31250        0.43750        0.06250
 BRILLOUIN|   126           0.00391       -0.31250        0.43750        0.18750
 BRILLOUIN|   127           0.00391       -0.31250        0.43750        0.31250
 BRILLOUIN|   128           0.00391       -0.31250        0.43750        0.43750
 BRILLOUIN|   129           0.00391       -0.18750       -0.43750       -0.43750
 BRILLOUIN|   130           0.00391       -0.18750       -0.43750       -0.31250
 BRILLOUIN|   131           0.00391       -0.18750       -0.43750       -0.18750
 BRILLOUIN|   132           0.00391       -0.18750       -0.43750       -0.06250
 BRILLOUIN|   133           0.00391       -0.18750       -0.43750        0.06250
 BRILLOUIN|   134           0.00391       -0.18750       -0.43750        0.18750
 BRILLOUIN|   135           0.00391       -0.18750       -0.43750        0.31250
 BRILLOUIN|   136           0.00391       -0.18750       -0.43750        0.43750
 BRILLOUIN|   137           0.00391       -0.18750       -0.31250       -0.43750
 BRILLOUIN|   138           0.00391       -0.18750       -0.31250       -0.31250
 BRILLOUIN|   139           0.00391       -0.18750       -0.31250       -0.18750
 BRILLOUIN|   140           0.00391       -0.18750       -0.31250       -0.06250
 BRILLOUIN|   141           0.00391       -0.18750       -0.31250        0.06250
 BRILLOUIN|   142           0.00391       -0.18750       -0.31250        0.18750
 BRILLOUIN|   143           0.00391       -0.18750       -0.31250        0.31250
 BRILLOUIN|   144           0.00391       -0.18750       -0.31250        0.43750
 BRILLOUIN|   145           0.00391       -0.18750       -0.18750       -0.43750
 BRILLOUIN|   146           0.00391       -0.18750       -0.18750       -0.31250
 BRILLOUIN|   147           0.00391       -0.18750       -0.18750       -0.18750
 BRILLOUIN|   148           0.00391       -0.18750       -0.18750       -0.06250
 BRILLOUIN|   149           0.00391       -0.18750       -0.18750        0.06250
 BRILLOUIN|   150           0.00391       -0.18750       -0.18750        0.18750
 BRILLOUIN|   151           0.00391       -0.18750       -0.18750        0.31250
 BRILLOUIN|   152           0.00391       -0.18750       -0.18750        0.43750
 BRILLOUIN|   153           0.00391       -0.18750       -0.06250       -0.43750
 BRILLOUIN|   154           0.00391       -0.18750       -0.06250       -0.31250
 BRILLOUIN|   155           0.00391       -0.18750       -0.06250       -0.18750
 BRILLOUIN|   156           0.00391       -0.18750       -0.06250       -0.06250
 BRILLOUIN|   157           0.00391       -0.18750       -0.06250        0.06250
 BRILLOUIN|   158           0.00391       -0.18750       -0.06250        0.18750
 BRILLOUIN|   159           0.00391       -0.18750       -0.06250        0.31250
 BRILLOUIN|   160           0.00391       -0.18750       -0.06250        0.43750
 BRILLOUIN|   161           0.00391       -0.18750        0.06250       -0.43750
 BRILLOUIN|   162           0.00391       -0.18750        0.06250       -0.31250
 BRILLOUIN|   163           0.00391       -0.18750        0.06250       -0.18750
 BRILLOUIN|   164           0.00391       -0.18750        0.06250       -0.06250
 BRILLOUIN|   165           0.00391       -0.18750        0.06250        0.06250
 BRILLOUIN|   166           0.00391       -0.18750        0.06250        0.18750
 BRILLOUIN|   167           0.00391       -0.18750        0.06250        0.31250
 BRILLOUIN|   168           0.00391       -0.18750        0.06250        0.43750
 BRILLOUIN|   169           0.00391       -0.18750        0.18750       -0.43750
 BRILLOUIN|   170           0.00391       -0.18750        0.18750       -0.31250
 BRILLOUIN|   171           0.00391       -0.18750        0.18750       -0.18750
 BRILLOUIN|   172           0.00391       -0.18750        0.18750       -0.06250
 BRILLOUIN|   173           0.00391       -0.18750        0.18750        0.06250
 BRILLOUIN|   174           0.00391       -0.18750        0.18750        0.18750
 BRILLOUIN|   175           0.00391       -0.18750        0.18750        0.31250
 BRILLOUIN|   176           0.00391       -0.18750        0.18750        0.43750
 BRILLOUIN|   177           0.00391       -0.18750        0.31250       -0.43750
 BRILLOUIN|   178           0.00391       -0.18750        0.31250       -0.31250
 BRILLOUIN|   179           0.00391       -0.18750        0.31250       -0.18750
 BRILLOUIN|   180           0.00391       -0.18750        0.31250       -0.06250
 BRILLOUIN|   181           0.00391       -0.18750        0.31250        0.06250
 BRILLOUIN|   182           0.00391       -0.18750        0.31250        0.18750
 BRILLOUIN|   183           0.00391       -0.18750        0.31250        0.31250
 BRILLOUIN|   184           0.00391       -0.18750        0.31250        0.43750
 BRILLOUIN|   185           0.00391       -0.18750        0.43750       -0.43750
 BRILLOUIN|   186           0.00391       -0.18750        0.43750       -0.31250
 BRILLOUIN|   187           0.00391       -0.18750        0.43750       -0.18750
 BRILLOUIN|   188           0.00391       -0.18750        0.43750       -0.06250
 BRILLOUIN|   189           0.00391       -0.18750        0.43750        0.06250
 BRILLOUIN|   190           0.00391       -0.18750        0.43750        0.18750
 BRILLOUIN|   191           0.00391       -0.18750        0.43750        0.31250
 BRILLOUIN|   192           0.00391       -0.18750        0.43750        0.43750
 BRILLOUIN|   193           0.00391       -0.06250       -0.43750       -0.43750
 BRILLOUIN|   194           0.00391       -0.06250       -0.43750       -0.31250
 BRILLOUIN|   195           0.00391       -0.06250       -0.43750       -0.18750
 BRILLOUIN|   196           0.00391       -0.06250       -0.43750       -0.06250
 BRILLOUIN|   197           0.00391       -0.06250       -0.43750        0.06250
 BRILLOUIN|   198           0.00391       -0.06250       -0.43750        0.18750
 BRILLOUIN|   199           0.00391       -0.06250       -0.43750        0.31250
 BRILLOUIN|   200           0.00391       -0.06250       -0.43750        0.43750
 BRILLOUIN|   201           0.00391       -0.06250       -0.31250       -0.43750
 BRILLOUIN|   202           0.00391       -0.06250       -0.31250       -0.31250
 BRILLOUIN|   203           0.00391       -0.06250       -0.31250       -0.18750
 BRILLOUIN|   204           0.00391       -0.06250       -0.31250       -0.06250
 BRILLOUIN|   205           0.00391       -0.06250       -0.31250        0.06250
 BRILLOUIN|   206           0.00391       -0.06250       -0.31250        0.18750
 BRILLOUIN|   207           0.00391       -0.06250       -0.31250        0.31250
 BRILLOUIN|   208           0.00391       -0.06250       -0.31250        0.43750
 BRILLOUIN|   209           0.00391       -0.06250       -0.18750       -0.43750
 BRILLOUIN|   210           0.00391       -0.06250       -0.18750       -0.31250
 BRILLOUIN|   211           0.00391       -0.06250       -0.18750       -0.18750
 BRILLOUIN|   212           0.00391       -0.06250       -0.18750       -0.06250
 BRILLOUIN|   213           0.00391       -0.06250       -0.18750        0.06250
 BRILLOUIN|   214           0.00391       -0.06250       -0.18750        0.18750
 BRILLOUIN|   215           0.00391       -0.06250       -0.18750        0.31250
 BRILLOUIN|   216           0.00391       -0.06250       -0.18750        0.43750
 BRILLOUIN|   217           0.00391       -0.06250       -0.06250       -0.43750
 BRILLOUIN|   218           0.00391       -0.06250       -0.06250       -0.31250
 BRILLOUIN|   219           0.00391       -0.06250       -0.06250       -0.18750
 BRILLOUIN|   220           0.00391       -0.06250       -0.06250       -0.06250
 BRILLOUIN|   221           0.00391       -0.06250       -0.06250        0.06250
 BRILLOUIN|   222           0.00391       -0.06250       -0.06250        0.18750
 BRILLOUIN|   223           0.00391       -0.06250       -0.06250        0.31250
 BRILLOUIN|   224           0.00391       -0.06250       -0.06250        0.43750
 BRILLOUIN|   225           0.00391       -0.06250        0.06250       -0.43750
 BRILLOUIN|   226           0.00391       -0.06250        0.06250       -0.31250
 BRILLOUIN|   227           0.00391       -0.06250        0.06250       -0.18750
 BRILLOUIN|   228           0.00391       -0.06250        0.06250       -0.06250
 BRILLOUIN|   229           0.00391       -0.06250        0.06250        0.06250
 BRILLOUIN|   230           0.00391       -0.06250        0.06250        0.18750
 BRILLOUIN|   231           0.00391       -0.06250        0.06250        0.31250
 BRILLOUIN|   232           0.00391       -0.06250        0.06250        0.43750
 BRILLOUIN|   233           0.00391       -0.06250        0.18750       -0.43750
 BRILLOUIN|   234           0.00391       -0.06250        0.18750       -0.31250
 BRILLOUIN|   235           0.00391       -0.06250        0.18750       -0.18750
 BRILLOUIN|   236           0.00391       -0.06250        0.18750       -0.06250
 BRILLOUIN|   237           0.00391       -0.06250        0.18750        0.06250
 BRILLOUIN|   238           0.00391       -0.06250        0.18750        0.18750
 BRILLOUIN|   239           0.00391       -0.06250        0.18750        0.31250
 BRILLOUIN|   240           0.00391       -0.06250        0.18750        0.43750
 BRILLOUIN|   241           0.00391       -0.06250        0.31250       -0.43750
 BRILLOUIN|   242           0.00391       -0.06250        0.31250       -0.31250
 BRILLOUIN|   243           0.00391       -0.06250        0.31250       -0.18750
 BRILLOUIN|   244           0.00391       -0.06250        0.31250       -0.06250
 BRILLOUIN|   245           0.00391       -0.06250        0.31250        0.06250
 BRILLOUIN|   246           0.00391       -0.06250        0.31250        0.18750
 BRILLOUIN|   247           0.00391       -0.06250        0.31250        0.31250
 BRILLOUIN|   248           0.00391       -0.06250        0.31250        0.43750
 BRILLOUIN|   249           0.00391       -0.06250        0.43750       -0.43750
 BRILLOUIN|   250           0.00391       -0.06250        0.43750       -0.31250
 BRILLOUIN|   251           0.00391       -0.06250        0.43750       -0.18750
 BRILLOUIN|   252           0.00391       -0.06250        0.43750       -0.06250
 BRILLOUIN|   253           0.00391       -0.06250        0.43750        0.06250
 BRILLOUIN|   254           0.00391       -0.06250        0.43750        0.18750
 BRILLOUIN|   255           0.00391       -0.06250        0.43750        0.31250
 BRILLOUIN|   256           0.00391       -0.06250        0.43750        0.43750
 *******************************************************************************

 *******************************************************************************
 *******************************************************************************
 **                                                                           **
 **     #####                         ##              ##                      **
 **    ##   ##            ##          ##              ##                      **
 **   ##     ##                       ##            ######                    **
 **   ##     ##  ##   ##  ##   #####  ##  ##   ####   ##    #####    #####    **
 **   ##     ##  ##   ##  ##  ##      ## ##   ##      ##   ##   ##  ##   ##   **
 **   ##  ## ##  ##   ##  ##  ##      ####     ###    ##   ######   ######    **
 **    ##  ###   ##   ##  ##  ##      ## ##      ##   ##   ##       ##        **
 **     #######   #####   ##   #####  ##  ##  ####    ##    #####   ##        **
 **           ##                                                    ##        **
 **                                                                           **
 **                                                ... make the atoms dance   **
 **                                                                           **
 **            Copyright (C) by CP2K developers group (2000-2025)             **
 **                      J. Chem. Phys. 152, 194103 (2020)                    **
 **                                                                           **
 *******************************************************************************

 DFT| Spin restricted Kohn-Sham (RKS) calculation                            RKS
 DFT| Multiplicity                                                             2
 DFT| Number of spin states                                                    1
 DFT| Charge                                                                   0
 DFT| Self-interaction correction (SIC)                                       NO
 DFT| Cutoffs: density                                              1.000000E-10
 DFT|          gradient                                             1.000000E-10
 DFT|          tau                                                  1.000000E-10
 DFT|          cutoff_smoothing_range                               0.000000E+00
 DFT| XC density smoothing                                                  NONE
 DFT| XC derivatives                                                          PW

 FUNCTIONAL| PBE:
 FUNCTIONAL| J.P.Perdew, K.Burke, M.Ernzerhof, Phys. Rev. Letter, vol. 77, n 18,
 FUNCTIONAL|  pp. 3865-3868, (1996) {spin unpolarized}                          


 QS| Method:                                                                 GPW
 QS| Density plane wave grid type                        NON-SPHERICAL FULLSPACE
 QS| Number of grid levels:                                                    4
 QS| Density cutoff [a.u.]:                                                500.0
 QS| Multi grid cutoff [a.u.]: 1) grid level                               500.0
 QS|                           2) grid level                               166.7
 QS|                           3) grid level                                55.6
 QS|                           4) grid level                                18.5
 QS| Grid level progression factor:                                          3.0
 QS| Relative density cutoff [a.u.]:                                        50.0
 QS| Interaction thresholds: eps_pgf_orb:                                1.0E-16
 QS|                         eps_filter_matrix:                          0.0E+00
 QS|                         eps_core_charge:                            1.0E-18
 QS|                         eps_rho_gspace:                             1.0E-16
 QS|                         eps_rho_rspace:                             1.0E-16
 QS|                         eps_gvg_rspace:                             1.0E-08
 QS|                         eps_ppl:                                    1.0E-02
 QS|                         eps_ppnl:                                   1.0E-10


 ATOMIC KIND INFORMATION

  1. Atomic kind: Na                                    Number of atoms:       3

     Orbital Basis Set                                aug-DZVP-MOLOPT-GTH-tier-1

       Number of orbital shell sets:                                           1
       Number of orbital shells:                                               7
       Number of primitive Cartesian functions:                                8
       Number of Cartesian basis functions:                                   13
       Number of spherical basis functions:                                   13
       Norm type:                                                              2

       Normalised Cartesian orbitals:

                        Set   Shell   Orbital            Exponent    Coefficient

                          1       1    2s                0.041082      -0.010348
                                                         0.080000       0.000000
                                                         0.160574      -0.037203
                                                         0.463672      -0.069683
                                                         1.260954      -0.458926
                                                         3.486609      -0.410648
                                                        10.057600       0.579121
                                                        23.790812       0.389951

                          1       2    3s                0.041082       0.053250
                                                         0.080000       0.000000
                                                         0.160574       0.069967
                                                         0.463672      -0.122774
                                                         1.260954      -0.207581
                                                         3.486609      -0.138995
                                                        10.057600       0.172103
                                                        23.790812       0.106868

                          1       3    4s                0.041082       0.090473
                                                         0.080000       0.000000
                                                         0.160574      -0.398379
                                                         0.463672       0.320278
                                                         1.260954       0.132464
                                                         3.486609       0.061276
                                                        10.057600      -0.025961
                                                        23.790812       0.015409

                          1       4    5s                0.041082       0.000706
                                                         0.080000      -0.013947
                                                         0.160574       0.135492
                                                         0.463672       0.214356
                                                         1.260954      -0.169452
                                                         3.486609       0.000000
                                                        10.057600       0.000000
                                                        23.790812       0.000000

                          1       5    3px               0.041082      -0.002513
                                                         0.080000       0.000000
                                                         0.160574      -0.010269
                                                         0.463672      -0.128190
                                                         1.260954      -0.760162
                                                         3.486609      -2.367380
                                                        10.057600      -4.107990
                                                        23.790812      -2.798927
                          1       5    3py               0.041082      -0.002513
                                                         0.080000       0.000000
                                                         0.160574      -0.010269
                                                         0.463672      -0.128190
                                                         1.260954      -0.760162
                                                         3.486609      -2.367380
                                                        10.057600      -4.107990
                                                        23.790812      -2.798927
                          1       5    3pz               0.041082      -0.002513
                                                         0.080000       0.000000
                                                         0.160574      -0.010269
                                                         0.463672      -0.128190
                                                         1.260954      -0.760162
                                                         3.486609      -2.367380
                                                        10.057600      -4.107990
                                                        23.790812      -2.798927

                          1       6    4px               0.041082       0.021592
                                                         0.080000       0.000000
                                                         0.160574       0.040198
                                                         0.463672      -0.022347
                                                         1.260954      -0.229465
                                                         3.486609      -0.636011
                                                        10.057600      -1.115760
                                                        23.790812      -0.654971
                          1       6    4py               0.041082       0.021592
                                                         0.080000       0.000000
                                                         0.160574       0.040198
                                                         0.463672      -0.022347
                                                         1.260954      -0.229465
                                                         3.486609      -0.636011
                                                        10.057600      -1.115760
                                                        23.790812      -0.654971
                          1       6    4pz               0.041082       0.021592
                                                         0.080000       0.000000
                                                         0.160574       0.040198
                                                         0.463672      -0.022347
                                                         1.260954      -0.229465
                                                         3.486609      -0.636011
                                                        10.057600      -1.115760
                                                        23.790812      -0.654971

                          1       7    5px               0.041082       0.019764
                                                         0.080000      -0.011925
                                                         0.160574       0.053616
                                                         0.463672       0.073572
                                                         1.260954       0.526566
                                                         3.486609       0.000000
                                                        10.057600       0.000000
                                                        23.790812       0.000000
                          1       7    5py               0.041082       0.019764
                                                         0.080000      -0.011925
                                                         0.160574       0.053616
                                                         0.463672       0.073572
                                                         1.260954       0.526566
                                                         3.486609       0.000000
                                                        10.057600       0.000000
                                                        23.790812       0.000000
                          1       7    5pz               0.041082       0.019764
                                                         0.080000      -0.011925
                                                         0.160574       0.053616
                                                         0.463672       0.073572
                                                         1.260954       0.526566
                                                         3.486609       0.000000
                                                        10.057600       0.000000
                                                        23.790812       0.000000

       Atomic covalent radius [Angstrom]:                                  1.540

       Atomic van der Waals radius [Angstrom]:                             2.270

     GTH Potential information for                                       GTH-PBE

       Description:                       Goedecker-Teter-Hutter pseudopotential
                                           Goedecker et al., PRB 54, 1703 (1996)
                                          Hartwigsen et al., PRB 58, 3641 (1998)
                                                      Krack, TCA 114, 145 (2005)

       Gaussian exponent of the core charge distribution:              15.432099
       Electronic configuration (s p d ...):                               3   6

       Parameters of the local part of the GTH pseudopotential:

                          rloc        C1          C2          C3          C4
                        0.180000   -8.879924    3.944438

       Parameters of the non-local part of the GTH (SOC) pseudopotential:

                   l      r(l)      h(i,j,l)
                                    k(i,j,l)
                   0    0.140244   38.694399
                   1    0.148004   -7.533267
                                    0.031687


 MOLECULE KIND INFORMATION


 All atoms are their own molecule, skipping detailed information


 TOTAL NUMBERS AND MAXIMUM NUMBERS

  Total number of            - Atomic kinds:                                   1
                             - Atoms:                                          3
                             - Shell sets:                                     3
                             - Shells:                                        21
                             - Primitive Cartesian functions:                 24
                             - Cartesian basis functions:                     39
                             - Spherical basis functions:                     39

  Maximum angular momentum of- Orbital basis functions:                        1
                             - Local part of the GTH pseudopotential:          2
                             - Non-local part of the GTH pseudopotential:      1


 MODULE QUICKSTEP: ATOMIC COORDINATES IN ANGSTROM

   Atom Kind Element         X             Y             Z       Z(eff)     Mass
      1    1 Na   11      0.000000      0.000000      0.000000   9.0000  22.9898
      2    1 Na   11      5.948162      1.205953      0.715341   9.0000  22.9898
      3    1 Na   11     20.818836      4.220890      2.503725   9.0000  22.9898



 SCF PARAMETERS         Density guess:                                    ATOMIC
                        --------------------------------------------------------
                        max_scf:                                             500
                        max_scf_history:                                       0
                        max_diis:                                              4
                        --------------------------------------------------------
                        eps_scf:                                        1.00E-09
                        eps_scf_history:                                0.00E+00
                        eps_diis:                                       1.00E-01
                        eps_eigval:                                     1.00E-05
                        --------------------------------------------------------
                        level_shift [a.u.]:                             0.000000
                        added MOs                                        25    0
                        --------------------------------------------------------
                        Mixing method:                            BROYDEN_MIXING
                                                charge density mixing in g-space
                        --------------------------------------------------------
                        Smear method:                                FERMI_DIRAC
                        Electronic temperature [K]:                        300.0
                        Electronic temperature [a.u.]:                  9.50E-04
                        Accuracy threshold:                             1.00E-10
                        --------------------------------------------------------
                        No outer SCF

 PW_GRID| Information for grid number                                          1
 PW_GRID| Grid distributed over                                    16 processors
 PW_GRID| Real space group dimensions                                    16    1
 PW_GRID| the grid is blocked:                                                NO
 PW_GRID| Cutoff [a.u.]                                                    500.0
 PW_GRID| spherical cutoff:                                                   NO
 PW_GRID|   Bounds   1            -90      89                Points:         180
 PW_GRID|   Bounds   2            -90      89                Points:         180
 PW_GRID|   Bounds   3            -90      89                Points:         180
 PW_GRID| Volume element (a.u.^3)  0.1287E-03     Volume (a.u.^3)       750.4795
 PW_GRID| Grid span                                                    FULLSPACE
 PW_GRID|   Distribution                         Average         Max         Min
 PW_GRID|   G-Vectors                           364500.0      364500      364500
 PW_GRID|   G-Rays                                2025.0        2025        2025
 PW_GRID|   Real Space Points                   364500.0      388800      356400

 PW_GRID| Information for grid number                                          2
 PW_GRID| Number of the reference grid                                         1
 PW_GRID| Grid distributed over                                    16 processors
 PW_GRID| Real space group dimensions                                    16    1
 PW_GRID| the grid is blocked:                                                NO
 PW_GRID| Cutoff [a.u.]                                                    166.7
 PW_GRID| spherical cutoff:                                                   NO
 PW_GRID|   Bounds   1            -54      53                Points:         108
 PW_GRID|   Bounds   2            -54      53                Points:         108
 PW_GRID|   Bounds   3            -54      53                Points:         108
 PW_GRID| Volume element (a.u.^3)  0.5958E-03     Volume (a.u.^3)       750.4795
 PW_GRID| Grid span                                                    FULLSPACE
 PW_GRID|   Distribution                         Average         Max         Min
 PW_GRID|   G-Vectors                            78732.0       78840       78624
 PW_GRID|   G-Rays                                 729.0         730         728
 PW_GRID|   Real Space Points                    78732.0       81648       69984

 PW_GRID| Information for grid number                                          3
 PW_GRID| Number of the reference grid                                         1
 PW_GRID| Grid distributed over                                    16 processors
 PW_GRID| Real space group dimensions                                    16    1
 PW_GRID| the grid is blocked:                                                NO
 PW_GRID| Cutoff [a.u.]                                                     55.6
 PW_GRID| spherical cutoff:                                                   NO
 PW_GRID|   Bounds   1            -30      29                Points:          60
 PW_GRID|   Bounds   2            -30      29                Points:          60
 PW_GRID|   Bounds   3            -30      29                Points:          60
 PW_GRID| Volume element (a.u.^3)  0.3474E-02     Volume (a.u.^3)       750.4795
 PW_GRID| Grid span                                                    FULLSPACE
 PW_GRID|   Distribution                         Average         Max         Min
 PW_GRID|   G-Vectors                            13500.0       13560       13440
 PW_GRID|   G-Rays                                 225.0         226         224
 PW_GRID|   Real Space Points                    13500.0       14400       10800

 PW_GRID| Information for grid number                                          4
 PW_GRID| Number of the reference grid                                         1
 PW_GRID| Grid distributed over                                    16 processors
 PW_GRID| Real space group dimensions                                    16    1
 PW_GRID| the grid is blocked:                                                NO
 PW_GRID| Cutoff [a.u.]                                                     18.5
 PW_GRID| spherical cutoff:                                                   NO
 PW_GRID|   Bounds   1            -18      17                Points:          36
 PW_GRID|   Bounds   2            -18      17                Points:          36
 PW_GRID|   Bounds   3            -18      17                Points:          36
 PW_GRID| Volume element (a.u.^3)  0.1609E-01     Volume (a.u.^3)       750.4795
 PW_GRID| Grid span                                                    FULLSPACE
 PW_GRID|   Distribution                         Average         Max         Min
 PW_GRID|   G-Vectors                             2916.0        2952        2880
 PW_GRID|   G-Rays                                  81.0          82          80
 PW_GRID|   Real Space Points                     2916.0        3888        2592

 POISSON| Solver                                                        PERIODIC
 POISSON| Periodicity                                                        XYZ

 RS_GRID| Information for grid number                                          1
 RS_GRID|   Bounds   1            -90      89                Points:         180
 RS_GRID|   Bounds   2            -90      89                Points:         180
 RS_GRID|   Bounds   3            -90      89                Points:         180
 RS_GRID| Real space fully replicated
 RS_GRID| Group size                                                           1

 RS_GRID| Information for grid number                                          2
 RS_GRID|   Bounds   1            -54      53                Points:         108
 RS_GRID|   Bounds   2            -54      53                Points:         108
 RS_GRID|   Bounds   3            -54      53                Points:         108
 RS_GRID| Real space fully replicated
 RS_GRID| Group size                                                           1

 RS_GRID| Information for grid number                                          3
 RS_GRID|   Bounds   1            -30      29                Points:          60
 RS_GRID|   Bounds   2            -30      29                Points:          60
 RS_GRID|   Bounds   3            -30      29                Points:          60
 RS_GRID| Real space fully replicated
 RS_GRID| Group size                                                           1

 RS_GRID| Information for grid number                                          4
 RS_GRID|   Bounds   1            -18      17                Points:          36
 RS_GRID|   Bounds   2            -18      17                Points:          36
 RS_GRID|   Bounds   3            -18      17                Points:          36
 RS_GRID| Real space fully replicated
 RS_GRID| Group size                                                           1

 Number of electrons:                                                         27
 Number of occupied orbitals:                                                 14
 Number of molecular orbitals:                                                39

 Number of orbital functions:                                                 39
 Number of independent orbital functions:                                     39

 Extrapolation method: initial_guess

 Atomic guess: The first density matrix is obtained in terms of atomic orbitals
               and electronic configurations assigned to each atomic kind

 Guess for atomic kind: Na

 Electronic structure
    Total number of core electrons                                          2.00
    Total number of valence electrons                                       9.00
    Total number of electrons                                              11.00
    Multiplicity                                                   not specified
    S   [  2.00] 2.00  1.00
    P      6.00


 *******************************************************************************
                  Iteration          Convergence                     Energy [au]
 *******************************************************************************
                          1         1.63769                     -47.460817817612
                          2         1.33150                     -47.513544481437
                          3        0.344388E-01                 -47.577707967360
                          4        0.121458E-02                 -47.577773975417
                          5        0.442917E-05                 -47.577774092122
                          6        0.151557E-06                 -47.577774092126

 Energy components [Hartree]           Total Energy ::          -47.577774092126
                                        Band Energy ::          -10.418506761821
                                     Kinetic Energy ::           38.565880299876
                                   Potential Energy ::          -86.143654392002
                                      Virial (-V/T) ::            2.233675303719
                                        Core Energy ::          -79.979635091148
                                          XC Energy ::           -6.950264476693
                                     Coulomb Energy ::           39.352125475714
                       Total Pseudopotential Energy ::         -118.578246203781
                       Local Pseudopotential Energy ::         -114.220990143135
                    Nonlocal Pseudopotential Energy ::           -4.357256060645
                                        Confinement ::            0.327308127570

 Orbital energies  State     L     Occupation   Energy[a.u.]          Energy[eV]

                       1     0          2.000      -2.064372          -56.174410
                       2     0          1.000      -0.073305           -1.994734

                       1     1          6.000      -1.036076          -28.193072


 Total Electron Density at R=0:                                         0.004234
 Re-scaling the density matrix to get the right number of electrons
                  # Electrons              Trace(P)               Scaling factor
                           27                27.000                        1.000


 SCF WAVEFUNCTION OPTIMIZATION

  Step     Update method      Time    Convergence         Total energy    Change
  ------------------------------------------------------------------------------
     1 NoMix/Diag. 0.10E+00    3.5     2.13133794      -143.6960928459 -1.44E+02
     2 Broy./Diag. 0.10E+00    4.5     0.00302336      -142.6684267967  1.03E+00
     3 Broy./Diag. 0.10E+00    4.6     0.01873425      -143.2681820991 -6.00E-01
     4 Broy./Diag. 0.10E+00    4.6     0.00029522      -143.6739322385 -4.06E-01
     5 Broy./Diag. 0.10E+00    4.6     0.00347760      -143.6540041612  1.99E-02
     6 Broy./Diag. 0.10E+00    4.6     0.00011166      -143.6269833508  2.70E-02
     7 Broy./Diag. 0.10E+00    4.6     0.00087306      -143.6211148051  5.87E-03
     8 Broy./Diag. 0.10E+00    4.6     0.00003138      -143.5957443054  2.54E-02
     9 Broy./Diag. 0.10E+00    4.6     0.00033454      -143.5950513842  6.93E-04
    10 Broy./Diag. 0.10E+00    4.6     0.00000418      -143.5944586059  5.93E-04
    11 Broy./Diag. 0.10E+00    4.6     0.00003283      -143.5945694392 -1.11E-04
    12 Broy./Diag. 0.10E+00    4.6     0.00000456      -143.5951230782 -5.54E-04
    13 Broy./Diag. 0.10E+00    4.6     0.00003782      -143.5952075266 -8.44E-05
    14 Broy./Diag. 0.10E+00    4.6     0.00000047      -143.5953165327 -1.09E-04
    15 Broy./Diag. 0.10E+00    4.6     0.00000348      -143.5952717901  4.47E-05
    16 Broy./Diag. 0.10E+00    4.6     0.00000061      -143.5952609434  1.08E-05
    17 Broy./Diag. 0.10E+00    4.6     0.00000162      -143.5952954034 -3.45E-05
    18 Broy./Diag. 0.10E+00    4.6     0.00000038      -143.5953112307 -1.58E-05
    19 Broy./Diag. 0.10E+00    4.6     0.00000039      -143.5953070669  4.16E-06
    20 Broy./Diag. 0.10E+00    4.6     0.00000020      -143.5953041002  2.97E-06
    21 Broy./Diag. 0.10E+00    4.6     0.00000011      -143.5952987654  5.33E-06
    22 Broy./Diag. 0.10E+00    4.6     0.00000028      -143.5952958564  2.91E-06
    23 Broy./Diag. 0.10E+00    4.6     0.00000016      -143.5952936306  2.23E-06
    24 Broy./Diag. 0.10E+00    4.6     0.00000020      -143.5952930267  6.04E-07
    25 Broy./Diag. 0.10E+00    4.6     0.00000006      -143.5952932131 -1.86E-07
    26 Broy./Diag. 0.10E+00    4.6     0.00000006      -143.5952936838 -4.71E-07
    27 Broy./Diag. 0.10E+00    4.6     0.00000012      -143.5952922523  1.43E-06
    28 Broy./Diag. 0.10E+00    4.6     0.00000002      -143.5952912975  9.55E-07
    29 Broy./Diag. 0.10E+00    4.6     0.00000006      -143.5952921447 -8.47E-07
    30 Broy./Diag. 0.10E+00    4.6     8.4639E-09      -143.5952926262 -4.81E-07
    31 Broy./Diag. 0.10E+00    4.6     0.00000003      -143.5952925279  9.83E-08
    32 Broy./Diag. 0.10E+00    4.6     5.4050E-09      -143.5952926333 -1.05E-07
    33 Broy./Diag. 0.10E+00    4.6     0.00000001      -143.5952926500 -1.67E-08
    34 Broy./Diag. 0.10E+00    4.6     5.0508E-09      -143.5952926518 -1.85E-09
    35 Broy./Diag. 0.10E+00    4.6     6.1251E-09      -143.5952926065  4.53E-08
    36 Broy./Diag. 0.10E+00    4.6     0.00000002      -143.5952925557  5.08E-08
    37 Broy./Diag. 0.10E+00    4.6     1.5007E-09      -143.5952925007  5.51E-08
    38 Broy./Diag. 0.10E+00    4.6     3.6278E-09      -143.5952925375 -3.69E-08
    39 Broy./Diag. 0.10E+00    4.6     8.9150E-10      -143.5952925426 -5.03E-09

  *** SCF run converged in    39 steps ***


  Electronic density on regular grids:        -26.9999999999        0.0000000001
  Core density on regular grids:               27.0000000000        0.0000000000
  Total charge density on r-space grids:        0.0000000001
  Total charge density g-space grids:           0.0000000001

  Overlap energy of the core charge distribution:               0.00000000000000
  Self energy of the core charge distribution:               -380.82796889473553
  Core Hamiltonian energy:                                    106.17164249091223
  Hartree energy:                                             152.72302523008665
  Exchange-correlation energy:                                -21.66185081853259
  Electronic entropic energy:                                  -0.00014055031225
  Fermi energy:                                                 0.04929193891949

  Total energy:                                              -143.59529254258152

 !-----------------------------------------------------------------------------!
                     Mulliken Population Analysis

 #  Atom  Element  Kind  Atomic population                           Net charge
       1     Na       1          9.002679                             -0.002679
       2     Na       1          8.998660                              0.001340
       3     Na       1          8.998660                              0.001340
 # Total charge                             27.000000                  0.000000

 !-----------------------------------------------------------------------------!

 !-----------------------------------------------------------------------------!
                           Hirshfeld Charges

  #Atom  Element  Kind  Ref Charge     Population                    Net charge
      1       Na     1       9.000          9.000                        -0.000
      2       Na     1       9.000          9.000                         0.000
      3       Na     1       9.000          9.000                         0.000

  Total Charge                                                            0.000
 !-----------------------------------------------------------------------------!

 KPOINTS| Band Structure Calculation
 KPOINTS| Number of k-point sets                                               1
 KPOINTS| Number of added MOs/bands                                           -1
 KPOINTS| Number of k-points in set    1                                     197
 KPOINTS| In units of b-vector [2pi/Bohr]
 KPOINTS| Special point     1 not specifi     0.000000     0.000000     0.000000
 KPOINTS| Special point     2 not specifi     0.500000     0.500000     0.500000
 KPOINTS| Special point     3 not specifi     0.824072     0.175928     0.500000
 KPOINTS| Special point     4 not specifi     0.500000     0.000000     0.000000
 KPOINTS| Special point     5 not specifi     0.000000     0.000000     0.000000
 KPOINTS| Time for k-point line                                            2.519

 ENERGY| Total FORCE_EVAL ( QS ) energy [hartree]           -143.595292542581518

 -------------------------------------------------------------------------------
 -                                                                             -
 -                                DBCSR STATISTICS                             -
 -                                                                             -
 -------------------------------------------------------------------------------
 COUNTER                                    TOTAL       BLAS       SMM       ACC
 flops inhomo. stacks                           0       0.0%      0.0%      0.0%
 flops total                         0.000000E+00       0.0%      0.0%      0.0%
 flops max/rank                      0.000000E+00       0.0%      0.0%      0.0%
 matmuls inhomo. stacks                         0       0.0%      0.0%      0.0%
 matmuls total                                  0       0.0%      0.0%      0.0%
 number of processed stacks                     0       0.0%      0.0%      0.0%
 average stack size                                     0.0       0.0       0.0
 marketing flops                     0.000000E+00
 -------------------------------------------------------------------------------
 -                                                                             -
 -                      DBCSR MESSAGE PASSING PERFORMANCE                      -
 -                                                                             -
 -------------------------------------------------------------------------------
 ROUTINE             CALLS      AVE VOLUME [Bytes]
 MP_Bcast                1                     12.
 MP_Allreduce           19                     21.
 MP_Alltoall        872836                   1395.
 -------------------------------------------------------------------------------

 -------------------------------------------------------------------------------
 -                                                                             -
 -                                DBM STATISTICS                               -
 -                                                                             -
 -------------------------------------------------------------------------------
    M  x    N  x    K                                          COUNT     PERCENT
 -------------------------------------------------------------------------------

 -------------------------------------------------------------------------------
 -                                                                             -
 -                                GRID STATISTICS                              -
 -                                                                             -
 -------------------------------------------------------------------------------
 LP    KERNEL             BACKEND                              COUNT     PERCENT
 2     collocate general  CPU                                1210080      50.63%
 2     integrate general  CPU                                1179828      49.37%
 0     collocate general  CPU                                      6       0.00%
 0     integrate general  CPU                                      3       0.00%
 -------------------------------------------------------------------------------

 MEMORY| Estimated peak process memory [MiB]                                1150

 -------------------------------------------------------------------------------
 ----                             MULTIGRID INFO                            ----
 -------------------------------------------------------------------------------
 count for grid        1:         134145          cutoff [a.u.]          500.00
 count for grid        2:          33677          cutoff [a.u.]          166.67
 count for grid        3:          29114          cutoff [a.u.]           55.56
 count for grid        4:          57936          cutoff [a.u.]           18.52
 total gridlevel count  :         254872

 -------------------------------------------------------------------------------
 -                                                                             -
 -                         MESSAGE PASSING PERFORMANCE                         -
 -                                                                             -
 -------------------------------------------------------------------------------

 ROUTINE             CALLS      AVE VOLUME [Bytes]
 MP_Group                6
 MP_Bcast           364345                    740.
 MP_Allreduce       199974                     28.
 MP_Sync                 4
 MP_Alltoall           707               16028617.
 MP_SendRecv          2430                1003804.
 MP_ISendRecv         2355                 991058.
 MP_Wait            249655
 MP_comm_split           4
 MP_ISend           256364                    206.
 MP_IRecv           424844                    125.
 -------------------------------------------------------------------------------


 -------------------------------------------------------------------------------
 -                                                                             -
 -                           R E F E R E N C E S                               -
 -                                                                             -
 -------------------------------------------------------------------------------
 
 CP2K version 2025.1 (Development Version), the CP2K developers group (2025).
 CP2K is freely available from https://www.cp2k.org/ .
 
 T. D. Kuehne, M. Iannuzzi, M. Del Ben, V. V. Rybkin, P. Seewald, F. Stein, T. 
 Laino, R. Z. Khaliullin, O. Schuett, F. Schiffmann, D. Golze, J. Wilhelm, S. 
 Chulkov, M. H. Bani-Hashemian, V. Weber, U. Borstnik, M. Taillefumier, A. S. 
 Jakobovits, A. Lazzaro, H. Pabst, T. Mueller, R. Schade, M. Guidon, S. 
 Andermatt, N. Holmberg, G. K. Schenter, A. Hehn, A. Bussy, F. Belleflamme, G. 
 Tabacchi, A. Gloess, M. Lass, I. Bethune, C. J. Mundy, C. Plessl, M. Watkins, 
 J. VandeVondele, M. Krack, J. Hutter.
 J. Chem. Phys. 152, 194103 (2020).
 CP2K: An electronic structure and molecular dynamics software package - 
 Quickstep: Efficient and accurate electronic structure calculations.
 https://doi.org/10.1063/5.0007045

 O. Schuett, P. Messmer, J. Hutter, J. VandeVondele.
 Electronic Structure Calculations on Graphics Processing Units, 173-190 (2016).
 GPU-Accelerated Sparse Matrix-Matrix Multiplication for Linear Scaling Density 
 Functional Theory.
 https://doi.org/10.1002/9781118670712.ch8

 J. Hutter, M. Iannuzzi, F. Schiffmann, J. VandeVondele.
 WIREs Comput Mol Sci. 4, 15-25 (2014).
 CP2K: atomistic simulations of condensed matter systems.
 https://doi.org/10.1002/wcms.1159

 U. Borstnik, J. VandeVondele, V. Weber, J. Hutter.
 Parallel Comput. 40, 47-58 (2014).
 Sparse matrix multiplication: The distributed block-compressed sparse row 
 library.
 https://doi.org/10.1016/j.parco.2014.03.012

 J. VandeVondele, J. Hutter.
 J. Chem. Phys. 127, 114105 (2007).
 Gaussian basis sets for accurate calculations on molecular systems in gas and 
 condensed phases.
 https://doi.org/10.1063/1.2770708

 J. VandeVondele, M. Krack, F. Mohamed, M. Parrinello, T. Chassaing, J. Hutter.
 Comput. Phys. Commun. 167, 103-128 (2005).
 QUICKSTEP: Fast and accurate density functional calculations using a mixed 
 Gaussian and plane waves approach.
 https://doi.org/10.1016/j.cpc.2004.12.014

 M. Krack.
 Theor. Chem. Acc. 114, 145-152 (2005).
 Pseudopotentials for H to Kr optimized for gradient-corrected 
 exchange-correlation functionals.
 https://doi.org/10.1007/s00214-005-0655-y

 M. Frigo, S. G. Johnson.
 Proc. IEEE 93, 216-231 (2005).
 The design and implementation of FFTW3.
 https://doi.org/10.1109/JPROC.2004.840301

 C. Hartwigsen, S. Goedecker, J. Hutter.
 Phys. Rev. B 58, 3641-3662 (1998).
 Relativistic separable dual-space Gaussian pseudopotentials from H to Rn.
 https://doi.org/10.1103/PhysRevB.58.3641

 G. Lippert, J. Hutter, M. Parrinello.
 Mol. Phys. 92, 477-487 (1997).
 A hybrid Gaussian and plane wave density functional scheme.
 https://doi.org/10.1080/002689797170220

 S. Goedecker, M. Teter, J. Hutter.
 Phys. Rev. B 54, 1703-1710 (1996).
 Separable dual-space Gaussian pseudopotentials.
 https://doi.org/10.1103/PhysRevB.54.1703

 J. P. Perdew, K. Burke, M. Ernzerhof.
 Phys. Rev. Lett. 77, 3865-3868 (1996).
 Generalized gradient approximation made simple.
 https://doi.org/10.1103/PhysRevLett.77.3865


 -------------------------------------------------------------------------------
 -                                                                             -
 -                                T I M I N G                                  -
 -                                                                             -
 -------------------------------------------------------------------------------
 SUBROUTINE                       CALLS  ASD         SELF TIME        TOTAL TIME
                                MAXIMUM       AVERAGE  MAXIMUM  AVERAGE  MAXIMUM
 CP2K                                 1  1.0    0.017    0.020  188.214  188.214
 qs_energies                          1  2.0    0.007    0.028  187.864  187.885
 scf_env_do_scf                       1  3.0    0.000    0.000  182.699  182.699
 scf_env_do_scf_inner_loop           39  4.0    0.058    0.063  182.698  182.699
 do_general_diag_kp                  40  5.9    0.217    0.247  113.214  126.615
 qs_scf_new_mos_kp                   39  5.0    0.000    0.000  110.738  124.140
 mp_alltoall_i22                 148932  8.8   53.986   83.760   53.986   83.760
 dbcsr_desymmetrize_deep          84844  7.4    1.237    1.349   54.284   78.344
 qs_ks_update_qs_env                 39  5.0    0.000    0.000   21.855   45.392
 qs_rho_update_rho_low               40  5.0    0.000    0.000   43.885   43.923
 calculate_rho_elec                  40  6.0    0.106    0.119   43.885   43.923
 rebuild_ks_matrix                   39  6.0    0.000    0.000   19.818   43.356
 qs_ks_build_kohn_sham_matrix        39  7.0    0.108    0.114   19.818   43.356
 density_rs2pw                       40  7.0    0.002    0.002   27.962   42.028
 transfer_rs2pw                     162  8.0    0.002    0.003   27.559   41.785
 transfer_rs2pw_500                  42  8.9    0.778    0.863   27.146   41.366
 grid_collocate_task_list            40  7.0   15.798   40.876   15.798   40.876
 mp_sendrecv_dv                    2430 10.0   26.614   40.849   26.614   40.849
 sum_up_and_integrate                39  8.0    0.000    0.001   15.699   39.191
 integrate_v_rspace                  39  9.0    0.027    0.073   15.694   39.187
 dbcsr_complete_redistribute      64088  8.2    1.974    2.208   33.021   38.384
 grid_integrate_task_list            39 10.0   13.399   36.893   13.399   36.893
 copy_dbcsr_to_fm                 44120  6.9    0.430    0.474   27.893   28.126
 rskp_transform                   20362  6.9   10.339   28.021   10.339   28.021
 kpoint_density_transform            39  7.0    0.110    0.124   22.716   22.752
 copy_fm_to_dbcsr                 19968  8.0    0.114    0.126   15.376   20.415
 transform_dmat                    9984  8.0    5.041   13.639    5.041   13.639
 mp_alltoall_d11v                446796  9.3    7.700    8.173    7.700    8.173
 mp_alltoall_i11v                277108  9.0    5.933    5.992    5.933    5.992
 cp_fm_start_copy_general         60692  7.3    0.625    1.054    5.841    5.933
 dbcsr_finalize                  176572  8.3    0.744    0.801    5.216    5.583
 mp_cart_sub                      88242  8.9    5.047    5.081    5.047    5.081
 hybrid_alltoall_any              84844  8.4    0.341    0.368    4.649    4.971
 fft_wrap_pw1pw2                    707 10.0    0.010    0.013    4.116    4.152
 fft_wrap_pw1pw2_500                470 11.3    0.283    0.299    3.858    3.902
 fft3d_ps                           707 12.0    1.396    1.504    3.262    3.310
 dbcsr_merge_all                  64088 10.2    1.790    2.049    2.951    3.184
 write_kpoints_restart               39  5.0    0.020    0.031    3.119    3.120
 mp_allgather_i                  121384  8.3    2.893    3.046    2.893    3.046
 qs_vxc_create                       39  8.0    0.001    0.001    2.989    2.997
 xc_vxc_pw_create                    39  9.0    0.108    0.115    2.988    2.996
 mp_cart_create                   44127  8.9    2.675    2.778    2.675    2.778
 gspace_mixing                       38  5.0    0.098    0.104    2.543    2.543
 potential_pw2rs                     39 10.0    0.007    0.007    2.268    2.301
 broyden_mixing                      38  6.0    2.061    2.091    2.104    2.118
 dbcsr_dot                       132445  8.0    0.519    0.567    2.048    2.116
 evaluate_core_matrix_traces         39  6.0    0.000    0.000    2.036    2.037
 calculate_ptrace_kp                 78  7.0    0.097    0.103    2.036    2.037
 xc_pw_derive                       234 11.0    0.001    0.001    1.971    2.004
 transfer_pw2rs                     157 11.0    0.001    0.001    1.839    1.841
 mp_bcast_iv                     242791  8.3    1.622    1.820    1.622    1.820
 cp_cfm_geeig_canon                 821  6.3    0.005    0.005    1.807    1.816
 cp_cfm_heevd                      1642  7.3    0.002    0.002    1.716    1.724
 cp_cfm_heevd_base                 1642  8.3    1.714    1.722    1.714    1.722
 mp_alltoall_z22v                   707 14.0    1.634    1.708    1.634    1.708
 dbcsr_create_new                357627  8.0    1.203    1.299    1.455    1.595
 xc_rho_set_and_dset_create          39 10.0    0.067    0.072    1.556    1.589
 dbcsr_work_create               148932  8.8    0.928    0.957    1.352    1.484
 mp_sum_d                        133179  9.0    1.293    1.443    1.293    1.443
 transfer_pw2rs_500                  40 11.9    0.732    0.776    1.355    1.402
 dbcsr_copy                      154110  6.8    0.721    0.808    1.213    1.389
 init_scf_run                         1  3.0    0.000    0.000    1.302    1.368
 scf_env_initial_rho_setup            1  4.0    0.000    0.000    1.302    1.368
 dbcsr_iterator_start            605651  8.8    1.075    1.142    1.248    1.326
 xc_pw_divergence                    39 10.0    0.001    0.001    1.301    1.322
 mp_waitall_1                    249655  8.4    0.808    1.210    0.808    1.210
 self_consistency_check              39  5.0    0.093    0.099    1.135    1.155
 dbcsr_work_destroy_all          148932  9.8    0.701    0.714    1.057    1.092
 dbcsr_data_new                 1612544  9.7    0.839    1.070    0.839    1.070
 x_to_yz                            390 13.2    0.149    0.162    1.026    1.053
 cp_fm_write_unformatted           3396  6.0    0.858    1.019    0.861    1.045
 tree_to_linear_d                 64088 11.2    0.920    0.996    0.920    0.996
 cp_sm_mix                        66222  6.0    0.167    0.203    0.956    0.982
 copy_dbcsr_to_fm_bc              44120  7.9    0.407    0.435    0.921    0.957
 copy_fm_to_dbcsr_bc              19968  9.0    0.252    0.282    0.839    0.914
 yz_to_x                            317 12.8    0.075    0.086    0.832    0.892
 dbcsr_iterator_stop             605651  8.8    0.696    0.715    0.829    0.861
 dbcsr_data_release             2387883 10.1    0.788    0.857    0.788    0.857
 cp_dbcsr_alloc_block_from_nbl    12122  5.1    0.249    0.634    0.274    0.682
 mp_max_d                         66224  7.0    0.633    0.678    0.633    0.678
 dbcsr_destroy                   225183  8.0    0.365    0.390    0.634    0.677
 qs_energies_init_hamiltonians        1  3.0    0.000    0.000    0.645    0.645
 mp_bcast_im                     121384  8.3    0.510    0.607    0.510    0.607
 kpoint_set_mo_occupation            39  7.0    0.521    0.527    0.549    0.559
 xc_functional_eval                  39 11.0    0.000    0.001    0.488    0.518
 pbe_lda_eval                        39 12.0    0.488    0.518    0.488    0.518
 mp_isendrecv_dv                   2355 13.0    0.200    0.505    0.200    0.505
 quick_finalize                   84844  9.4    0.235    0.278    0.411    0.502
 scf_post_calculation_gpw             1  3.0    0.000    0.000    0.482    0.482
 write_available_results              1  4.0    0.000    0.000    0.482    0.482
 write_mo_free_results                1  5.0    0.004    0.004    0.482    0.482
 build_core_hamiltonian_matrix        1  4.0    0.006    0.006    0.213    0.441
 qs_env_update_s_mstruct              1  4.0    0.000    0.000    0.346    0.437
 calculate_rho_core                   1  5.0    0.003    0.004    0.293    0.421
 transfer_pw2rs_170                  39 12.0    0.183    0.200    0.369    0.416
 dbcsr_copy_into_existing         21666  9.7    0.162    0.241    0.282    0.366
 mp_comm_free                    132403  8.9    0.313    0.364    0.313    0.364
 pw_scatter_p                       390 12.2    0.333    0.345    0.333    0.345
 dbcsr_set                       247601  7.5    0.218    0.232    0.306    0.337
 transfer_rs2pw_170                  40  9.0    0.136    0.141    0.313    0.325
 hirshfeld_integration                1  6.0    0.042    0.224    0.256    0.256
 mp_sum_dv                          432  3.4    0.190    0.237    0.190    0.237
 pw_poisson_solve                    39  8.0    0.000    0.000    0.225    0.230
 dbcsr_iterator_seek             605651  9.8    0.173    0.218    0.173    0.218
 calculate_hirshfeld_normalizat       1  6.0    0.033    0.175    0.214    0.215
 mixing_allocate                      1  3.0    0.010    0.010    0.101    0.211
 fft_wrap_pw1pw2_170                 79 10.5    0.012    0.014    0.191    0.196
 dbcsr_make_index_exist          357627  9.0    0.165    0.193    0.165    0.193
 calculate_first_density_matrix       1  5.0    0.001    0.001    0.116    0.182
 dbcsr_sort_indices              181022 10.8    0.123    0.182    0.123    0.182
 calculate_atomic_block_dm            1  6.0    0.001    0.001    0.113    0.179
 cp_fm_finish_copy_general        23252  7.8    0.094    0.107    0.125    0.152
 pw_integral_ab_c1d_c1d_gs           39  9.0    0.137    0.139    0.143    0.144
 merge_index                      64088 11.2    0.129    0.144    0.129    0.144
 pw_gather_p                        317 11.8    0.131    0.142    0.131    0.142
 parser_read_line                  4509  4.1    0.002    0.002    0.135    0.137
 parser_read_line_low                22  6.3    0.009    0.077    0.133    0.136
 dbcsr_reserve_blocks             32090  9.1    0.073    0.103    0.095    0.135
 broadcast_input_information         22  7.3    0.025    0.034    0.124    0.131
 dbcsr_reserve_all_blocks         19968 10.0    0.028    0.033    0.104    0.125
 qs_init_subsys                       1  2.0    0.001    0.001    0.119    0.119
 qs_env_setup                         1  3.0    0.000    0.000    0.117    0.117
 qs_env_rebuild_pw_env                2  3.5    0.000    0.000    0.116    0.116
 pw_derive                          351 11.3    0.106    0.116    0.106    0.116
 pw_env_rebuild                       1  5.0    0.000    0.001    0.116    0.116
 dbcsr_switch_data_area           84844 10.4    0.080    0.084    0.106    0.116
 build_overlap_matrix_low             1  5.0    0.012    0.015    0.057    0.115
 build_kinetic_matrix_low             1  5.0    0.012    0.015    0.056    0.114
 mp_sum_iv                           24  5.3    0.078    0.113    0.078    0.113
 mp_irecv_iv                     242768  8.3    0.007    0.113    0.007    0.113
 qs_scf_ensure_work_matrices          1  3.0    0.000    0.000    0.077    0.112
 pw_grid_setup                        4  6.0    0.000    0.000    0.112    0.112
 pw_grid_setup_internal               4  7.0    0.003    0.003    0.112    0.112
 pw_copy                            585 10.5    0.099    0.109    0.099    0.109
 dbcsr_zero                      247601  8.5    0.088    0.105    0.088    0.105
 qs_env_rebuild_rho                   1  5.0    0.000    0.000    0.049    0.105
 qs_rho_rebuild                       1  6.0    0.004    0.005    0.049    0.105
 calculate_ecore_overlap              1  4.0    0.000    0.000    0.063    0.101
 kpoint_density_matrices             39  7.0    0.007    0.007    0.089    0.099
 transfer_pw2rs_60                   39 12.0    0.029    0.032    0.090    0.099
 create_qs_kind_set                   1  2.0    0.000    0.000    0.095    0.095
 read_qs_kind                         1  3.0    0.023    0.028    0.095    0.095
 parallel_gemm_fm                  2496  8.0    0.002    0.002    0.080    0.091
 mp_isend_dv                      60692  8.3    0.077    0.090    0.077    0.090
 parallel_gemm_fm_gemm             2496  9.0    0.002    0.002    0.078    0.088
 cp_fm_gemm                        2496 10.0    0.076    0.086    0.076    0.086
 cp_cfm_gemm                       2463  7.3    0.081    0.084    0.081    0.084
 mp_bcast_i_src                      88  8.3    0.076    0.083    0.076    0.083
 pw_grid_sort                         4  8.0    0.065    0.066    0.081    0.081
 transfer_rs2pw_60                   40  9.0    0.022    0.024    0.074    0.077
 cp_fm_cleanup_copy_general       41972  7.0    0.047    0.049    0.073    0.076
 mp_isend_iv                     130448  8.3    0.011    0.076    0.011    0.076
 topology_control                     1  2.0    0.000    0.000    0.070    0.070
 pw_poisson_set                      40  8.9    0.001    0.001    0.059    0.064
 dbcsr_make_dbcsr_index          181022 10.8    0.056    0.062    0.056    0.062
 dbcsr_get_data_size_used        148932  9.8    0.054    0.060    0.054    0.060
 mp_irecv_im2                    121384  8.3    0.003    0.055    0.003    0.055
 dbcsr_distribution_new           64090  8.5    0.046    0.055    0.046    0.055
 build_core_ppnl                      1  5.0    0.018    0.054    0.018    0.054
 mixing_init                          1  5.0    0.046    0.048    0.049    0.049
 read_cell_cif                        2  4.5    0.002    0.005    0.047    0.049
 pw_copy_from_array                 390 12.2    0.041    0.045    0.041    0.045
 pw_copy_to_array                   317 11.8    0.040    0.045    0.040    0.045
 mp_comm_size                    133651  9.0    0.033    0.044    0.033    0.044
 pw_axpy                            394  9.3    0.042    0.044    0.042    0.044
 fft_wrap_pw1pw2_60                  79 10.5    0.002    0.003    0.041    0.043
 mp_sum_dm                           38  7.0    0.025    0.042    0.025    0.042
 kpoint_init_cell_index               2  3.5    0.036    0.038    0.039    0.042
 coordinate_control                   1  3.0    0.002    0.003    0.041    0.041
 coordinate_control_READ_COORDI       1  4.0    0.000    0.000    0.039    0.041
 read_coordinate_cif                  1  5.0    0.002    0.002    0.039    0.041
 mp_sum_dm3                          39  8.0    0.028    0.039    0.028    0.039
 mp_irecv_dv                      60692  8.3    0.034    0.036    0.034    0.036
 mp_isend_im2                     65224  8.3    0.005    0.035    0.005    0.035
 dbcsr_data_copy_aa2              64088 11.0    0.026    0.034    0.026    0.034
 mp_comm_rank                    133651  9.0    0.030    0.034    0.030    0.034
 mp_bcast_am_src                     22  8.3    0.013    0.014    0.023    0.032
 pw_zero                            196 10.4    0.024    0.026    0.024    0.026
 mp_recv_dv                       10188  7.0    0.002    0.025    0.002    0.025
 transfer_rs2pw_20                   40  9.0    0.006    0.006    0.023    0.025
 transfer_pw2rs_20                   39 12.0    0.009    0.009    0.024    0.024
 build_core_ppl                       1  5.0    0.008    0.024    0.008    0.024
 restraint_control                    1  2.0    0.000    0.000    0.020    0.021
 mp_sum_i                             4  2.8    0.020    0.021    0.020    0.021
 -------------------------------------------------------------------------------

 The number of warnings for this run is : 1
 
 -------------------------------------------------------------------------------
  **** **** ******  **  PROGRAM ENDED AT                 2025-08-21 04:25:36.749
 ***** ** ***  *** **   PROGRAM RAN ON                              i05r08c02s04
 **    ****   ******    PROGRAM RAN BY                                   di38fab
 ***** **    ** ** **   PROGRAM PROCESS ID                               3104955
  **** **  *******  **  PROGRAM STOPPED IN /hppfs/scratch/04/di38fab/09_GTH/Delt
                                           a_Set/Na/aug-DZVP-MOLOPT-GTH-tier-1/8
                                           x8x8
