 DBCSR| CPU Multiplication driver                                           BLAS (U)
 DBCSR| Multrec recursion limit                                              512 (U)
 DBCSR| Multiplication stack size                                           1000 (D)
 DBCSR| Maximum elements for images                                    UNLIMITED (U)
 DBCSR| Multiplicative factor virtual images                                   1 (U)
 DBCSR| Use multiplication densification                                       T (D)
 DBCSR| Multiplication size stacks                                             3 (U)
 DBCSR| Use memory pool for CPU allocation                                     F (U)
 DBCSR| Number of 3D layers                                               SINGLE (U)
 DBCSR| Use MPI memory allocation                                              F (U)
 DBCSR| Use RMA algorithm                                                      F (U)
 DBCSR| Use Communication thread                                               T (U)
 DBCSR| Communication thread load                                             45 (D)
 DBCSR| MPI: My process id                                                     0
 DBCSR| MPI: Number of processes                                              16
 DBCSR| OMP: Current number of threads                                        12
 DBCSR| OMP: Max number of threads                                            12
 DBCSR| Split modifier for TAS multiplication algorithm                  1.0E+00 (U)


  **** **** ******  **  PROGRAM STARTED AT               2025-08-05 19:48:45.471
 ***** ** ***  *** **   PROGRAM STARTED ON                          i01r11c06s02
 **    ****   ******    PROGRAM STARTED BY                               di38fab
 ***** **    ** ** **   PROGRAM PROCESS ID                                345745
  **** **  *******  **  PROGRAM STARTED IN /hppfs/scratch/04/di38fab/09_GTH/Delt
                                           a_Set/Br/aug-TZVP-MOLOPT-GTH-tier-1/8
                                           x8x8

 CP2K| version string:                 CP2K version 2025.1 (Development Version)
 CP2K| source code revision number:                                  git:3130539
 CP2K| cp2kflags: omp libint fftw3 libxc parallel scalapack max_contr=4         
 CP2K| is freely available from                            https://www.cp2k.org/
 CP2K| Program compiled at                         Tue Jun  3 16:14:32 CEST 2025
 CP2K| Program compiled on                                               login01
 CP2K| Program compiled for                                        Supermuc-foss
 CP2K| Data directory path                  /hppfs/work/pn36zo/di38fab/cp2k/data
 CP2K| Input file name                                                    GW.inp

 GLOBAL| Force Environment number                                              1
 GLOBAL| Basis set file name            /hppfs/scratch/04/di38fab/09_GTH/BASIS_A
 GLOBAL| Potential file name            /hppfs/work/pn36zo/di38fab/cp2k/data/GTH
 GLOBAL| MM Potential file name                                     MM_POTENTIAL
 GLOBAL| Coordinate file name                                             Br.cif
 GLOBAL| Method name                                                        CP2K
 GLOBAL| Project name                                                       WSe2
 GLOBAL| Run type                                                         ENERGY
 GLOBAL| FFT library                                                       FFTW3
 GLOBAL| Diagonalization library                                       ScaLAPACK
 GLOBAL| Cholesky decomposition library                                ScaLAPACK
 GLOBAL| DGEMM library                                                      BLAS
 GLOBAL| Orthonormality check for eigenvectors                          DISABLED
 GLOBAL| Matrix multiplication library                                 ScaLAPACK
 GLOBAL| All-to-all communication in single precision                          F
 GLOBAL| FFTs using library dependent lengths                                  F
 GLOBAL| Grid backend                                                       AUTO
 GLOBAL| Global print level                                               MEDIUM
 GLOBAL| MPI I/O enabled                                                       T
 GLOBAL| Total number of message passing processes                            16
 GLOBAL| Number of threads for this process                                   12
 GLOBAL| This output is from process                                           0
 GLOBAL| OpenMP stack size per thread (OMP_STACKSIZE)                    default
 GLOBAL| CPU model name             Intel(R) Xeon(R) Platinum 8174 CPU @ 3.10GHz

 MEMORY| system memory details [Kb]
 MEMORY|                        rank 0           min           max       average
 MEMORY| MemTotal             98436660      98436660      98436708      98436673
 MEMORY| MemFree              86132652      84689116      86429088      85507917
 MEMORY| Buffers                     0             0             0             0
 MEMORY| Cached                2376852       2355616       2387900       2372624
 MEMORY| Slab                  1031472        973396       1287016       1137249
 MEMORY| SReclaimable           232584        225508        277548        252308
 MEMORY| MemLikelyFree        88742088      87350608      89010212      88132849


 *** Fundamental physical constants (SI units) ***

 *** Literature: B. J. Mohr and B. N. Taylor,
 ***             CODATA recommended values of the fundamental physical
 ***             constants: 2006, Web Version 5.1
 ***             http://physics.nist.gov/constants

 Speed of light in vacuum [m/s]                             2.99792458000000E+08
 Magnetic constant or permeability of vacuum [N/A**2]       1.25663706143592E-06
 Electric constant or permittivity of vacuum [F/m]          8.85418781762039E-12
 Planck constant (h) [J*s]                                  6.62606896000000E-34
 Planck constant (h-bar) [J*s]                              1.05457162825177E-34
 Elementary charge [C]                                      1.60217648700000E-19
 Electron mass [kg]                                         9.10938215000000E-31
 Electron g factor [ ]                                     -2.00231930436220E+00
 Proton mass [kg]                                           1.67262163700000E-27
 Fine-structure constant                                    7.29735253760000E-03
 Rydberg constant [1/m]                                     1.09737315685270E+07
 Avogadro constant [1/mol]                                  6.02214179000000E+23
 Boltzmann constant [J/K]                                   1.38065040000000E-23
 Atomic mass unit [kg]                                      1.66053878200000E-27
 Bohr radius [m]                                            5.29177208590000E-11

 *** Conversion factors ***

 [u] -> [a.u.]                                              1.82288848426455E+03
 [Angstrom] -> [Bohr] = [a.u.]                              1.88972613288564E+00
 [a.u.] = [Bohr] -> [Angstrom]                              5.29177208590000E-01
 [a.u.] -> [s]                                              2.41888432650478E-17
 [a.u.] -> [fs]                                             2.41888432650478E-02
 [a.u.] -> [J]                                              4.35974393937059E-18
 [a.u.] -> [N]                                              8.23872205491840E-08
 [a.u.] -> [K]                                              3.15774647902944E+05
 [a.u.] -> [kJ/mol]                                         2.62549961709828E+03
 [a.u.] -> [kcal/mol]                                       6.27509468713739E+02
 [a.u.] -> [Pa]                                             2.94210107994716E+13
 [a.u.] -> [bar]                                            2.94210107994716E+08
 [a.u.] -> [atm]                                            2.90362800883016E+08
 [a.u.] -> [eV]                                             2.72113838565563E+01
 [a.u.] -> [Hz]                                             6.57968392072181E+15
 [a.u.] -> [1/cm] (wave numbers)                            2.19474631370540E+05
 [a.u./Bohr**2] -> [1/cm]                                   5.14048714338585E+03
 

 CELL_TOP| Volume [angstrom^3]:                                       314.219488
 CELL_TOP| Vector a [angstrom     8.229     0.000     0.000   |a| =     8.228600
 CELL_TOP| Vector b [angstrom     0.000     4.227     0.000   |b| =     4.227310
 CELL_TOP| Vector c [angstrom     0.000     0.000     9.033   |c| =     9.033230
 CELL_TOP| Angle (b,c), alpha [degree]:                                90.000000
 CELL_TOP| Angle (a,c), beta  [degree]:                                90.000000
 CELL_TOP| Angle (a,b), gamma [degree]:                                90.000000
 CELL_TOP| Numerically orthorhombic:                                         YES
 CELL_TOP| Periodicity                                                       XYZ

 CELL_CIF| Volume [angstrom^3]:                                       314.219488
 CELL_CIF| Vector a [angstrom     8.229     0.000     0.000   |a| =     8.228600
 CELL_CIF| Vector b [angstrom     0.000     4.227     0.000   |b| =     4.227310
 CELL_CIF| Vector c [angstrom     0.000     0.000     9.033   |c| =     9.033230
 CELL_CIF| Angle (b,c), alpha [degree]:                                90.000000
 CELL_CIF| Angle (a,c), beta  [degree]:                                90.000000
 CELL_CIF| Angle (a,b), gamma [degree]:                                90.000000
 CELL_CIF| Numerically orthorhombic:                                         YES
 CELL_CIF| Periodicity                                                       XYZ

 GENERATE|  Preliminary Number of Bonds generated:                             0
 GENERATE|  Achieved consistency in connectivity generation.

 CELL| Volume [angstrom^3]:                                           314.219488
 CELL| Vector a [angstrom]:       8.229     0.000     0.000   |a| =     8.228600
 CELL| Vector b [angstrom]:       0.000     4.227     0.000   |b| =     4.227310
 CELL| Vector c [angstrom]:       0.000     0.000     9.033   |c| =     9.033230
 CELL| Angle (b,c), alpha [degree]:                                    90.000000
 CELL| Angle (a,c), beta  [degree]:                                    90.000000
 CELL| Angle (a,b), gamma [degree]:                                    90.000000
 CELL| Numerically orthorhombic:                                             YES
 CELL| Periodicity                                                           XYZ

 CELL_REF| Volume [angstrom^3]:                                       314.219488
 CELL_REF| Vector a [angstrom     8.229     0.000     0.000   |a| =     8.228600
 CELL_REF| Vector b [angstrom     0.000     4.227     0.000   |b| =     4.227310
 CELL_REF| Vector c [angstrom     0.000     0.000     9.033   |c| =     9.033230
 CELL_REF| Angle (b,c), alpha [degree]:                                90.000000
 CELL_REF| Angle (a,c), beta  [degree]:                                90.000000
 CELL_REF| Angle (a,b), gamma [degree]:                                90.000000
 CELL_REF| Numerically orthorhombic:                                         YES
 CELL_REF| Periodicity                                                       XYZ

 *** WARNING in cryssym.F:180 :: Symmetry library SPGLIB not available ***


 *******************************************************************************
                                    Kpoints
 *******************************************************************************
 BRILLOUIN| K-point scheme                                        Monkhorst-Pack
 BRILLOUIN| K-Point grid                                             8    8    8
 BRILLOUIN| Accuracy in Symmetry determination                      0.100000E-05
 BRILLOUIN| K-Point point group symmetrization                               OFF
 BRILLOUIN| Wavefunction type                                            COMPLEX
 BRILLOUIN| List of Kpoints [2 Pi/Bohr]                                      256
 BRILLOUIN| Number           Weight            X              Y              Z
 BRILLOUIN|     1           0.00391       -0.43750       -0.43750       -0.43750
 BRILLOUIN|     2           0.00391       -0.43750       -0.43750       -0.31250
 BRILLOUIN|     3           0.00391       -0.43750       -0.43750       -0.18750
 BRILLOUIN|     4           0.00391       -0.43750       -0.43750       -0.06250
 BRILLOUIN|     5           0.00391       -0.43750       -0.43750        0.06250
 BRILLOUIN|     6           0.00391       -0.43750       -0.43750        0.18750
 BRILLOUIN|     7           0.00391       -0.43750       -0.43750        0.31250
 BRILLOUIN|     8           0.00391       -0.43750       -0.43750        0.43750
 BRILLOUIN|     9           0.00391       -0.43750       -0.31250       -0.43750
 BRILLOUIN|    10           0.00391       -0.43750       -0.31250       -0.31250
 BRILLOUIN|    11           0.00391       -0.43750       -0.31250       -0.18750
 BRILLOUIN|    12           0.00391       -0.43750       -0.31250       -0.06250
 BRILLOUIN|    13           0.00391       -0.43750       -0.31250        0.06250
 BRILLOUIN|    14           0.00391       -0.43750       -0.31250        0.18750
 BRILLOUIN|    15           0.00391       -0.43750       -0.31250        0.31250
 BRILLOUIN|    16           0.00391       -0.43750       -0.31250        0.43750
 BRILLOUIN|    17           0.00391       -0.43750       -0.18750       -0.43750
 BRILLOUIN|    18           0.00391       -0.43750       -0.18750       -0.31250
 BRILLOUIN|    19           0.00391       -0.43750       -0.18750       -0.18750
 BRILLOUIN|    20           0.00391       -0.43750       -0.18750       -0.06250
 BRILLOUIN|    21           0.00391       -0.43750       -0.18750        0.06250
 BRILLOUIN|    22           0.00391       -0.43750       -0.18750        0.18750
 BRILLOUIN|    23           0.00391       -0.43750       -0.18750        0.31250
 BRILLOUIN|    24           0.00391       -0.43750       -0.18750        0.43750
 BRILLOUIN|    25           0.00391       -0.43750       -0.06250       -0.43750
 BRILLOUIN|    26           0.00391       -0.43750       -0.06250       -0.31250
 BRILLOUIN|    27           0.00391       -0.43750       -0.06250       -0.18750
 BRILLOUIN|    28           0.00391       -0.43750       -0.06250       -0.06250
 BRILLOUIN|    29           0.00391       -0.43750       -0.06250        0.06250
 BRILLOUIN|    30           0.00391       -0.43750       -0.06250        0.18750
 BRILLOUIN|    31           0.00391       -0.43750       -0.06250        0.31250
 BRILLOUIN|    32           0.00391       -0.43750       -0.06250        0.43750
 BRILLOUIN|    33           0.00391       -0.43750        0.06250       -0.43750
 BRILLOUIN|    34           0.00391       -0.43750        0.06250       -0.31250
 BRILLOUIN|    35           0.00391       -0.43750        0.06250       -0.18750
 BRILLOUIN|    36           0.00391       -0.43750        0.06250       -0.06250
 BRILLOUIN|    37           0.00391       -0.43750        0.06250        0.06250
 BRILLOUIN|    38           0.00391       -0.43750        0.06250        0.18750
 BRILLOUIN|    39           0.00391       -0.43750        0.06250        0.31250
 BRILLOUIN|    40           0.00391       -0.43750        0.06250        0.43750
 BRILLOUIN|    41           0.00391       -0.43750        0.18750       -0.43750
 BRILLOUIN|    42           0.00391       -0.43750        0.18750       -0.31250
 BRILLOUIN|    43           0.00391       -0.43750        0.18750       -0.18750
 BRILLOUIN|    44           0.00391       -0.43750        0.18750       -0.06250
 BRILLOUIN|    45           0.00391       -0.43750        0.18750        0.06250
 BRILLOUIN|    46           0.00391       -0.43750        0.18750        0.18750
 BRILLOUIN|    47           0.00391       -0.43750        0.18750        0.31250
 BRILLOUIN|    48           0.00391       -0.43750        0.18750        0.43750
 BRILLOUIN|    49           0.00391       -0.43750        0.31250       -0.43750
 BRILLOUIN|    50           0.00391       -0.43750        0.31250       -0.31250
 BRILLOUIN|    51           0.00391       -0.43750        0.31250       -0.18750
 BRILLOUIN|    52           0.00391       -0.43750        0.31250       -0.06250
 BRILLOUIN|    53           0.00391       -0.43750        0.31250        0.06250
 BRILLOUIN|    54           0.00391       -0.43750        0.31250        0.18750
 BRILLOUIN|    55           0.00391       -0.43750        0.31250        0.31250
 BRILLOUIN|    56           0.00391       -0.43750        0.31250        0.43750
 BRILLOUIN|    57           0.00391       -0.43750        0.43750       -0.43750
 BRILLOUIN|    58           0.00391       -0.43750        0.43750       -0.31250
 BRILLOUIN|    59           0.00391       -0.43750        0.43750       -0.18750
 BRILLOUIN|    60           0.00391       -0.43750        0.43750       -0.06250
 BRILLOUIN|    61           0.00391       -0.43750        0.43750        0.06250
 BRILLOUIN|    62           0.00391       -0.43750        0.43750        0.18750
 BRILLOUIN|    63           0.00391       -0.43750        0.43750        0.31250
 BRILLOUIN|    64           0.00391       -0.43750        0.43750        0.43750
 BRILLOUIN|    65           0.00391       -0.31250       -0.43750       -0.43750
 BRILLOUIN|    66           0.00391       -0.31250       -0.43750       -0.31250
 BRILLOUIN|    67           0.00391       -0.31250       -0.43750       -0.18750
 BRILLOUIN|    68           0.00391       -0.31250       -0.43750       -0.06250
 BRILLOUIN|    69           0.00391       -0.31250       -0.43750        0.06250
 BRILLOUIN|    70           0.00391       -0.31250       -0.43750        0.18750
 BRILLOUIN|    71           0.00391       -0.31250       -0.43750        0.31250
 BRILLOUIN|    72           0.00391       -0.31250       -0.43750        0.43750
 BRILLOUIN|    73           0.00391       -0.31250       -0.31250       -0.43750
 BRILLOUIN|    74           0.00391       -0.31250       -0.31250       -0.31250
 BRILLOUIN|    75           0.00391       -0.31250       -0.31250       -0.18750
 BRILLOUIN|    76           0.00391       -0.31250       -0.31250       -0.06250
 BRILLOUIN|    77           0.00391       -0.31250       -0.31250        0.06250
 BRILLOUIN|    78           0.00391       -0.31250       -0.31250        0.18750
 BRILLOUIN|    79           0.00391       -0.31250       -0.31250        0.31250
 BRILLOUIN|    80           0.00391       -0.31250       -0.31250        0.43750
 BRILLOUIN|    81           0.00391       -0.31250       -0.18750       -0.43750
 BRILLOUIN|    82           0.00391       -0.31250       -0.18750       -0.31250
 BRILLOUIN|    83           0.00391       -0.31250       -0.18750       -0.18750
 BRILLOUIN|    84           0.00391       -0.31250       -0.18750       -0.06250
 BRILLOUIN|    85           0.00391       -0.31250       -0.18750        0.06250
 BRILLOUIN|    86           0.00391       -0.31250       -0.18750        0.18750
 BRILLOUIN|    87           0.00391       -0.31250       -0.18750        0.31250
 BRILLOUIN|    88           0.00391       -0.31250       -0.18750        0.43750
 BRILLOUIN|    89           0.00391       -0.31250       -0.06250       -0.43750
 BRILLOUIN|    90           0.00391       -0.31250       -0.06250       -0.31250
 BRILLOUIN|    91           0.00391       -0.31250       -0.06250       -0.18750
 BRILLOUIN|    92           0.00391       -0.31250       -0.06250       -0.06250
 BRILLOUIN|    93           0.00391       -0.31250       -0.06250        0.06250
 BRILLOUIN|    94           0.00391       -0.31250       -0.06250        0.18750
 BRILLOUIN|    95           0.00391       -0.31250       -0.06250        0.31250
 BRILLOUIN|    96           0.00391       -0.31250       -0.06250        0.43750
 BRILLOUIN|    97           0.00391       -0.31250        0.06250       -0.43750
 BRILLOUIN|    98           0.00391       -0.31250        0.06250       -0.31250
 BRILLOUIN|    99           0.00391       -0.31250        0.06250       -0.18750
 BRILLOUIN|   100           0.00391       -0.31250        0.06250       -0.06250
 BRILLOUIN|   101           0.00391       -0.31250        0.06250        0.06250
 BRILLOUIN|   102           0.00391       -0.31250        0.06250        0.18750
 BRILLOUIN|   103           0.00391       -0.31250        0.06250        0.31250
 BRILLOUIN|   104           0.00391       -0.31250        0.06250        0.43750
 BRILLOUIN|   105           0.00391       -0.31250        0.18750       -0.43750
 BRILLOUIN|   106           0.00391       -0.31250        0.18750       -0.31250
 BRILLOUIN|   107           0.00391       -0.31250        0.18750       -0.18750
 BRILLOUIN|   108           0.00391       -0.31250        0.18750       -0.06250
 BRILLOUIN|   109           0.00391       -0.31250        0.18750        0.06250
 BRILLOUIN|   110           0.00391       -0.31250        0.18750        0.18750
 BRILLOUIN|   111           0.00391       -0.31250        0.18750        0.31250
 BRILLOUIN|   112           0.00391       -0.31250        0.18750        0.43750
 BRILLOUIN|   113           0.00391       -0.31250        0.31250       -0.43750
 BRILLOUIN|   114           0.00391       -0.31250        0.31250       -0.31250
 BRILLOUIN|   115           0.00391       -0.31250        0.31250       -0.18750
 BRILLOUIN|   116           0.00391       -0.31250        0.31250       -0.06250
 BRILLOUIN|   117           0.00391       -0.31250        0.31250        0.06250
 BRILLOUIN|   118           0.00391       -0.31250        0.31250        0.18750
 BRILLOUIN|   119           0.00391       -0.31250        0.31250        0.31250
 BRILLOUIN|   120           0.00391       -0.31250        0.31250        0.43750
 BRILLOUIN|   121           0.00391       -0.31250        0.43750       -0.43750
 BRILLOUIN|   122           0.00391       -0.31250        0.43750       -0.31250
 BRILLOUIN|   123           0.00391       -0.31250        0.43750       -0.18750
 BRILLOUIN|   124           0.00391       -0.31250        0.43750       -0.06250
 BRILLOUIN|   125           0.00391       -0.31250        0.43750        0.06250
 BRILLOUIN|   126           0.00391       -0.31250        0.43750        0.18750
 BRILLOUIN|   127           0.00391       -0.31250        0.43750        0.31250
 BRILLOUIN|   128           0.00391       -0.31250        0.43750        0.43750
 BRILLOUIN|   129           0.00391       -0.18750       -0.43750       -0.43750
 BRILLOUIN|   130           0.00391       -0.18750       -0.43750       -0.31250
 BRILLOUIN|   131           0.00391       -0.18750       -0.43750       -0.18750
 BRILLOUIN|   132           0.00391       -0.18750       -0.43750       -0.06250
 BRILLOUIN|   133           0.00391       -0.18750       -0.43750        0.06250
 BRILLOUIN|   134           0.00391       -0.18750       -0.43750        0.18750
 BRILLOUIN|   135           0.00391       -0.18750       -0.43750        0.31250
 BRILLOUIN|   136           0.00391       -0.18750       -0.43750        0.43750
 BRILLOUIN|   137           0.00391       -0.18750       -0.31250       -0.43750
 BRILLOUIN|   138           0.00391       -0.18750       -0.31250       -0.31250
 BRILLOUIN|   139           0.00391       -0.18750       -0.31250       -0.18750
 BRILLOUIN|   140           0.00391       -0.18750       -0.31250       -0.06250
 BRILLOUIN|   141           0.00391       -0.18750       -0.31250        0.06250
 BRILLOUIN|   142           0.00391       -0.18750       -0.31250        0.18750
 BRILLOUIN|   143           0.00391       -0.18750       -0.31250        0.31250
 BRILLOUIN|   144           0.00391       -0.18750       -0.31250        0.43750
 BRILLOUIN|   145           0.00391       -0.18750       -0.18750       -0.43750
 BRILLOUIN|   146           0.00391       -0.18750       -0.18750       -0.31250
 BRILLOUIN|   147           0.00391       -0.18750       -0.18750       -0.18750
 BRILLOUIN|   148           0.00391       -0.18750       -0.18750       -0.06250
 BRILLOUIN|   149           0.00391       -0.18750       -0.18750        0.06250
 BRILLOUIN|   150           0.00391       -0.18750       -0.18750        0.18750
 BRILLOUIN|   151           0.00391       -0.18750       -0.18750        0.31250
 BRILLOUIN|   152           0.00391       -0.18750       -0.18750        0.43750
 BRILLOUIN|   153           0.00391       -0.18750       -0.06250       -0.43750
 BRILLOUIN|   154           0.00391       -0.18750       -0.06250       -0.31250
 BRILLOUIN|   155           0.00391       -0.18750       -0.06250       -0.18750
 BRILLOUIN|   156           0.00391       -0.18750       -0.06250       -0.06250
 BRILLOUIN|   157           0.00391       -0.18750       -0.06250        0.06250
 BRILLOUIN|   158           0.00391       -0.18750       -0.06250        0.18750
 BRILLOUIN|   159           0.00391       -0.18750       -0.06250        0.31250
 BRILLOUIN|   160           0.00391       -0.18750       -0.06250        0.43750
 BRILLOUIN|   161           0.00391       -0.18750        0.06250       -0.43750
 BRILLOUIN|   162           0.00391       -0.18750        0.06250       -0.31250
 BRILLOUIN|   163           0.00391       -0.18750        0.06250       -0.18750
 BRILLOUIN|   164           0.00391       -0.18750        0.06250       -0.06250
 BRILLOUIN|   165           0.00391       -0.18750        0.06250        0.06250
 BRILLOUIN|   166           0.00391       -0.18750        0.06250        0.18750
 BRILLOUIN|   167           0.00391       -0.18750        0.06250        0.31250
 BRILLOUIN|   168           0.00391       -0.18750        0.06250        0.43750
 BRILLOUIN|   169           0.00391       -0.18750        0.18750       -0.43750
 BRILLOUIN|   170           0.00391       -0.18750        0.18750       -0.31250
 BRILLOUIN|   171           0.00391       -0.18750        0.18750       -0.18750
 BRILLOUIN|   172           0.00391       -0.18750        0.18750       -0.06250
 BRILLOUIN|   173           0.00391       -0.18750        0.18750        0.06250
 BRILLOUIN|   174           0.00391       -0.18750        0.18750        0.18750
 BRILLOUIN|   175           0.00391       -0.18750        0.18750        0.31250
 BRILLOUIN|   176           0.00391       -0.18750        0.18750        0.43750
 BRILLOUIN|   177           0.00391       -0.18750        0.31250       -0.43750
 BRILLOUIN|   178           0.00391       -0.18750        0.31250       -0.31250
 BRILLOUIN|   179           0.00391       -0.18750        0.31250       -0.18750
 BRILLOUIN|   180           0.00391       -0.18750        0.31250       -0.06250
 BRILLOUIN|   181           0.00391       -0.18750        0.31250        0.06250
 BRILLOUIN|   182           0.00391       -0.18750        0.31250        0.18750
 BRILLOUIN|   183           0.00391       -0.18750        0.31250        0.31250
 BRILLOUIN|   184           0.00391       -0.18750        0.31250        0.43750
 BRILLOUIN|   185           0.00391       -0.18750        0.43750       -0.43750
 BRILLOUIN|   186           0.00391       -0.18750        0.43750       -0.31250
 BRILLOUIN|   187           0.00391       -0.18750        0.43750       -0.18750
 BRILLOUIN|   188           0.00391       -0.18750        0.43750       -0.06250
 BRILLOUIN|   189           0.00391       -0.18750        0.43750        0.06250
 BRILLOUIN|   190           0.00391       -0.18750        0.43750        0.18750
 BRILLOUIN|   191           0.00391       -0.18750        0.43750        0.31250
 BRILLOUIN|   192           0.00391       -0.18750        0.43750        0.43750
 BRILLOUIN|   193           0.00391       -0.06250       -0.43750       -0.43750
 BRILLOUIN|   194           0.00391       -0.06250       -0.43750       -0.31250
 BRILLOUIN|   195           0.00391       -0.06250       -0.43750       -0.18750
 BRILLOUIN|   196           0.00391       -0.06250       -0.43750       -0.06250
 BRILLOUIN|   197           0.00391       -0.06250       -0.43750        0.06250
 BRILLOUIN|   198           0.00391       -0.06250       -0.43750        0.18750
 BRILLOUIN|   199           0.00391       -0.06250       -0.43750        0.31250
 BRILLOUIN|   200           0.00391       -0.06250       -0.43750        0.43750
 BRILLOUIN|   201           0.00391       -0.06250       -0.31250       -0.43750
 BRILLOUIN|   202           0.00391       -0.06250       -0.31250       -0.31250
 BRILLOUIN|   203           0.00391       -0.06250       -0.31250       -0.18750
 BRILLOUIN|   204           0.00391       -0.06250       -0.31250       -0.06250
 BRILLOUIN|   205           0.00391       -0.06250       -0.31250        0.06250
 BRILLOUIN|   206           0.00391       -0.06250       -0.31250        0.18750
 BRILLOUIN|   207           0.00391       -0.06250       -0.31250        0.31250
 BRILLOUIN|   208           0.00391       -0.06250       -0.31250        0.43750
 BRILLOUIN|   209           0.00391       -0.06250       -0.18750       -0.43750
 BRILLOUIN|   210           0.00391       -0.06250       -0.18750       -0.31250
 BRILLOUIN|   211           0.00391       -0.06250       -0.18750       -0.18750
 BRILLOUIN|   212           0.00391       -0.06250       -0.18750       -0.06250
 BRILLOUIN|   213           0.00391       -0.06250       -0.18750        0.06250
 BRILLOUIN|   214           0.00391       -0.06250       -0.18750        0.18750
 BRILLOUIN|   215           0.00391       -0.06250       -0.18750        0.31250
 BRILLOUIN|   216           0.00391       -0.06250       -0.18750        0.43750
 BRILLOUIN|   217           0.00391       -0.06250       -0.06250       -0.43750
 BRILLOUIN|   218           0.00391       -0.06250       -0.06250       -0.31250
 BRILLOUIN|   219           0.00391       -0.06250       -0.06250       -0.18750
 BRILLOUIN|   220           0.00391       -0.06250       -0.06250       -0.06250
 BRILLOUIN|   221           0.00391       -0.06250       -0.06250        0.06250
 BRILLOUIN|   222           0.00391       -0.06250       -0.06250        0.18750
 BRILLOUIN|   223           0.00391       -0.06250       -0.06250        0.31250
 BRILLOUIN|   224           0.00391       -0.06250       -0.06250        0.43750
 BRILLOUIN|   225           0.00391       -0.06250        0.06250       -0.43750
 BRILLOUIN|   226           0.00391       -0.06250        0.06250       -0.31250
 BRILLOUIN|   227           0.00391       -0.06250        0.06250       -0.18750
 BRILLOUIN|   228           0.00391       -0.06250        0.06250       -0.06250
 BRILLOUIN|   229           0.00391       -0.06250        0.06250        0.06250
 BRILLOUIN|   230           0.00391       -0.06250        0.06250        0.18750
 BRILLOUIN|   231           0.00391       -0.06250        0.06250        0.31250
 BRILLOUIN|   232           0.00391       -0.06250        0.06250        0.43750
 BRILLOUIN|   233           0.00391       -0.06250        0.18750       -0.43750
 BRILLOUIN|   234           0.00391       -0.06250        0.18750       -0.31250
 BRILLOUIN|   235           0.00391       -0.06250        0.18750       -0.18750
 BRILLOUIN|   236           0.00391       -0.06250        0.18750       -0.06250
 BRILLOUIN|   237           0.00391       -0.06250        0.18750        0.06250
 BRILLOUIN|   238           0.00391       -0.06250        0.18750        0.18750
 BRILLOUIN|   239           0.00391       -0.06250        0.18750        0.31250
 BRILLOUIN|   240           0.00391       -0.06250        0.18750        0.43750
 BRILLOUIN|   241           0.00391       -0.06250        0.31250       -0.43750
 BRILLOUIN|   242           0.00391       -0.06250        0.31250       -0.31250
 BRILLOUIN|   243           0.00391       -0.06250        0.31250       -0.18750
 BRILLOUIN|   244           0.00391       -0.06250        0.31250       -0.06250
 BRILLOUIN|   245           0.00391       -0.06250        0.31250        0.06250
 BRILLOUIN|   246           0.00391       -0.06250        0.31250        0.18750
 BRILLOUIN|   247           0.00391       -0.06250        0.31250        0.31250
 BRILLOUIN|   248           0.00391       -0.06250        0.31250        0.43750
 BRILLOUIN|   249           0.00391       -0.06250        0.43750       -0.43750
 BRILLOUIN|   250           0.00391       -0.06250        0.43750       -0.31250
 BRILLOUIN|   251           0.00391       -0.06250        0.43750       -0.18750
 BRILLOUIN|   252           0.00391       -0.06250        0.43750       -0.06250
 BRILLOUIN|   253           0.00391       -0.06250        0.43750        0.06250
 BRILLOUIN|   254           0.00391       -0.06250        0.43750        0.18750
 BRILLOUIN|   255           0.00391       -0.06250        0.43750        0.31250
 BRILLOUIN|   256           0.00391       -0.06250        0.43750        0.43750
 *******************************************************************************

 *******************************************************************************
 *******************************************************************************
 **                                                                           **
 **     #####                         ##              ##                      **
 **    ##   ##            ##          ##              ##                      **
 **   ##     ##                       ##            ######                    **
 **   ##     ##  ##   ##  ##   #####  ##  ##   ####   ##    #####    #####    **
 **   ##     ##  ##   ##  ##  ##      ## ##   ##      ##   ##   ##  ##   ##   **
 **   ##  ## ##  ##   ##  ##  ##      ####     ###    ##   ######   ######    **
 **    ##  ###   ##   ##  ##  ##      ## ##      ##   ##   ##       ##        **
 **     #######   #####   ##   #####  ##  ##  ####    ##    #####   ##        **
 **           ##                                                    ##        **
 **                                                                           **
 **                                                ... make the atoms dance   **
 **                                                                           **
 **            Copyright (C) by CP2K developers group (2000-2025)             **
 **                      J. Chem. Phys. 152, 194103 (2020)                    **
 **                                                                           **
 *******************************************************************************

 DFT| Spin restricted Kohn-Sham (RKS) calculation                            RKS
 DFT| Multiplicity                                                             1
 DFT| Number of spin states                                                    1
 DFT| Charge                                                                   0
 DFT| Self-interaction correction (SIC)                                       NO
 DFT| Cutoffs: density                                              1.000000E-10
 DFT|          gradient                                             1.000000E-10
 DFT|          tau                                                  1.000000E-10
 DFT|          cutoff_smoothing_range                               0.000000E+00
 DFT| XC density smoothing                                                  NONE
 DFT| XC derivatives                                                          PW

 FUNCTIONAL| PBE:
 FUNCTIONAL| J.P.Perdew, K.Burke, M.Ernzerhof, Phys. Rev. Letter, vol. 77, n 18,
 FUNCTIONAL|  pp. 3865-3868, (1996) {spin unpolarized}                          


 QS| Method:                                                                 GPW
 QS| Density plane wave grid type                        NON-SPHERICAL FULLSPACE
 QS| Number of grid levels:                                                    4
 QS| Density cutoff [a.u.]:                                                500.0
 QS| Multi grid cutoff [a.u.]: 1) grid level                               500.0
 QS|                           2) grid level                               166.7
 QS|                           3) grid level                                55.6
 QS|                           4) grid level                                18.5
 QS| Grid level progression factor:                                          3.0
 QS| Relative density cutoff [a.u.]:                                        50.0
 QS| Interaction thresholds: eps_pgf_orb:                                1.0E-16
 QS|                         eps_filter_matrix:                          0.0E+00
 QS|                         eps_core_charge:                            1.0E-18
 QS|                         eps_rho_gspace:                             1.0E-16
 QS|                         eps_rho_rspace:                             1.0E-16
 QS|                         eps_gvg_rspace:                             1.0E-08
 QS|                         eps_ppl:                                    1.0E-02
 QS|                         eps_ppnl:                                   1.0E-10


 ATOMIC KIND INFORMATION

  1. Atomic kind: Br                                    Number of atoms:       8

     Orbital Basis Set                                aug-TZVP-MOLOPT-GTH-tier-1

       Number of orbital shell sets:                                           1
       Number of orbital shells:                                              13
       Number of primitive Cartesian functions:                                5
       Number of Cartesian basis functions:                                   54
       Number of spherical basis functions:                                   45
       Norm type:                                                              2

       Normalised Cartesian orbitals:

                        Set   Shell   Orbital            Exponent    Coefficient

                          1       1    2s                0.109057      -0.112389
                                                         0.192642       0.000000
                                                         0.340288      -0.054726
                                                         1.265248      -0.304662
                                                         1.476887       0.316755

                          1       2    3s                0.109057       0.219128
                                                         0.192642       0.000000
                                                         0.340288      -0.672349
                                                         1.265248      -0.851087
                                                         1.476887       1.792063

                          1       3    4s                0.109057       0.051293
                                                         0.192642       0.000000
                                                         0.340288       0.335832
                                                         1.265248      -0.985142
                                                         1.476887       0.236642

                          1       4    5s                0.109057      -0.225749
                                                         0.192642       0.493917
                                                         0.340288      -0.721254
                                                         1.265248       0.343841
                                                         1.476887       0.504875

                          1       5    3px               0.109057      -0.072503
                                                         0.192642       0.000000
                                                         0.340288      -0.086105
                                                         1.265248      -0.401059
                                                         1.476887       0.436383
                          1       5    3py               0.109057      -0.072503
                                                         0.192642       0.000000
                                                         0.340288      -0.086105
                                                         1.265248      -0.401059
                                                         1.476887       0.436383
                          1       5    3pz               0.109057      -0.072503
                                                         0.192642       0.000000
                                                         0.340288      -0.086105
                                                         1.265248      -0.401059
                                                         1.476887       0.436383

                          1       6    4px               0.109057       0.095933
                                                         0.192642       0.000000
                                                         0.340288      -0.408931
                                                         1.265248      -3.044607
                                                         1.476887       3.471430
                          1       6    4py               0.109057       0.095933
                                                         0.192642       0.000000
                                                         0.340288      -0.408931
                                                         1.265248      -3.044607
                                                         1.476887       3.471430
                          1       6    4pz               0.109057       0.095933
                                                         0.192642       0.000000
                                                         0.340288      -0.408931
                                                         1.265248      -3.044607
                                                         1.476887       3.471430

                          1       7    5px               0.109057       0.001717
                                                         0.192642       0.000000
                                                         0.340288      -0.057606
                                                         1.265248      -0.724750
                                                         1.476887      -1.234026
                          1       7    5py               0.109057       0.001717
                                                         0.192642       0.000000
                                                         0.340288      -0.057606
                                                         1.265248      -0.724750
                                                         1.476887      -1.234026
                          1       7    5pz               0.109057       0.001717
                                                         0.192642       0.000000
                                                         0.340288      -0.057606
                                                         1.265248      -0.724750
                                                         1.476887      -1.234026

                          1       8    6px               0.109057       0.002727
                                                         0.192642       0.224416
                                                         0.340288      -0.125313
                                                         1.265248       0.062272
                                                         1.476887       0.177936
                          1       8    6py               0.109057       0.002727
                                                         0.192642       0.224416
                                                         0.340288      -0.125313
                                                         1.265248       0.062272
                                                         1.476887       0.177936
                          1       8    6pz               0.109057       0.002727
                                                         0.192642       0.224416
                                                         0.340288      -0.125313
                                                         1.265248       0.062272
                                                         1.476887       0.177936

                          1       9    4dx2              0.109057      -0.003166
                                                         0.192642       0.000000
                                                         0.340288      -0.205080
                                                         1.265248      -1.420491
                                                         1.476887       1.306151
                          1       9    4dxy              0.109057      -0.005485
                                                         0.192642       0.000000
                                                         0.340288      -0.355209
                                                         1.265248      -2.460362
                                                         1.476887       2.262320
                          1       9    4dxz              0.109057      -0.005485
                                                         0.192642       0.000000
                                                         0.340288      -0.355209
                                                         1.265248      -2.460362
                                                         1.476887       2.262320
                          1       9    4dy2              0.109057      -0.003166
                                                         0.192642       0.000000
                                                         0.340288      -0.205080
                                                         1.265248      -1.420491
                                                         1.476887       1.306151
                          1       9    4dyz              0.109057      -0.005485
                                                         0.192642       0.000000
                                                         0.340288      -0.355209
                                                         1.265248      -2.460362
                                                         1.476887       2.262320
                          1       9    4dz2              0.109057      -0.003166
                                                         0.192642       0.000000
                                                         0.340288      -0.205080
                                                         1.265248      -1.420491
                                                         1.476887       1.306151

                          1      10    5dx2              0.109057       0.032341
                                                         0.192642       0.000000
                                                         0.340288       0.020433
                                                         1.265248      -0.363682
                                                         1.476887       0.583365
                          1      10    5dxy              0.109057       0.056016
                                                         0.192642       0.000000
                                                         0.340288       0.035391
                                                         1.265248      -0.629915
                                                         1.476887       1.010418
                          1      10    5dxz              0.109057       0.056016
                                                         0.192642       0.000000
                                                         0.340288       0.035391
                                                         1.265248      -0.629915
                                                         1.476887       1.010418
                          1      10    5dy2              0.109057       0.032341
                                                         0.192642       0.000000
                                                         0.340288       0.020433
                                                         1.265248      -0.363682
                                                         1.476887       0.583365
                          1      10    5dyz              0.109057       0.056016
                                                         0.192642       0.000000
                                                         0.340288       0.035391
                                                         1.265248      -0.629915
                                                         1.476887       1.010418
                          1      10    5dz2              0.109057       0.032341
                                                         0.192642       0.000000
                                                         0.340288       0.020433
                                                         1.265248      -0.363682
                                                         1.476887       0.583365

                          1      11    6dx2              0.109057      -0.024600
                                                         0.192642       0.099733
                                                         0.340288       0.055242
                                                         1.265248       0.727506
                                                         1.476887       0.343719
                          1      11    6dxy              0.109057      -0.042609
                                                         0.192642       0.172743
                                                         0.340288       0.095682
                                                         1.265248       1.260078
                                                         1.476887       0.595339
                          1      11    6dxz              0.109057      -0.042609
                                                         0.192642       0.172743
                                                         0.340288       0.095682
                                                         1.265248       1.260078
                                                         1.476887       0.595339
                          1      11    6dy2              0.109057      -0.024600
                                                         0.192642       0.099733
                                                         0.340288       0.055242
                                                         1.265248       0.727506
                                                         1.476887       0.343719
                          1      11    6dyz              0.109057      -0.042609
                                                         0.192642       0.172743
                                                         0.340288       0.095682
                                                         1.265248       1.260078
                                                         1.476887       0.595339
                          1      11    6dz2              0.109057      -0.024600
                                                         0.192642       0.099733
                                                         0.340288       0.055242
                                                         1.265248       0.727506
                                                         1.476887       0.343719

                          1      12    5fx3              0.109057       0.001138
                                                         0.192642       0.000000
                                                         0.340288       0.096890
                                                         1.265248       2.249816
                                                         1.476887      -2.157263
                          1      12    5fx2y             0.109057       0.002544
                                                         0.192642       0.000000
                                                         0.340288       0.216653
                                                         1.265248       5.030742
                                                         1.476887      -4.823787
                          1      12    5fx2z             0.109057       0.002544
                                                         0.192642       0.000000
                                                         0.340288       0.216653
                                                         1.265248       5.030742
                                                         1.476887      -4.823787
                          1      12    5fxy2             0.109057       0.002544
                                                         0.192642       0.000000
                                                         0.340288       0.216653
                                                         1.265248       5.030742
                                                         1.476887      -4.823787
                          1      12    5fxyz             0.109057       0.004407
                                                         0.192642       0.000000
                                                         0.340288       0.375254
                                                         1.265248       8.713500
                                                         1.476887      -8.355045
                          1      12    5fxz2             0.109057       0.002544
                                                         0.192642       0.000000
                                                         0.340288       0.216653
                                                         1.265248       5.030742
                                                         1.476887      -4.823787
                          1      12    5fy3              0.109057       0.001138
                                                         0.192642       0.000000
                                                         0.340288       0.096890
                                                         1.265248       2.249816
                                                         1.476887      -2.157263
                          1      12    5fy2z             0.109057       0.002544
                                                         0.192642       0.000000
                                                         0.340288       0.216653
                                                         1.265248       5.030742
                                                         1.476887      -4.823787
                          1      12    5fyz2             0.109057       0.002544
                                                         0.192642       0.000000
                                                         0.340288       0.216653
                                                         1.265248       5.030742
                                                         1.476887      -4.823787
                          1      12    5fz3              0.109057       0.001138
                                                         0.192642       0.000000
                                                         0.340288       0.096890
                                                         1.265248       2.249816
                                                         1.476887      -2.157263

                          1      13    6fx3              0.109057       0.006506
                                                         0.192642       0.016171
                                                         0.340288      -0.009098
                                                         1.265248      -0.193075
                                                         1.476887       0.019547
                          1      13    6fx2y             0.109057       0.014548
                                                         0.192642       0.036159
                                                         0.340288      -0.020344
                                                         1.265248      -0.431729
                                                         1.476887       0.043708
                          1      13    6fx2z             0.109057       0.014548
                                                         0.192642       0.036159
                                                         0.340288      -0.020344
                                                         1.265248      -0.431729
                                                         1.476887       0.043708
                          1      13    6fxy2             0.109057       0.014548
                                                         0.192642       0.036159
                                                         0.340288      -0.020344
                                                         1.265248      -0.431729
                                                         1.476887       0.043708
                          1      13    6fxyz             0.109057       0.025198
                                                         0.192642       0.062630
                                                         0.340288      -0.035238
                                                         1.265248      -0.747776
                                                         1.476887       0.075704
                          1      13    6fxz2             0.109057       0.014548
                                                         0.192642       0.036159
                                                         0.340288      -0.020344
                                                         1.265248      -0.431729
                                                         1.476887       0.043708
                          1      13    6fy3              0.109057       0.006506
                                                         0.192642       0.016171
                                                         0.340288      -0.009098
                                                         1.265248      -0.193075
                                                         1.476887       0.019547
                          1      13    6fy2z             0.109057       0.014548
                                                         0.192642       0.036159
                                                         0.340288      -0.020344
                                                         1.265248      -0.431729
                                                         1.476887       0.043708
                          1      13    6fyz2             0.109057       0.014548
                                                         0.192642       0.036159
                                                         0.340288      -0.020344
                                                         1.265248      -0.431729
                                                         1.476887       0.043708
                          1      13    6fz3              0.109057       0.006506
                                                         0.192642       0.016171
                                                         0.340288      -0.009098
                                                         1.265248      -0.193075
                                                         1.476887       0.019547

       Atomic covalent radius [Angstrom]:                                  1.140

       Atomic van der Waals radius [Angstrom]:                             1.850

     GTH Potential information for                                       GTH-PBE

       Description:                       Goedecker-Teter-Hutter pseudopotential
                                           Goedecker et al., PRB 54, 1703 (1996)
                                          Hartwigsen et al., PRB 58, 3641 (1998)
                                                      Krack, TCA 114, 145 (2005)

       Gaussian exponent of the core charge distribution:               2.000000
       Electronic configuration (s p d ...):                               2   5

       Parameters of the local part of the GTH pseudopotential:

                          rloc        C1          C2          C3          C4
                        0.500000

       Parameters of the non-local part of the GTH (SOC) pseudopotential:

                   l      r(l)      h(i,j,l)
                                    k(i,j,l)
                   0    0.438039    6.078556    0.330498   -1.238382
                                    0.330498   -2.440900    3.197489
                                   -1.238382    3.197489   -2.537928
                   1    0.453136    2.459304    0.522753
                                    0.522753   -0.618530
                                    0.173006   -0.099569
                                   -0.099569    0.117811
                   2    0.567714    0.559266
                                    0.006546


 MOLECULE KIND INFORMATION


 All atoms are their own molecule, skipping detailed information


 TOTAL NUMBERS AND MAXIMUM NUMBERS

  Total number of            - Atomic kinds:                                   1
                             - Atoms:                                          8
                             - Shell sets:                                     8
                             - Shells:                                       104
                             - Primitive Cartesian functions:                 40
                             - Cartesian basis functions:                    432
                             - Spherical basis functions:                    360

  Maximum angular momentum of the orbital basis functions:                     3


 MODULE QUICKSTEP: ATOMIC COORDINATES IN ANGSTROM

   Atom Kind Element         X             Y             Z       Z(eff)     Mass
      1    1 Br   35      0.000000      1.588369      7.974897   7.0000  79.9040
      2    1 Br   35      0.000000      0.525286      3.458282   7.0000  79.9040
      3    1 Br   35      0.000000      3.702024      5.574948   7.0000  79.9040
      4    1 Br   35      0.000000      2.638941      1.058333   7.0000  79.9040
      5    1 Br   35      4.114300      3.702024      7.974897   7.0000  79.9040
      6    1 Br   35      4.114300      2.638941      3.458282   7.0000  79.9040
      7    1 Br   35      4.114300      1.588369      5.574948   7.0000  79.9040
      8    1 Br   35      4.114300      0.525286      1.058333   7.0000  79.9040



 SCF PARAMETERS         Density guess:                                    ATOMIC
                        --------------------------------------------------------
                        max_scf:                                             500
                        max_scf_history:                                       0
                        max_diis:                                              4
                        --------------------------------------------------------
                        eps_scf:                                        1.00E-09
                        eps_scf_history:                                0.00E+00
                        eps_diis:                                       1.00E-01
                        eps_eigval:                                     1.00E-05
                        --------------------------------------------------------
                        level_shift [a.u.]:                             0.000000
                        added MOs                                       332    0
                        --------------------------------------------------------
                        Mixing method:                            BROYDEN_MIXING
                                                charge density mixing in g-space
                        --------------------------------------------------------
                        No outer SCF

 PW_GRID| Information for grid number                                          1
 PW_GRID| Grid distributed over                                    16 processors
 PW_GRID| Real space group dimensions                                    16    1
 PW_GRID| the grid is blocked:                                                NO
 PW_GRID| Cutoff [a.u.]                                                    500.0
 PW_GRID| spherical cutoff:                                                   NO
 PW_GRID|   Bounds   1            -80      79                Points:         160
 PW_GRID|   Bounds   2            -40      40                Points:          81
 PW_GRID|   Bounds   3            -90      89                Points:         180
 PW_GRID| Volume element (a.u.^3)  0.9090E-03     Volume (a.u.^3)      2120.4582
 PW_GRID| Grid span                                                    FULLSPACE
 PW_GRID|   Distribution                         Average         Max         Min
 PW_GRID|   G-Vectors                           145800.0      145920      145760
 PW_GRID|   G-Rays                                 911.2         912         911
 PW_GRID|   Real Space Points                   145800.0      145800      145800

 PW_GRID| Information for grid number                                          2
 PW_GRID| Number of the reference grid                                         1
 PW_GRID| Grid distributed over                                    16 processors
 PW_GRID| Real space group dimensions                                    16    1
 PW_GRID| the grid is blocked:                                                NO
 PW_GRID| Cutoff [a.u.]                                                    166.7
 PW_GRID| spherical cutoff:                                                   NO
 PW_GRID|   Bounds   1            -48      47                Points:          96
 PW_GRID|   Bounds   2            -24      23                Points:          48
 PW_GRID|   Bounds   3            -50      49                Points:         100
 PW_GRID| Volume element (a.u.^3)  0.4602E-02     Volume (a.u.^3)      2120.4582
 PW_GRID| Grid span                                                    FULLSPACE
 PW_GRID|   Distribution                         Average         Max         Min
 PW_GRID|   G-Vectors                            28800.0       29184       28512
 PW_GRID|   G-Rays                                 300.0         304         297
 PW_GRID|   Real Space Points                    28800.0       28800       28800

 PW_GRID| Information for grid number                                          3
 PW_GRID| Number of the reference grid                                         1
 PW_GRID| Grid distributed over                                    16 processors
 PW_GRID| Real space group dimensions                                    16    1
 PW_GRID| the grid is blocked:                                                NO
 PW_GRID| Cutoff [a.u.]                                                     55.6
 PW_GRID| spherical cutoff:                                                   NO
 PW_GRID|   Bounds   1            -27      26                Points:          54
 PW_GRID|   Bounds   2            -13      13                Points:          27
 PW_GRID|   Bounds   3            -30      29                Points:          60
 PW_GRID| Volume element (a.u.^3)  0.2424E-01     Volume (a.u.^3)      2120.4582
 PW_GRID| Grid span                                                    FULLSPACE
 PW_GRID|   Distribution                         Average         Max         Min
 PW_GRID|   G-Vectors                             5467.5        5778        5238
 PW_GRID|   G-Rays                                 101.2         107          97
 PW_GRID|   Real Space Points                     5467.5        6480        4860

 PW_GRID| Information for grid number                                          4
 PW_GRID| Number of the reference grid                                         1
 PW_GRID| Grid distributed over                                    16 processors
 PW_GRID| Real space group dimensions                                    16    1
 PW_GRID| the grid is blocked:                                                NO
 PW_GRID| Cutoff [a.u.]                                                     18.5
 PW_GRID| spherical cutoff:                                                   NO
 PW_GRID|   Bounds   1            -16      15                Points:          32
 PW_GRID|   Bounds   2             -7       7                Points:          15
 PW_GRID|   Bounds   3            -18      17                Points:          36
 PW_GRID| Volume element (a.u.^3)  0.1227         Volume (a.u.^3)      2120.4582
 PW_GRID| Grid span                                                    FULLSPACE
 PW_GRID|   Distribution                         Average         Max         Min
 PW_GRID|   G-Vectors                             1080.0        1216         960
 PW_GRID|   G-Rays                                  33.8          38          30
 PW_GRID|   Real Space Points                     1080.0        1080        1080

 POISSON| Solver                                                        PERIODIC
 POISSON| Periodicity                                                        XYZ

 RS_GRID| Information for grid number                                          1
 RS_GRID|   Bounds   1            -80      79                Points:         160
 RS_GRID|   Bounds   2            -40      40                Points:          81
 RS_GRID|   Bounds   3            -90      89                Points:         180
 RS_GRID| Real space fully replicated
 RS_GRID| Group size                                                           1

 RS_GRID| Information for grid number                                          2
 RS_GRID|   Bounds   1            -48      47                Points:          96
 RS_GRID|   Bounds   2            -24      23                Points:          48
 RS_GRID|   Bounds   3            -50      49                Points:         100
 RS_GRID| Real space fully replicated
 RS_GRID| Group size                                                           1

 RS_GRID| Information for grid number                                          3
 RS_GRID|   Bounds   1            -27      26                Points:          54
 RS_GRID|   Bounds   2            -13      13                Points:          27
 RS_GRID|   Bounds   3            -30      29                Points:          60
 RS_GRID| Real space fully replicated
 RS_GRID| Group size                                                           1

 RS_GRID| Information for grid number                                          4
 RS_GRID|   Bounds   1            -16      15                Points:          32
 RS_GRID|   Bounds   2             -7       7                Points:          15
 RS_GRID|   Bounds   3            -18      17                Points:          36
 RS_GRID| Real space fully replicated
 RS_GRID| Group size                                                           1

 Number of electrons:                                                         56
 Number of occupied orbitals:                                                 28
 Number of molecular orbitals:                                               360

 Number of orbital functions:                                                360
 Number of independent orbital functions:                                    360

 Extrapolation method: initial_guess

 Atomic guess: The first density matrix is obtained in terms of atomic orbitals
               and electronic configurations assigned to each atomic kind

 Guess for atomic kind: Br

 Electronic structure
    Total number of core electrons                                         28.00
    Total number of valence electrons                                       7.00
    Total number of electrons                                              35.00
    Multiplicity                                                   not specified
    S   [  2.00  2.00  2.00] 2.00
    P   [  6.00  6.00] 5.00
    D   [ 10.00]


 *******************************************************************************
                  Iteration          Convergence                     Energy [au]
 *******************************************************************************
                          1        0.701109                     -13.125357062274
                          2        0.454926                     -13.175559205165
                          3        0.172244E-01                 -13.230788349107
                          4        0.337706E-03                 -13.230906999271
                          5        0.174702E-04                 -13.230907032160
                          6        0.874848E-07                 -13.230907032220

 Energy components [Hartree]           Total Energy ::          -13.230907032220
                                        Band Energy ::           -2.785634101409
                                     Kinetic Energy ::            4.400508628164
                                   Potential Energy ::          -17.631415660385
                                      Virial (-V/T) ::            4.006676761759
                                        Core Energy ::          -21.965016171262
                                          XC Energy ::           -2.467463996949
                                     Coulomb Energy ::           11.201573135991
                       Total Pseudopotential Energy ::          -26.431713688491
                       Local Pseudopotential Energy ::          -28.172455584902
                    Nonlocal Pseudopotential Energy ::            1.740741896410
                                        Confinement ::            0.661888890647

 Orbital energies  State     L     Occupation   Energy[a.u.]          Energy[eV]

                       1     0          2.000      -0.719780          -19.586207

                       1     1          5.000      -0.269215           -7.325709


 Total Electron Density at R=0:                                         0.000594
 Re-scaling the density matrix to get the right number of electrons
                  # Electrons              Trace(P)               Scaling factor
                           56                56.000                        1.000


 SCF WAVEFUNCTION OPTIMIZATION

  Step     Update method      Time    Convergence         Total energy    Change
  ------------------------------------------------------------------------------
     1 NoMix/Diag. 0.50E-01    6.6     0.56560537      -107.5898035529 -1.08E+02
     2 Broy./Diag. 0.50E-01    6.2     0.00118980      -107.7281622555 -1.38E-01
     3 Broy./Diag. 0.50E-01    6.2     0.03289502      -107.5797737310  1.48E-01
     4 Broy./Diag. 0.50E-01    6.3     0.00067358      -107.5695940578  1.02E-02
     5 Broy./Diag. 0.50E-01    6.3     0.01953263      -107.4792495792  9.03E-02
     6 Broy./Diag. 0.50E-01    6.3     0.00020984      -107.3992166760  8.00E-02
     7 Broy./Diag. 0.50E-01    6.3     0.00810561      -107.3887081803  1.05E-02
     8 Broy./Diag. 0.50E-01    6.2     0.00030594      -107.3619069347  2.68E-02
     9 Broy./Diag. 0.50E-01    6.2     0.00641039      -107.3607235213  1.18E-03
    10 Broy./Diag. 0.50E-01    6.3     0.00013637      -107.3544688439  6.25E-03
    11 Broy./Diag. 0.50E-01    6.3     0.00112480      -107.3523707768  2.10E-03
    12 Broy./Diag. 0.50E-01    6.3     0.00005107      -107.3513162422  1.05E-03
    13 Broy./Diag. 0.50E-01    6.3     0.00022047      -107.3509207649  3.95E-04
    14 Broy./Diag. 0.50E-01    6.2     0.00003479      -107.3505304765  3.90E-04
    15 Broy./Diag. 0.50E-01    6.3     0.00000854      -107.3505104302  2.00E-05
    16 Broy./Diag. 0.50E-01    6.3     0.00001835      -107.3506418166 -1.31E-04
    17 Broy./Diag. 0.50E-01    6.3     0.00001561      -107.3507790078 -1.37E-04
    18 Broy./Diag. 0.50E-01    6.3     0.00000995      -107.3508448630 -6.59E-05
    19 Broy./Diag. 0.50E-01    6.3     0.00000740      -107.3509039537 -5.91E-05
    20 Broy./Diag. 0.50E-01    6.3     0.00000168      -107.3509514405 -4.75E-05
    21 Broy./Diag. 0.50E-01    6.3     0.00001422      -107.3510123370 -6.09E-05
    22 Broy./Diag. 0.50E-01    6.3     0.00000078      -107.3510570549 -4.47E-05
    23 Broy./Diag. 0.50E-01    6.2     0.00000806      -107.3510590836 -2.03E-06
    24 Broy./Diag. 0.50E-01    6.2     0.00000129      -107.3510659778 -6.89E-06
    25 Broy./Diag. 0.50E-01    6.2     0.00000321      -107.3510681257 -2.15E-06
    26 Broy./Diag. 0.50E-01    6.3     0.00000031      -107.3510701183 -1.99E-06
    27 Broy./Diag. 0.50E-01    6.3     0.00000085      -107.3510751075 -4.99E-06
    28 Broy./Diag. 0.50E-01    6.3     0.00000011      -107.3510783992 -3.29E-06
    29 Broy./Diag. 0.50E-01    6.3     0.00000046      -107.3510789566 -5.57E-07
    30 Broy./Diag. 0.50E-01    6.3     0.00000007      -107.3510792140 -2.57E-07
    31 Broy./Diag. 0.50E-01    6.3     0.00000015      -107.3510802070 -9.93E-07
    32 Broy./Diag. 0.50E-01    6.2     0.00000026      -107.3510807627 -5.56E-07
    33 Broy./Diag. 0.50E-01    6.2     0.00000018      -107.3510797853  9.77E-07
    34 Broy./Diag. 0.50E-01    6.2     0.00000010      -107.3510788235  9.62E-07
    35 Broy./Diag. 0.50E-01    6.3     0.00000021      -107.3510774611  1.36E-06
    36 Broy./Diag. 0.50E-01    6.3     0.00000008      -107.3510765982  8.63E-07
    37 Broy./Diag. 0.50E-01    6.3     0.00000038      -107.3510760508  5.47E-07
    38 Broy./Diag. 0.50E-01    6.2     0.00000003      -107.3510753338  7.17E-07
    39 Broy./Diag. 0.50E-01    6.4     0.00000020      -107.3510751818  1.52E-07
    40 Broy./Diag. 0.50E-01    6.3     3.2970E-09      -107.3510750329  1.49E-07
    41 Broy./Diag. 0.50E-01    6.2     0.00000004      -107.3510749502  8.28E-08
    42 Broy./Diag. 0.50E-01    6.3     1.4882E-09      -107.3510748619  8.83E-08
    43 Broy./Diag. 0.50E-01    6.2     0.00000002      -107.3510748519  9.98E-09
    44 Broy./Diag. 0.50E-01    6.3     2.6467E-10      -107.3510748649 -1.30E-08

  *** SCF run converged in    44 steps ***


  Electronic density on regular grids:        -56.0000000000       -0.0000000000
  Core density on regular grids:               56.0000000000       -0.0000000000
  Total charge density on r-space grids:       -0.0000000000
  Total charge density g-space grids:          -0.0000000000

  Overlap energy of the core charge distribution:               0.00000001184422
  Self energy of the core charge distribution:               -221.16231675072049
  Core Hamiltonian energy:                                     49.25275475852164
  Hartree energy:                                              85.24720338293488
  Exchange-correlation energy:                                -20.68871626749433

  Total energy:                                              -107.35107486491410

 !-----------------------------------------------------------------------------!
                     Mulliken Population Analysis

 #  Atom  Element  Kind  Atomic population                           Net charge
       1     Br       1          7.000000                             -0.000000
       2     Br       1          7.000000                              0.000000
       3     Br       1          7.000000                              0.000000
       4     Br       1          7.000000                             -0.000000
       5     Br       1          7.000000                              0.000000
[...]
 -------------------------------------------------------------------------------
 count for grid        1:              0          cutoff [a.u.]          500.00
 count for grid        2:         183456          cutoff [a.u.]          166.67
 count for grid        3:          73952          cutoff [a.u.]           55.56
 count for grid        4:          44480          cutoff [a.u.]           18.52
 total gridlevel count  :         301888

 -------------------------------------------------------------------------------
 -                                                                             -
 -                         MESSAGE PASSING PERFORMANCE                         -
 -                                                                             -
 -------------------------------------------------------------------------------

 ROUTINE             CALLS      AVE VOLUME [Bytes]
 MP_Group                6
 MP_Bcast           409261                    908.
 MP_Allreduce        28589                   1182.
 MP_Sync                 4
 MP_Alltoall           797                6457185.
 MP_SendRecv          2730                 373134.
 MP_ISendRecv         2655                 368852.
 MP_Wait            279731
 MP_comm_split           4
 MP_ISend           285820                  26060.
 MP_IRecv           477232                  12411.
 -------------------------------------------------------------------------------


 -------------------------------------------------------------------------------
 -                                                                             -
 -                           R E F E R E N C E S                               -
 -                                                                             -
 -------------------------------------------------------------------------------
 
 CP2K version 2025.1 (Development Version), the CP2K developers group (2025).
 CP2K is freely available from https://www.cp2k.org/ .
 
 T. D. Kuehne, M. Iannuzzi, M. Del Ben, V. V. Rybkin, P. Seewald, F. Stein, T. 
 Laino, R. Z. Khaliullin, O. Schuett, F. Schiffmann, D. Golze, J. Wilhelm, S. 
 Chulkov, M. H. Bani-Hashemian, V. Weber, U. Borstnik, M. Taillefumier, A. S. 
 Jakobovits, A. Lazzaro, H. Pabst, T. Mueller, R. Schade, M. Guidon, S. 
 Andermatt, N. Holmberg, G. K. Schenter, A. Hehn, A. Bussy, F. Belleflamme, G. 
 Tabacchi, A. Gloess, M. Lass, I. Bethune, C. J. Mundy, C. Plessl, M. Watkins, 
 J. VandeVondele, M. Krack, J. Hutter.
 J. Chem. Phys. 152, 194103 (2020).
 CP2K: An electronic structure and molecular dynamics software package - 
 Quickstep: Efficient and accurate electronic structure calculations.
 https://doi.org/10.1063/5.0007045

 O. Schuett, P. Messmer, J. Hutter, J. VandeVondele.
 Electronic Structure Calculations on Graphics Processing Units, 173-190 (2016).
 GPU-Accelerated Sparse Matrix-Matrix Multiplication for Linear Scaling Density 
 Functional Theory.
 https://doi.org/10.1002/9781118670712.ch8

 J. Hutter, M. Iannuzzi, F. Schiffmann, J. VandeVondele.
 WIREs Comput Mol Sci. 4, 15-25 (2014).
 CP2K: atomistic simulations of condensed matter systems.
 https://doi.org/10.1002/wcms.1159

 U. Borstnik, J. VandeVondele, V. Weber, J. Hutter.
 Parallel Comput. 40, 47-58 (2014).
 Sparse matrix multiplication: The distributed block-compressed sparse row 
 library.
 https://doi.org/10.1016/j.parco.2014.03.012

 J. VandeVondele, J. Hutter.
 J. Chem. Phys. 127, 114105 (2007).
 Gaussian basis sets for accurate calculations on molecular systems in gas and 
 condensed phases.
 https://doi.org/10.1063/1.2770708

 J. VandeVondele, M. Krack, F. Mohamed, M. Parrinello, T. Chassaing, J. Hutter.
 Comput. Phys. Commun. 167, 103-128 (2005).
 QUICKSTEP: Fast and accurate density functional calculations using a mixed 
 Gaussian and plane waves approach.
 https://doi.org/10.1016/j.cpc.2004.12.014

 M. Krack.
 Theor. Chem. Acc. 114, 145-152 (2005).
 Pseudopotentials for H to Kr optimized for gradient-corrected 
 exchange-correlation functionals.
 https://doi.org/10.1007/s00214-005-0655-y

 M. Frigo, S. G. Johnson.
 Proc. IEEE 93, 216-231 (2005).
 The design and implementation of FFTW3.
 https://doi.org/10.1109/JPROC.2004.840301

 C. Hartwigsen, S. Goedecker, J. Hutter.
 Phys. Rev. B 58, 3641-3662 (1998).
 Relativistic separable dual-space Gaussian pseudopotentials from H to Rn.
 https://doi.org/10.1103/PhysRevB.58.3641

 G. Lippert, J. Hutter, M. Parrinello.
 Mol. Phys. 92, 477-487 (1997).
 A hybrid Gaussian and plane wave density functional scheme.
 https://doi.org/10.1080/002689797170220

 S. Goedecker, M. Teter, J. Hutter.
 Phys. Rev. B 54, 1703-1710 (1996).
 Separable dual-space Gaussian pseudopotentials.
 https://doi.org/10.1103/PhysRevB.54.1703

 J. P. Perdew, K. Burke, M. Ernzerhof.
 Phys. Rev. Lett. 77, 3865-3868 (1996).
 Generalized gradient approximation made simple.
 https://doi.org/10.1103/PhysRevLett.77.3865


 -------------------------------------------------------------------------------
 -                                                                             -
 -                                T I M I N G                                  -
 -                                                                             -
 -------------------------------------------------------------------------------
 SUBROUTINE                       CALLS  ASD         SELF TIME        TOTAL TIME
                                MAXIMUM       AVERAGE  MAXIMUM  AVERAGE  MAXIMUM
 CP2K                                 1  1.0    0.011    0.015  282.821  282.821
 qs_energies                          1  2.0    0.010    0.127  282.461  282.554
 scf_env_do_scf                       1  3.0    0.000    0.000  278.138  278.139
 scf_env_do_scf_inner_loop           44  4.0    0.010    0.012  278.138  278.139
 do_general_diag_kp                  45  5.9    0.302    0.322  270.500  271.090
 qs_scf_new_mos_kp                   44  5.0    0.000    0.001  266.728  267.375
 kpoint_density_transform            44  7.0    0.102    0.110   70.497   70.647
 mp_alltoall_i22                 160714  8.8   33.184   68.283   33.184   68.283
 dbcsr_desymmetrize_deep          91917  7.5    2.552    2.959   36.378   60.106
 cp_fm_start_copy_general         68176  7.3    5.347    8.905   56.252   56.408
 rskp_transform                   22824  7.0   39.998   55.272   39.998   55.272
 dbcsr_complete_redistribute      68797  8.3    5.209    6.737   43.908   54.812
 cp_cfm_geeig                       741  6.9    0.013    0.015   52.717   53.693
 mp_allgather_i                  136352  8.3   45.830   47.309   45.830   47.309
 copy_dbcsr_to_fm                 46269  6.9    0.595    0.627   38.810   41.645
 cp_cfm_heevd                       741  7.9    0.002    0.003   36.757   37.460
 cp_cfm_heevd_base                  741  8.9   36.755   37.458   36.755   37.458
 copy_fm_to_dbcsr                 22528  8.0    0.152    0.165   18.414   29.315
 transform_dmat                   11264  8.0   19.264   26.488   19.264   26.488
 mp_alltoall_d11v                482142  9.4   12.277   13.113   12.277   13.113
 cp_cfm_triangular_multiply        2223  7.9   11.250   11.450   11.250   11.450
 kpoint_density_matrices             44  7.0    0.090    0.094    8.180    8.310
 parallel_gemm_fm                  2816  8.0    0.004    0.004    7.914    8.035
 parallel_gemm_fm_gemm             2816  9.0    0.004    0.004    7.911    8.031
 cp_fm_gemm                        2816 10.0    7.907    8.028    7.907    8.028
 dbcsr_finalize                  164558  8.8    0.892    0.935    6.663    7.922
 hybrid_alltoall_any              91917  8.5    0.413    0.471    6.895    7.407
 cp_fm_finish_copy_general        25492  7.9    5.520    7.340    5.582    7.401
 mp_cart_sub                      92540  8.9    6.759    6.792    6.759    6.792
 mp_alltoall_i11v                298308  9.0    5.017    5.678    5.017    5.678
 qs_ks_update_qs_env                 44  5.0    0.000    0.000    4.640    5.205
 dbcsr_merge_all                  68797 10.3    1.738    2.108    3.816    5.014
 rebuild_ks_matrix                   44  6.0    0.000    0.000    4.087    4.652
 qs_ks_build_kohn_sham_matrix        44  7.0    0.019    0.020    4.087    4.651
 mp_cart_create                   46276  8.9    4.185    4.457    4.185    4.457
 mp_bcast_iv                     272728  8.3    3.522    3.958    3.522    3.958
 qs_rho_update_rho_low               45  5.0    0.000    0.000    3.787    3.794
 calculate_rho_elec                  45  6.0    0.058    0.064    3.787    3.794
 sum_up_and_integrate                44  8.0    0.001    0.001    2.654    3.215
 integrate_v_rspace                  44  9.0    0.035    0.050    2.651    3.212
 grid_collocate_task_list            45  7.0    2.122    2.504    2.122    2.504
 cp_cfm_cholesky_decompose          741  7.9    2.229    2.270    2.229    2.270
 copy_dbcsr_to_fm_bc              46269  7.9    0.987    1.703    1.538    2.251
 cp_cfm_triangular_invert           741  7.9    2.203    2.251    2.203    2.251
 grid_integrate_task_list            44 10.0    1.656    2.207    1.656    2.207
 mp_waitall_1                    279731  8.4    0.584    2.197    0.584    2.197
 kpoint_set_mo_occupation            44  7.0    0.289    0.292    1.516    2.125
 density_rs2pw                       45  7.0    0.002    0.002    1.601    2.098
 mp_sum_dm3                          44  8.0    1.227    1.836    1.227    1.836
 transfer_rs2pw                     182  8.0    0.002    0.003    1.279    1.800
 dbcsr_work_create               160714  8.8    1.032    1.088    1.619    1.750
 copy_fm_to_dbcsr_bc              22528  9.0    0.463    0.673    1.357    1.693
 dbcsr_create_new                249488  8.4    1.266    1.320    1.579    1.640
 transfer_rs2pw_500                  47  8.9    0.321    0.336    1.074    1.599
 fft_wrap_pw1pw2                    797 10.0    0.008    0.009    1.558    1.570
 write_kpoints_restart               44  5.0    0.003    0.007    1.508    1.510
 tree_to_linear_d                 68797 11.3    1.258    1.501    1.258    1.501
 fft_wrap_pw1pw2_500                530 11.3    0.122    0.124    1.451    1.464
 mp_sendrecv_dv                    2730 10.0    0.882    1.404    0.882    1.404
 dbcsr_work_destroy_all          160714  9.8    0.769    0.782    1.287    1.336
 dbcsr_data_new                 1722042  9.8    1.117    1.269    1.117    1.269
 fft3d_ps                           797 12.0    0.582    0.599    1.227    1.238
 dbcsr_iterator_start            463228  9.1    0.962    0.980    1.157    1.191
 dbcsr_data_release             2369104 10.2    1.123    1.184    1.123    1.184
 dbcsr_data_copy_aa2              68797 11.3    0.502    1.128    0.502    1.128
 qs_vxc_create                       44  8.0    0.001    0.001    1.108    1.111
 xc_vxc_pw_create                    44  9.0    0.050    0.050    1.108    1.111
 gspace_mixing                       43  5.0    0.045    0.045    1.106    1.106
 dbcsr_destroy                   231272  8.3    0.426    0.436    0.953    1.086
 cp_fm_write_unformatted            621  6.0    0.304    0.832    0.465    0.972
 potential_pw2rs                     44 10.0    0.004    0.004    0.961    0.966
 mp_bcast_im                     136352  8.3    0.834    0.949    0.834    0.949
 broyden_mixing                      43  6.0    0.897    0.917    0.925    0.937
 dbcsr_copy                       40951  7.9    0.147    0.161    0.747    0.894
 transfer_pw2rs                     177 11.0    0.001    0.001    0.808    0.809
 cp_cfm_scale_and_add_fm           2964  6.9    0.726    0.766    0.726    0.766
 dbcsr_iterator_stop             463228  9.1    0.559    0.583    0.675    0.711
 dbcsr_copy_into_existing         22735 10.0    0.433    0.566    0.568    0.701
 mp_comm_free                    138850  8.9    0.578    0.693    0.578    0.693
 xc_pw_derive                       264 11.0    0.001    0.001    0.689    0.693
 mp_isend_dv                      68176  8.3    0.451    0.672    0.451    0.672
 mp_send_dv                         621  7.0    0.151    0.665    0.151    0.665
 transfer_pw2rs_500                  45 11.9    0.337    0.352    0.605    0.614
 xc_rho_set_and_dset_create          44 10.0    0.023    0.024    0.609    0.611
 quick_finalize                   91917  9.5    0.319    0.328    0.592    0.607
 dbcsr_dot                        18217  8.0    0.231    0.287    0.544    0.555
 mp_alltoall_z22v                   797 14.0    0.531    0.554    0.531    0.554
 evaluate_core_matrix_traces         44  6.0    0.000    0.000    0.553    0.553
 calculate_ptrace_kp                 88  7.0    0.014    0.015    0.552    0.552
 dbcsr_set                       134080  8.1    0.152    0.164    0.397    0.478
 dbcsr_reserve_blocks             24243 10.7    0.285    0.429    0.316    0.463
 dbcsr_reserve_all_blocks         22528 10.0    0.042    0.047    0.312    0.445
 xc_pw_divergence                    44 10.0    0.001    0.001    0.441    0.443
 self_consistency_check              44  5.0    0.013    0.014    0.376    0.420
 mp_sum_d                         18987  8.8    0.295    0.404    0.295    0.404
 x_to_yz                            440 13.2    0.069    0.070    0.368    0.379
 cp_sm_mix                         9108  6.0    0.110    0.140    0.309    0.378
 cp_cfm_to_fm                       741  6.9    0.361    0.377    0.361    0.377
 dbcsr_zero                      134080  9.1    0.245    0.314    0.245    0.314
 dbcsr_sort_indices              184957 10.9    0.265    0.306    0.265    0.306
 mp_max_d                          9110  7.0    0.178    0.296    0.178    0.296
 yz_to_x                            357 12.8    0.037    0.041    0.269    0.282
 cp_cfm_to_cfm_columns              741  7.9    0.265    0.277    0.265    0.277
 mp_sum_dv                          339  3.5    0.144    0.276    0.144    0.276
 xc_functional_eval                  44 11.0    0.000    0.000    0.220    0.222
 pbe_lda_eval                        44 12.0    0.219    0.222    0.219    0.222
 dbcsr_make_index_exist          249488  9.4    0.194    0.215    0.194    0.215
 dbcsr_iterator_seek             463228 10.1    0.195    0.211    0.195    0.211
 merge_index                      68797 11.3    0.161    0.187    0.161    0.187
 mp_isendrecv_dv                   2655 13.0    0.070    0.172    0.070    0.172
 cp_fm_to_fm_matrix                1408  8.0    0.167    0.170    0.167    0.170
 transfer_rs2pw_170                  45  9.0    0.060    0.064    0.155    0.164
 transfer_pw2rs_170                  44 12.0    0.068    0.072    0.148    0.160
 init_scf_run                         1  3.0    0.000    0.000    0.139    0.149
 scf_env_initial_rho_setup            1  4.0    0.000    0.000    0.139    0.149
 mp_irecv_iv                     272704  8.3    0.009    0.149    0.009    0.149
 mp_recv_dv                        3105  7.0    0.009    0.140    0.009    0.140
 dbcsr_switch_data_area           91917 10.5    0.090    0.093    0.126    0.131
 qs_energies_init_hamiltonians        1  3.0    0.000    0.000    0.125    0.125
 restraint_control                    1  2.0    0.000    0.000    0.093    0.124
 mp_sum_i                             4  2.8    0.093    0.124    0.093    0.124
 mp_irecv_dv                      68176  8.3    0.062    0.122    0.062    0.122
 pw_scatter_p                       440 12.2    0.111    0.113    0.111    0.113
 cp_fm_cleanup_copy_general       47056  7.0    0.078    0.079    0.111    0.113
 cp_fm_create                       371  4.3    0.097    0.103    0.097    0.103
 mp_isend_iv                     145096  8.3    0.015    0.098    0.015    0.098
 pw_poisson_solve                    44  8.0    0.000    0.001    0.095    0.096
 cp_dbcsr_alloc_block_from_nbl     1715  5.4    0.022    0.029    0.069    0.090
 parser_read_line                  6133  4.1    0.002    0.002    0.084    0.086
 dbcsr_get_data_size_used        160714  9.8    0.075    0.084    0.075    0.084
 parser_read_line_low                23  6.2    0.006    0.031    0.082    0.084
 dbcsr_distribution_new           68799  8.6    0.072    0.084    0.072    0.084
 build_core_hamiltonian_matrix        1  4.0    0.001    0.001    0.069    0.082
 broadcast_input_information         23  7.2    0.026    0.030    0.076    0.080
 scf_post_calculation_gpw             1  3.0    0.000    0.000    0.074    0.074
 write_available_results              1  4.0    0.000    0.000    0.074    0.074
 write_mo_free_results                1  5.0    0.002    0.003    0.074    0.074
 dbcsr_make_dbcsr_index          184957 10.9    0.069    0.073    0.069    0.073
 mp_irecv_im2                    136352  8.3    0.004    0.072    0.004    0.072
 fft_wrap_pw1pw2_170                 89 10.5    0.005    0.005    0.065    0.071
 pw_integral_ab_c1d_c1d_gs           44  9.0    0.064    0.065    0.067    0.068
 topology_control                     1  2.0    0.000    0.000    0.066    0.066
 qs_env_update_s_mstruct              1  4.0    0.000    0.000    0.051    0.064
 kpoint_initialize_mos                2  2.5    0.001    0.001    0.061    0.063
 qs_init_subsys                       1  2.0    0.002    0.002    0.061    0.061
 qs_env_setup                         1  3.0    0.000    0.000    0.058    0.058
 qs_env_rebuild_pw_env                2  3.5    0.000    0.000    0.057    0.058
 pw_env_rebuild                       1  5.0    0.000    0.001    0.057    0.057
 calculate_rho_core                   1  5.0    0.002    0.003    0.038    0.056
 create_qs_kind_set                   1  2.0    0.000    0.000    0.055    0.056
 read_qs_kind                         1  3.0    0.030    0.031    0.055    0.055
 pw_gather_p                        357 11.8    0.052    0.054    0.052    0.054
 pw_grid_setup                        4  6.0    0.000    0.000    0.048    0.048
 pw_grid_setup_internal               4  7.0    0.001    0.001    0.048    0.048
 mp_isend_im2                     72548  8.3    0.007    0.047    0.007    0.047
 read_cell_cif                        2  4.5    0.002    0.005    0.045    0.046
 transfer_pw2rs_60                   44 12.0    0.014    0.014    0.038    0.041
 coordinate_control                   1  3.0    0.001    0.002    0.041    0.041
 coordinate_control_READ_COORDI       1  4.0    0.000    0.000    0.039    0.041
 read_coordinate_cif                  1  5.0    0.002    0.002    0.039    0.041
 transfer_rs2pw_60                   45  9.0    0.011    0.012    0.036    0.038
 hirshfeld_integration                1  6.0    0.007    0.021    0.036    0.037
 mp_bcast_i_src                      92  8.2    0.029    0.033    0.029    0.033
 mp_sum_dm                           43  7.0    0.019    0.033    0.019    0.033
 pw_grid_sort                         4  8.0    0.020    0.020    0.031    0.032
 pw_copy                            660 10.5    0.030    0.032    0.030    0.032
 pw_derive                          396 11.3    0.029    0.030    0.029    0.030
 calculate_hirshfeld_normalizat       1  6.0    0.005    0.010    0.029    0.030
 mixing_allocate                      1  3.0    0.001    0.001    0.023    0.029
 -------------------------------------------------------------------------------

 The number of warnings for this run is : 1
 
 -------------------------------------------------------------------------------
  **** **** ******  **  PROGRAM ENDED AT                 2025-08-05 19:53:28.748
 ***** ** ***  *** **   PROGRAM RAN ON                              i01r11c06s02
 **    ****   ******    PROGRAM RAN BY                                   di38fab
 ***** **    ** ** **   PROGRAM PROCESS ID                                345745
  **** **  *******  **  PROGRAM STOPPED IN /hppfs/scratch/04/di38fab/09_GTH/Delt
                                           a_Set/Br/aug-TZVP-MOLOPT-GTH-tier-1/8
                                           x8x8
