 DBCSR| CPU Multiplication driver                                           BLAS (U)
 DBCSR| Multrec recursion limit                                              512 (U)
 DBCSR| Multiplication stack size                                           1000 (D)
 DBCSR| Maximum elements for images                                    UNLIMITED (U)
 DBCSR| Multiplicative factor virtual images                                   1 (U)
 DBCSR| Use multiplication densification                                       T (D)
 DBCSR| Multiplication size stacks                                             3 (U)
 DBCSR| Use memory pool for CPU allocation                                     F (U)
 DBCSR| Number of 3D layers                                               SINGLE (U)
 DBCSR| Use MPI memory allocation                                              F (U)
 DBCSR| Use RMA algorithm                                                      F (U)
 DBCSR| Use Communication thread                                               T (U)
 DBCSR| Communication thread load                                             45 (D)
 DBCSR| MPI: My process id                                                     0
 DBCSR| MPI: Number of processes                                              16
 DBCSR| OMP: Current number of threads                                        12
 DBCSR| OMP: Max number of threads                                            12
 DBCSR| Split modifier for TAS multiplication algorithm                  1.0E+00 (U)


  **** **** ******  **  PROGRAM STARTED AT               2025-08-12 23:08:16.929
 ***** ** ***  *** **   PROGRAM STARTED ON                          i03r04c05s04
 **    ****   ******    PROGRAM STARTED BY                               di38fab
 ***** **    ** ** **   PROGRAM PROCESS ID                               2291338
  **** **  *******  **  PROGRAM STARTED IN /hppfs/scratch/04/di38fab/09_GTH/Delt
                                           a_Set/Zr/aug-TZVP-MOLOPT-GTH-tier-1/8
                                           x8x8

 CP2K| version string:                 CP2K version 2025.1 (Development Version)
 CP2K| source code revision number:                                  git:3130539
 CP2K| cp2kflags: omp libint fftw3 libxc parallel scalapack max_contr=4         
 CP2K| is freely available from                            https://www.cp2k.org/
 CP2K| Program compiled at                         Tue Jun  3 16:14:32 CEST 2025
 CP2K| Program compiled on                                               login01
 CP2K| Program compiled for                                        Supermuc-foss
 CP2K| Data directory path                  /hppfs/work/pn36zo/di38fab/cp2k/data
 CP2K| Input file name                                                    GW.inp

 GLOBAL| Force Environment number                                              1
 GLOBAL| Basis set file name            /hppfs/scratch/04/di38fab/09_GTH/BASIS_A
 GLOBAL| Potential file name            /hppfs/work/pn36zo/di38fab/cp2k/data/GTH
 GLOBAL| MM Potential file name                                     MM_POTENTIAL
 GLOBAL| Coordinate file name                                             Zr.cif
 GLOBAL| Method name                                                        CP2K
 GLOBAL| Project name                                                       WSe2
 GLOBAL| Run type                                                         ENERGY
 GLOBAL| FFT library                                                       FFTW3
 GLOBAL| Diagonalization library                                       ScaLAPACK
 GLOBAL| Cholesky decomposition library                                ScaLAPACK
 GLOBAL| DGEMM library                                                      BLAS
 GLOBAL| Orthonormality check for eigenvectors                          DISABLED
 GLOBAL| Matrix multiplication library                                 ScaLAPACK
 GLOBAL| All-to-all communication in single precision                          F
 GLOBAL| FFTs using library dependent lengths                                  F
 GLOBAL| Grid backend                                                       AUTO
 GLOBAL| Global print level                                               MEDIUM
 GLOBAL| MPI I/O enabled                                                       T
 GLOBAL| Total number of message passing processes                            16
 GLOBAL| Number of threads for this process                                   12
 GLOBAL| This output is from process                                           0
 GLOBAL| OpenMP stack size per thread (OMP_STACKSIZE)                    default
 GLOBAL| CPU model name             Intel(R) Xeon(R) Platinum 8174 CPU @ 3.10GHz

 MEMORY| system memory details [Kb]
 MEMORY|                        rank 0           min           max       average
 MEMORY| MemTotal             98436664      98436660      98436664      98436663
 MEMORY| MemFree              85269244      85269244      85421844      85353150
 MEMORY| Buffers                     0             0             0             0
 MEMORY| Cached                2356108       2354768       2364460       2357830
 MEMORY| Slab                  1201264       1179916       1205392       1194348
 MEMORY| SReclaimable           264212        260364        268460        264693
 MEMORY| MemLikelyFree        87889564      87889564      88046244      87975673


 *** Fundamental physical constants (SI units) ***

 *** Literature: B. J. Mohr and B. N. Taylor,
 ***             CODATA recommended values of the fundamental physical
 ***             constants: 2006, Web Version 5.1
 ***             http://physics.nist.gov/constants

 Speed of light in vacuum [m/s]                             2.99792458000000E+08
 Magnetic constant or permeability of vacuum [N/A**2]       1.25663706143592E-06
 Electric constant or permittivity of vacuum [F/m]          8.85418781762039E-12
 Planck constant (h) [J*s]                                  6.62606896000000E-34
 Planck constant (h-bar) [J*s]                              1.05457162825177E-34
 Elementary charge [C]                                      1.60217648700000E-19
 Electron mass [kg]                                         9.10938215000000E-31
 Electron g factor [ ]                                     -2.00231930436220E+00
 Proton mass [kg]                                           1.67262163700000E-27
 Fine-structure constant                                    7.29735253760000E-03
 Rydberg constant [1/m]                                     1.09737315685270E+07
 Avogadro constant [1/mol]                                  6.02214179000000E+23
 Boltzmann constant [J/K]                                   1.38065040000000E-23
 Atomic mass unit [kg]                                      1.66053878200000E-27
 Bohr radius [m]                                            5.29177208590000E-11

 *** Conversion factors ***

 [u] -> [a.u.]                                              1.82288848426455E+03
 [Angstrom] -> [Bohr] = [a.u.]                              1.88972613288564E+00
 [a.u.] = [Bohr] -> [Angstrom]                              5.29177208590000E-01
 [a.u.] -> [s]                                              2.41888432650478E-17
 [a.u.] -> [fs]                                             2.41888432650478E-02
 [a.u.] -> [J]                                              4.35974393937059E-18
 [a.u.] -> [N]                                              8.23872205491840E-08
 [a.u.] -> [K]                                              3.15774647902944E+05
 [a.u.] -> [kJ/mol]                                         2.62549961709828E+03
 [a.u.] -> [kcal/mol]                                       6.27509468713739E+02
 [a.u.] -> [Pa]                                             2.94210107994716E+13
 [a.u.] -> [bar]                                            2.94210107994716E+08
 [a.u.] -> [atm]                                            2.90362800883016E+08
 [a.u.] -> [eV]                                             2.72113838565563E+01
 [a.u.] -> [Hz]                                             6.57968392072181E+15
 [a.u.] -> [1/cm] (wave numbers)                            2.19474631370540E+05
 [a.u./Bohr**2] -> [1/cm]                                   5.14048714338585E+03
 

 CELL_TOP| Volume [angstrom^3]:                                        47.063447
 CELL_TOP| Vector a [angstrom     3.236     0.000     0.000   |a| =     3.236030
 CELL_TOP| Vector b [angstrom     1.618     2.802     0.000   |b| =     3.236030
 CELL_TOP| Vector c [angstrom     0.000     0.000     5.190   |c| =     5.189530
 CELL_TOP| Angle (b,c), alpha [degree]:                                90.000000
 CELL_TOP| Angle (a,c), beta  [degree]:                                90.000000
 CELL_TOP| Angle (a,b), gamma [degree]:                                60.000000
 CELL_TOP| Numerically orthorhombic:                                          NO
 CELL_TOP| Periodicity                                                       XYZ

 CELL_CIF| Volume [angstrom^3]:                                        47.063447
 CELL_CIF| Vector a [angstrom     3.236     0.000     0.000   |a| =     3.236030
 CELL_CIF| Vector b [angstrom     1.618     2.802     0.000   |b| =     3.236030
 CELL_CIF| Vector c [angstrom     0.000     0.000     5.190   |c| =     5.189530
 CELL_CIF| Angle (b,c), alpha [degree]:                                90.000000
 CELL_CIF| Angle (a,c), beta  [degree]:                                90.000000
 CELL_CIF| Angle (a,b), gamma [degree]:                                60.000000
 CELL_CIF| Numerically orthorhombic:                                          NO
 CELL_CIF| Periodicity                                                       XYZ

 GENERATE|  Preliminary Number of Bonds generated:                             0
 GENERATE|  Achieved consistency in connectivity generation.

 CELL| Volume [angstrom^3]:                                            47.063447
 CELL| Vector a [angstrom]:       3.236     0.000     0.000   |a| =     3.236030
 CELL| Vector b [angstrom]:       1.618     2.802     0.000   |b| =     3.236030
 CELL| Vector c [angstrom]:       0.000     0.000     5.190   |c| =     5.189530
 CELL| Angle (b,c), alpha [degree]:                                    90.000000
 CELL| Angle (a,c), beta  [degree]:                                    90.000000
 CELL| Angle (a,b), gamma [degree]:                                    60.000000
 CELL| Numerically orthorhombic:                                              NO
 CELL| Periodicity                                                           XYZ

 CELL_REF| Volume [angstrom^3]:                                        47.063447
 CELL_REF| Vector a [angstrom     3.236     0.000     0.000   |a| =     3.236030
 CELL_REF| Vector b [angstrom     1.618     2.802     0.000   |b| =     3.236030
 CELL_REF| Vector c [angstrom     0.000     0.000     5.190   |c| =     5.189530
 CELL_REF| Angle (b,c), alpha [degree]:                                90.000000
 CELL_REF| Angle (a,c), beta  [degree]:                                90.000000
 CELL_REF| Angle (a,b), gamma [degree]:                                60.000000
 CELL_REF| Numerically orthorhombic:                                          NO
 CELL_REF| Periodicity                                                       XYZ

 *** WARNING in cryssym.F:180 :: Symmetry library SPGLIB not available ***


 *******************************************************************************
                                    Kpoints
 *******************************************************************************
 BRILLOUIN| K-point scheme                                        Monkhorst-Pack
 BRILLOUIN| K-Point grid                                             8    8    8
 BRILLOUIN| Accuracy in Symmetry determination                      0.100000E-05
 BRILLOUIN| K-Point point group symmetrization                               OFF
 BRILLOUIN| Wavefunction type                                            COMPLEX
 BRILLOUIN| List of Kpoints [2 Pi/Bohr]                                      256
 BRILLOUIN| Number           Weight            X              Y              Z
 BRILLOUIN|     1           0.00391       -0.43750       -0.43750       -0.43750
 BRILLOUIN|     2           0.00391       -0.43750       -0.43750       -0.31250
 BRILLOUIN|     3           0.00391       -0.43750       -0.43750       -0.18750
 BRILLOUIN|     4           0.00391       -0.43750       -0.43750       -0.06250
 BRILLOUIN|     5           0.00391       -0.43750       -0.43750        0.06250
 BRILLOUIN|     6           0.00391       -0.43750       -0.43750        0.18750
 BRILLOUIN|     7           0.00391       -0.43750       -0.43750        0.31250
 BRILLOUIN|     8           0.00391       -0.43750       -0.43750        0.43750
 BRILLOUIN|     9           0.00391       -0.43750       -0.31250       -0.43750
 BRILLOUIN|    10           0.00391       -0.43750       -0.31250       -0.31250
 BRILLOUIN|    11           0.00391       -0.43750       -0.31250       -0.18750
 BRILLOUIN|    12           0.00391       -0.43750       -0.31250       -0.06250
 BRILLOUIN|    13           0.00391       -0.43750       -0.31250        0.06250
 BRILLOUIN|    14           0.00391       -0.43750       -0.31250        0.18750
 BRILLOUIN|    15           0.00391       -0.43750       -0.31250        0.31250
 BRILLOUIN|    16           0.00391       -0.43750       -0.31250        0.43750
 BRILLOUIN|    17           0.00391       -0.43750       -0.18750       -0.43750
 BRILLOUIN|    18           0.00391       -0.43750       -0.18750       -0.31250
 BRILLOUIN|    19           0.00391       -0.43750       -0.18750       -0.18750
 BRILLOUIN|    20           0.00391       -0.43750       -0.18750       -0.06250
 BRILLOUIN|    21           0.00391       -0.43750       -0.18750        0.06250
 BRILLOUIN|    22           0.00391       -0.43750       -0.18750        0.18750
 BRILLOUIN|    23           0.00391       -0.43750       -0.18750        0.31250
 BRILLOUIN|    24           0.00391       -0.43750       -0.18750        0.43750
 BRILLOUIN|    25           0.00391       -0.43750       -0.06250       -0.43750
 BRILLOUIN|    26           0.00391       -0.43750       -0.06250       -0.31250
 BRILLOUIN|    27           0.00391       -0.43750       -0.06250       -0.18750
 BRILLOUIN|    28           0.00391       -0.43750       -0.06250       -0.06250
 BRILLOUIN|    29           0.00391       -0.43750       -0.06250        0.06250
 BRILLOUIN|    30           0.00391       -0.43750       -0.06250        0.18750
 BRILLOUIN|    31           0.00391       -0.43750       -0.06250        0.31250
 BRILLOUIN|    32           0.00391       -0.43750       -0.06250        0.43750
 BRILLOUIN|    33           0.00391       -0.43750        0.06250       -0.43750
 BRILLOUIN|    34           0.00391       -0.43750        0.06250       -0.31250
 BRILLOUIN|    35           0.00391       -0.43750        0.06250       -0.18750
 BRILLOUIN|    36           0.00391       -0.43750        0.06250       -0.06250
 BRILLOUIN|    37           0.00391       -0.43750        0.06250        0.06250
 BRILLOUIN|    38           0.00391       -0.43750        0.06250        0.18750
 BRILLOUIN|    39           0.00391       -0.43750        0.06250        0.31250
 BRILLOUIN|    40           0.00391       -0.43750        0.06250        0.43750
 BRILLOUIN|    41           0.00391       -0.43750        0.18750       -0.43750
 BRILLOUIN|    42           0.00391       -0.43750        0.18750       -0.31250
 BRILLOUIN|    43           0.00391       -0.43750        0.18750       -0.18750
 BRILLOUIN|    44           0.00391       -0.43750        0.18750       -0.06250
 BRILLOUIN|    45           0.00391       -0.43750        0.18750        0.06250
 BRILLOUIN|    46           0.00391       -0.43750        0.18750        0.18750
 BRILLOUIN|    47           0.00391       -0.43750        0.18750        0.31250
 BRILLOUIN|    48           0.00391       -0.43750        0.18750        0.43750
 BRILLOUIN|    49           0.00391       -0.43750        0.31250       -0.43750
 BRILLOUIN|    50           0.00391       -0.43750        0.31250       -0.31250
 BRILLOUIN|    51           0.00391       -0.43750        0.31250       -0.18750
 BRILLOUIN|    52           0.00391       -0.43750        0.31250       -0.06250
 BRILLOUIN|    53           0.00391       -0.43750        0.31250        0.06250
 BRILLOUIN|    54           0.00391       -0.43750        0.31250        0.18750
 BRILLOUIN|    55           0.00391       -0.43750        0.31250        0.31250
 BRILLOUIN|    56           0.00391       -0.43750        0.31250        0.43750
 BRILLOUIN|    57           0.00391       -0.43750        0.43750       -0.43750
 BRILLOUIN|    58           0.00391       -0.43750        0.43750       -0.31250
 BRILLOUIN|    59           0.00391       -0.43750        0.43750       -0.18750
 BRILLOUIN|    60           0.00391       -0.43750        0.43750       -0.06250
 BRILLOUIN|    61           0.00391       -0.43750        0.43750        0.06250
 BRILLOUIN|    62           0.00391       -0.43750        0.43750        0.18750
 BRILLOUIN|    63           0.00391       -0.43750        0.43750        0.31250
 BRILLOUIN|    64           0.00391       -0.43750        0.43750        0.43750
 BRILLOUIN|    65           0.00391       -0.31250       -0.43750       -0.43750
 BRILLOUIN|    66           0.00391       -0.31250       -0.43750       -0.31250
 BRILLOUIN|    67           0.00391       -0.31250       -0.43750       -0.18750
 BRILLOUIN|    68           0.00391       -0.31250       -0.43750       -0.06250
 BRILLOUIN|    69           0.00391       -0.31250       -0.43750        0.06250
 BRILLOUIN|    70           0.00391       -0.31250       -0.43750        0.18750
 BRILLOUIN|    71           0.00391       -0.31250       -0.43750        0.31250
 BRILLOUIN|    72           0.00391       -0.31250       -0.43750        0.43750
 BRILLOUIN|    73           0.00391       -0.31250       -0.31250       -0.43750
 BRILLOUIN|    74           0.00391       -0.31250       -0.31250       -0.31250
 BRILLOUIN|    75           0.00391       -0.31250       -0.31250       -0.18750
 BRILLOUIN|    76           0.00391       -0.31250       -0.31250       -0.06250
 BRILLOUIN|    77           0.00391       -0.31250       -0.31250        0.06250
 BRILLOUIN|    78           0.00391       -0.31250       -0.31250        0.18750
 BRILLOUIN|    79           0.00391       -0.31250       -0.31250        0.31250
 BRILLOUIN|    80           0.00391       -0.31250       -0.31250        0.43750
 BRILLOUIN|    81           0.00391       -0.31250       -0.18750       -0.43750
 BRILLOUIN|    82           0.00391       -0.31250       -0.18750       -0.31250
 BRILLOUIN|    83           0.00391       -0.31250       -0.18750       -0.18750
 BRILLOUIN|    84           0.00391       -0.31250       -0.18750       -0.06250
 BRILLOUIN|    85           0.00391       -0.31250       -0.18750        0.06250
 BRILLOUIN|    86           0.00391       -0.31250       -0.18750        0.18750
 BRILLOUIN|    87           0.00391       -0.31250       -0.18750        0.31250
 BRILLOUIN|    88           0.00391       -0.31250       -0.18750        0.43750
 BRILLOUIN|    89           0.00391       -0.31250       -0.06250       -0.43750
 BRILLOUIN|    90           0.00391       -0.31250       -0.06250       -0.31250
 BRILLOUIN|    91           0.00391       -0.31250       -0.06250       -0.18750
 BRILLOUIN|    92           0.00391       -0.31250       -0.06250       -0.06250
 BRILLOUIN|    93           0.00391       -0.31250       -0.06250        0.06250
 BRILLOUIN|    94           0.00391       -0.31250       -0.06250        0.18750
 BRILLOUIN|    95           0.00391       -0.31250       -0.06250        0.31250
 BRILLOUIN|    96           0.00391       -0.31250       -0.06250        0.43750
 BRILLOUIN|    97           0.00391       -0.31250        0.06250       -0.43750
 BRILLOUIN|    98           0.00391       -0.31250        0.06250       -0.31250
 BRILLOUIN|    99           0.00391       -0.31250        0.06250       -0.18750
 BRILLOUIN|   100           0.00391       -0.31250        0.06250       -0.06250
 BRILLOUIN|   101           0.00391       -0.31250        0.06250        0.06250
 BRILLOUIN|   102           0.00391       -0.31250        0.06250        0.18750
 BRILLOUIN|   103           0.00391       -0.31250        0.06250        0.31250
 BRILLOUIN|   104           0.00391       -0.31250        0.06250        0.43750
 BRILLOUIN|   105           0.00391       -0.31250        0.18750       -0.43750
 BRILLOUIN|   106           0.00391       -0.31250        0.18750       -0.31250
 BRILLOUIN|   107           0.00391       -0.31250        0.18750       -0.18750
 BRILLOUIN|   108           0.00391       -0.31250        0.18750       -0.06250
 BRILLOUIN|   109           0.00391       -0.31250        0.18750        0.06250
 BRILLOUIN|   110           0.00391       -0.31250        0.18750        0.18750
 BRILLOUIN|   111           0.00391       -0.31250        0.18750        0.31250
 BRILLOUIN|   112           0.00391       -0.31250        0.18750        0.43750
 BRILLOUIN|   113           0.00391       -0.31250        0.31250       -0.43750
 BRILLOUIN|   114           0.00391       -0.31250        0.31250       -0.31250
 BRILLOUIN|   115           0.00391       -0.31250        0.31250       -0.18750
 BRILLOUIN|   116           0.00391       -0.31250        0.31250       -0.06250
 BRILLOUIN|   117           0.00391       -0.31250        0.31250        0.06250
 BRILLOUIN|   118           0.00391       -0.31250        0.31250        0.18750
 BRILLOUIN|   119           0.00391       -0.31250        0.31250        0.31250
 BRILLOUIN|   120           0.00391       -0.31250        0.31250        0.43750
 BRILLOUIN|   121           0.00391       -0.31250        0.43750       -0.43750
 BRILLOUIN|   122           0.00391       -0.31250        0.43750       -0.31250
 BRILLOUIN|   123           0.00391       -0.31250        0.43750       -0.18750
 BRILLOUIN|   124           0.00391       -0.31250        0.43750       -0.06250
 BRILLOUIN|   125           0.00391       -0.31250        0.43750        0.06250
 BRILLOUIN|   126           0.00391       -0.31250        0.43750        0.18750
 BRILLOUIN|   127           0.00391       -0.31250        0.43750        0.31250
 BRILLOUIN|   128           0.00391       -0.31250        0.43750        0.43750
 BRILLOUIN|   129           0.00391       -0.18750       -0.43750       -0.43750
 BRILLOUIN|   130           0.00391       -0.18750       -0.43750       -0.31250
 BRILLOUIN|   131           0.00391       -0.18750       -0.43750       -0.18750
 BRILLOUIN|   132           0.00391       -0.18750       -0.43750       -0.06250
 BRILLOUIN|   133           0.00391       -0.18750       -0.43750        0.06250
 BRILLOUIN|   134           0.00391       -0.18750       -0.43750        0.18750
 BRILLOUIN|   135           0.00391       -0.18750       -0.43750        0.31250
 BRILLOUIN|   136           0.00391       -0.18750       -0.43750        0.43750
 BRILLOUIN|   137           0.00391       -0.18750       -0.31250       -0.43750
 BRILLOUIN|   138           0.00391       -0.18750       -0.31250       -0.31250
 BRILLOUIN|   139           0.00391       -0.18750       -0.31250       -0.18750
 BRILLOUIN|   140           0.00391       -0.18750       -0.31250       -0.06250
 BRILLOUIN|   141           0.00391       -0.18750       -0.31250        0.06250
 BRILLOUIN|   142           0.00391       -0.18750       -0.31250        0.18750
 BRILLOUIN|   143           0.00391       -0.18750       -0.31250        0.31250
 BRILLOUIN|   144           0.00391       -0.18750       -0.31250        0.43750
 BRILLOUIN|   145           0.00391       -0.18750       -0.18750       -0.43750
 BRILLOUIN|   146           0.00391       -0.18750       -0.18750       -0.31250
 BRILLOUIN|   147           0.00391       -0.18750       -0.18750       -0.18750
 BRILLOUIN|   148           0.00391       -0.18750       -0.18750       -0.06250
 BRILLOUIN|   149           0.00391       -0.18750       -0.18750        0.06250
 BRILLOUIN|   150           0.00391       -0.18750       -0.18750        0.18750
 BRILLOUIN|   151           0.00391       -0.18750       -0.18750        0.31250
 BRILLOUIN|   152           0.00391       -0.18750       -0.18750        0.43750
 BRILLOUIN|   153           0.00391       -0.18750       -0.06250       -0.43750
 BRILLOUIN|   154           0.00391       -0.18750       -0.06250       -0.31250
 BRILLOUIN|   155           0.00391       -0.18750       -0.06250       -0.18750
 BRILLOUIN|   156           0.00391       -0.18750       -0.06250       -0.06250
 BRILLOUIN|   157           0.00391       -0.18750       -0.06250        0.06250
 BRILLOUIN|   158           0.00391       -0.18750       -0.06250        0.18750
 BRILLOUIN|   159           0.00391       -0.18750       -0.06250        0.31250
 BRILLOUIN|   160           0.00391       -0.18750       -0.06250        0.43750
 BRILLOUIN|   161           0.00391       -0.18750        0.06250       -0.43750
 BRILLOUIN|   162           0.00391       -0.18750        0.06250       -0.31250
 BRILLOUIN|   163           0.00391       -0.18750        0.06250       -0.18750
 BRILLOUIN|   164           0.00391       -0.18750        0.06250       -0.06250
 BRILLOUIN|   165           0.00391       -0.18750        0.06250        0.06250
 BRILLOUIN|   166           0.00391       -0.18750        0.06250        0.18750
 BRILLOUIN|   167           0.00391       -0.18750        0.06250        0.31250
 BRILLOUIN|   168           0.00391       -0.18750        0.06250        0.43750
 BRILLOUIN|   169           0.00391       -0.18750        0.18750       -0.43750
 BRILLOUIN|   170           0.00391       -0.18750        0.18750       -0.31250
 BRILLOUIN|   171           0.00391       -0.18750        0.18750       -0.18750
 BRILLOUIN|   172           0.00391       -0.18750        0.18750       -0.06250
 BRILLOUIN|   173           0.00391       -0.18750        0.18750        0.06250
 BRILLOUIN|   174           0.00391       -0.18750        0.18750        0.18750
 BRILLOUIN|   175           0.00391       -0.18750        0.18750        0.31250
 BRILLOUIN|   176           0.00391       -0.18750        0.18750        0.43750
 BRILLOUIN|   177           0.00391       -0.18750        0.31250       -0.43750
 BRILLOUIN|   178           0.00391       -0.18750        0.31250       -0.31250
 BRILLOUIN|   179           0.00391       -0.18750        0.31250       -0.18750
 BRILLOUIN|   180           0.00391       -0.18750        0.31250       -0.06250
 BRILLOUIN|   181           0.00391       -0.18750        0.31250        0.06250
 BRILLOUIN|   182           0.00391       -0.18750        0.31250        0.18750
 BRILLOUIN|   183           0.00391       -0.18750        0.31250        0.31250
 BRILLOUIN|   184           0.00391       -0.18750        0.31250        0.43750
 BRILLOUIN|   185           0.00391       -0.18750        0.43750       -0.43750
 BRILLOUIN|   186           0.00391       -0.18750        0.43750       -0.31250
 BRILLOUIN|   187           0.00391       -0.18750        0.43750       -0.18750
 BRILLOUIN|   188           0.00391       -0.18750        0.43750       -0.06250
 BRILLOUIN|   189           0.00391       -0.18750        0.43750        0.06250
 BRILLOUIN|   190           0.00391       -0.18750        0.43750        0.18750
 BRILLOUIN|   191           0.00391       -0.18750        0.43750        0.31250
 BRILLOUIN|   192           0.00391       -0.18750        0.43750        0.43750
 BRILLOUIN|   193           0.00391       -0.06250       -0.43750       -0.43750
 BRILLOUIN|   194           0.00391       -0.06250       -0.43750       -0.31250
 BRILLOUIN|   195           0.00391       -0.06250       -0.43750       -0.18750
 BRILLOUIN|   196           0.00391       -0.06250       -0.43750       -0.06250
 BRILLOUIN|   197           0.00391       -0.06250       -0.43750        0.06250
 BRILLOUIN|   198           0.00391       -0.06250       -0.43750        0.18750
 BRILLOUIN|   199           0.00391       -0.06250       -0.43750        0.31250
 BRILLOUIN|   200           0.00391       -0.06250       -0.43750        0.43750
 BRILLOUIN|   201           0.00391       -0.06250       -0.31250       -0.43750
 BRILLOUIN|   202           0.00391       -0.06250       -0.31250       -0.31250
 BRILLOUIN|   203           0.00391       -0.06250       -0.31250       -0.18750
 BRILLOUIN|   204           0.00391       -0.06250       -0.31250       -0.06250
 BRILLOUIN|   205           0.00391       -0.06250       -0.31250        0.06250
 BRILLOUIN|   206           0.00391       -0.06250       -0.31250        0.18750
 BRILLOUIN|   207           0.00391       -0.06250       -0.31250        0.31250
 BRILLOUIN|   208           0.00391       -0.06250       -0.31250        0.43750
 BRILLOUIN|   209           0.00391       -0.06250       -0.18750       -0.43750
 BRILLOUIN|   210           0.00391       -0.06250       -0.18750       -0.31250
 BRILLOUIN|   211           0.00391       -0.06250       -0.18750       -0.18750
 BRILLOUIN|   212           0.00391       -0.06250       -0.18750       -0.06250
 BRILLOUIN|   213           0.00391       -0.06250       -0.18750        0.06250
 BRILLOUIN|   214           0.00391       -0.06250       -0.18750        0.18750
 BRILLOUIN|   215           0.00391       -0.06250       -0.18750        0.31250
 BRILLOUIN|   216           0.00391       -0.06250       -0.18750        0.43750
 BRILLOUIN|   217           0.00391       -0.06250       -0.06250       -0.43750
 BRILLOUIN|   218           0.00391       -0.06250       -0.06250       -0.31250
 BRILLOUIN|   219           0.00391       -0.06250       -0.06250       -0.18750
 BRILLOUIN|   220           0.00391       -0.06250       -0.06250       -0.06250
 BRILLOUIN|   221           0.00391       -0.06250       -0.06250        0.06250
 BRILLOUIN|   222           0.00391       -0.06250       -0.06250        0.18750
 BRILLOUIN|   223           0.00391       -0.06250       -0.06250        0.31250
 BRILLOUIN|   224           0.00391       -0.06250       -0.06250        0.43750
 BRILLOUIN|   225           0.00391       -0.06250        0.06250       -0.43750
 BRILLOUIN|   226           0.00391       -0.06250        0.06250       -0.31250
 BRILLOUIN|   227           0.00391       -0.06250        0.06250       -0.18750
 BRILLOUIN|   228           0.00391       -0.06250        0.06250       -0.06250
 BRILLOUIN|   229           0.00391       -0.06250        0.06250        0.06250
 BRILLOUIN|   230           0.00391       -0.06250        0.06250        0.18750
 BRILLOUIN|   231           0.00391       -0.06250        0.06250        0.31250
 BRILLOUIN|   232           0.00391       -0.06250        0.06250        0.43750
 BRILLOUIN|   233           0.00391       -0.06250        0.18750       -0.43750
 BRILLOUIN|   234           0.00391       -0.06250        0.18750       -0.31250
 BRILLOUIN|   235           0.00391       -0.06250        0.18750       -0.18750
 BRILLOUIN|   236           0.00391       -0.06250        0.18750       -0.06250
 BRILLOUIN|   237           0.00391       -0.06250        0.18750        0.06250
 BRILLOUIN|   238           0.00391       -0.06250        0.18750        0.18750
 BRILLOUIN|   239           0.00391       -0.06250        0.18750        0.31250
 BRILLOUIN|   240           0.00391       -0.06250        0.18750        0.43750
 BRILLOUIN|   241           0.00391       -0.06250        0.31250       -0.43750
 BRILLOUIN|   242           0.00391       -0.06250        0.31250       -0.31250
 BRILLOUIN|   243           0.00391       -0.06250        0.31250       -0.18750
 BRILLOUIN|   244           0.00391       -0.06250        0.31250       -0.06250
 BRILLOUIN|   245           0.00391       -0.06250        0.31250        0.06250
 BRILLOUIN|   246           0.00391       -0.06250        0.31250        0.18750
 BRILLOUIN|   247           0.00391       -0.06250        0.31250        0.31250
 BRILLOUIN|   248           0.00391       -0.06250        0.31250        0.43750
 BRILLOUIN|   249           0.00391       -0.06250        0.43750       -0.43750
 BRILLOUIN|   250           0.00391       -0.06250        0.43750       -0.31250
 BRILLOUIN|   251           0.00391       -0.06250        0.43750       -0.18750
 BRILLOUIN|   252           0.00391       -0.06250        0.43750       -0.06250
 BRILLOUIN|   253           0.00391       -0.06250        0.43750        0.06250
 BRILLOUIN|   254           0.00391       -0.06250        0.43750        0.18750
 BRILLOUIN|   255           0.00391       -0.06250        0.43750        0.31250
 BRILLOUIN|   256           0.00391       -0.06250        0.43750        0.43750
 *******************************************************************************

 *******************************************************************************
 *******************************************************************************
 **                                                                           **
 **     #####                         ##              ##                      **
 **    ##   ##            ##          ##              ##                      **
 **   ##     ##                       ##            ######                    **
 **   ##     ##  ##   ##  ##   #####  ##  ##   ####   ##    #####    #####    **
 **   ##     ##  ##   ##  ##  ##      ## ##   ##      ##   ##   ##  ##   ##   **
 **   ##  ## ##  ##   ##  ##  ##      ####     ###    ##   ######   ######    **
 **    ##  ###   ##   ##  ##  ##      ## ##      ##   ##   ##       ##        **
 **     #######   #####   ##   #####  ##  ##  ####    ##    #####   ##        **
 **           ##                                                    ##        **
 **                                                                           **
 **                                                ... make the atoms dance   **
 **                                                                           **
 **            Copyright (C) by CP2K developers group (2000-2025)             **
 **                      J. Chem. Phys. 152, 194103 (2020)                    **
 **                                                                           **
 *******************************************************************************

 DFT| Spin restricted Kohn-Sham (RKS) calculation                            RKS
 DFT| Multiplicity                                                             1
 DFT| Number of spin states                                                    1
 DFT| Charge                                                                   0
 DFT| Self-interaction correction (SIC)                                       NO
 DFT| Cutoffs: density                                              1.000000E-10
 DFT|          gradient                                             1.000000E-10
 DFT|          tau                                                  1.000000E-10
 DFT|          cutoff_smoothing_range                               0.000000E+00
 DFT| XC density smoothing                                                  NONE
 DFT| XC derivatives                                                          PW

 FUNCTIONAL| PBE:
 FUNCTIONAL| J.P.Perdew, K.Burke, M.Ernzerhof, Phys. Rev. Letter, vol. 77, n 18,
 FUNCTIONAL|  pp. 3865-3868, (1996) {spin unpolarized}                          


 QS| Method:                                                                 GPW
 QS| Density plane wave grid type                        NON-SPHERICAL FULLSPACE
 QS| Number of grid levels:                                                    4
 QS| Density cutoff [a.u.]:                                                500.0
 QS| Multi grid cutoff [a.u.]: 1) grid level                               500.0
 QS|                           2) grid level                               166.7
 QS|                           3) grid level                                55.6
 QS|                           4) grid level                                18.5
 QS| Grid level progression factor:                                          3.0
 QS| Relative density cutoff [a.u.]:                                        50.0
 QS| Interaction thresholds: eps_pgf_orb:                                1.0E-16
 QS|                         eps_filter_matrix:                          0.0E+00
 QS|                         eps_core_charge:                            1.0E-18
 QS|                         eps_rho_gspace:                             1.0E-16
 QS|                         eps_rho_rspace:                             1.0E-16
 QS|                         eps_gvg_rspace:                             1.0E-08
 QS|                         eps_ppl:                                    1.0E-02
 QS|                         eps_ppnl:                                   1.0E-10


 ATOMIC KIND INFORMATION

  1. Atomic kind: Zr                                    Number of atoms:       2

     Orbital Basis Set                                aug-TZVP-MOLOPT-GTH-tier-1

       Number of orbital shell sets:                                           1
       Number of orbital shells:                                              16
       Number of primitive Cartesian functions:                                8
       Number of Cartesian basis functions:                                   71
       Number of spherical basis functions:                                   58
       Norm type:                                                              2

       Normalised Cartesian orbitals:

                        Set   Shell   Orbital            Exponent    Coefficient

                          1       1    2s                0.025000       0.000000
                                                         0.043421      -0.019846
                                                         0.116674      -0.070292
                                                         0.270613      -0.031249
                                                         0.621282      -0.142995
                                                         1.433057      -0.099677
                                                         2.756113       0.564738
                                                         8.137097      -0.151339

                          1       2    3s                0.025000       0.000000
                                                         0.043421       0.054494
                                                         0.116674       0.060952
                                                         0.270613      -0.109593
                                                         0.621282      -0.328563
                                                         1.433057      -0.232609
                                                         2.756113       0.746969
                                                         8.137097      -0.162373

                          1       3    4s                0.025000       0.000000
                                                         0.043421       0.086872
                                                         0.116674      -0.184511
                                                         0.270613      -0.247564
                                                         0.621282       0.564039
                                                         1.433057       0.372213
                                                         2.756113      -0.035009
                                                         8.137097      -0.124316

                          1       4    5s                0.025000       0.000000
                                                         0.043421       0.028863
                                                         0.116674      -0.037947
                                                         0.270613       0.241852
                                                         0.621282      -0.016439
                                                         1.433057      -0.029312
                                                         2.756113       0.348360
                                                         8.137097      -0.086911

                          1       5    6s                0.025000      -0.000923
                                                         0.043421       0.068425
                                                         0.116674      -0.008140
                                                         0.270613       0.026989
                                                         0.621282      -0.001898
                                                         1.433057       0.000000
                                                         2.756113       0.000000
                                                         8.137097       0.000000

                          1       6    3px               0.025000       0.000000
                                                         0.043421      -0.006786
                                                         0.116674      -0.023154
                                                         0.270613      -0.055458
                                                         0.621282      -0.332247
                                                         1.433057      -0.647744
                                                         2.756113       0.925397
                                                         8.137097      -0.245960
                          1       6    3py               0.025000       0.000000
                                                         0.043421      -0.006786
                                                         0.116674      -0.023154
                                                         0.270613      -0.055458
                                                         0.621282      -0.332247
                                                         1.433057      -0.647744
                                                         2.756113       0.925397
                                                         8.137097      -0.245960
                          1       6    3pz               0.025000       0.000000
                                                         0.043421      -0.006786
                                                         0.116674      -0.023154
                                                         0.270613      -0.055458
                                                         0.621282      -0.332247
                                                         1.433057      -0.647744
                                                         2.756113       0.925397
                                                         8.137097      -0.245960

                          1       7    4px               0.025000       0.000000
                                                         0.043421       0.016411
                                                         0.116674       0.052118
                                                         0.270613      -0.018655
                                                         0.621282      -0.324871
                                                         1.433057      -0.448369
                                                         2.756113       0.582861
                                                         8.137097      -0.119531
                          1       7    4py               0.025000       0.000000
                                                         0.043421       0.016411
                                                         0.116674       0.052118
                                                         0.270613      -0.018655
                                                         0.621282      -0.324871
                                                         1.433057      -0.448369
                                                         2.756113       0.582861
                                                         8.137097      -0.119531
                          1       7    4pz               0.025000       0.000000
                                                         0.043421       0.016411
                                                         0.116674       0.052118
                                                         0.270613      -0.018655
                                                         0.621282      -0.324871
                                                         1.433057      -0.448369
                                                         2.756113       0.582861
                                                         8.137097      -0.119531

                          1       8    5px               0.025000       0.000000
                                                         0.043421      -0.003264
                                                         0.116674       0.036049
                                                         0.270613      -0.457181
                                                         0.621282       0.365302
                                                         1.433057       0.671387
                                                         2.756113       0.445724
                                                         8.137097      -0.525030
                          1       8    5py               0.025000       0.000000
                                                         0.043421      -0.003264
                                                         0.116674       0.036049
                                                         0.270613      -0.457181
                                                         0.621282       0.365302
                                                         1.433057       0.671387
                                                         2.756113       0.445724
                                                         8.137097      -0.525030
                          1       8    5pz               0.025000       0.000000
                                                         0.043421      -0.003264
                                                         0.116674       0.036049
                                                         0.270613      -0.457181
                                                         0.621282       0.365302
                                                         1.433057       0.671387
                                                         2.756113       0.445724
                                                         8.137097      -0.525030

                          1       9    6px               0.025000       0.011663
                                                         0.043421       0.006274
                                                         0.116674      -0.000155
                                                         0.270613      -0.038821
                                                         0.621282       0.010153
                                                         1.433057       0.000000
                                                         2.756113       0.000000
                                                         8.137097       0.000000
                          1       9    6py               0.025000       0.011663
                                                         0.043421       0.006274
                                                         0.116674      -0.000155
                                                         0.270613      -0.038821
                                                         0.621282       0.010153
                                                         1.433057       0.000000
                                                         2.756113       0.000000
                                                         8.137097       0.000000
                          1       9    6pz               0.025000       0.011663
                                                         0.043421       0.006274
                                                         0.116674      -0.000155
                                                         0.270613      -0.038821
                                                         0.621282       0.010153
                                                         1.433057       0.000000
                                                         2.756113       0.000000
                                                         8.137097       0.000000

                          1      10    4dx2              0.025000       0.000000
                                                         0.043421       0.000324
                                                         0.116674       0.008235
                                                         0.270613       0.068282
                                                         0.621282       0.281131
                                                         1.433057       0.551967
                                                         2.756113      -0.209148
                                                         8.137097      -0.048772
                          1      10    4dxy              0.025000       0.000000
                                                         0.043421       0.000560
                                                         0.116674       0.014264
                                                         0.270613       0.118269
                                                         0.621282       0.486933
                                                         1.433057       0.956035
                                                         2.756113      -0.362255
                                                         8.137097      -0.084475
                          1      10    4dxz              0.025000       0.000000
                                                         0.043421       0.000560
                                                         0.116674       0.014264
                                                         0.270613       0.118269
                                                         0.621282       0.486933
                                                         1.433057       0.956035
                                                         2.756113      -0.362255
                                                         8.137097      -0.084475
                          1      10    4dy2              0.025000       0.000000
                                                         0.043421       0.000324
                                                         0.116674       0.008235
                                                         0.270613       0.068282
                                                         0.621282       0.281131
                                                         1.433057       0.551967
                                                         2.756113      -0.209148
                                                         8.137097      -0.048772
                          1      10    4dyz              0.025000       0.000000
                                                         0.043421       0.000560
                                                         0.116674       0.014264
                                                         0.270613       0.118269
                                                         0.621282       0.486933
                                                         1.433057       0.956035
                                                         2.756113      -0.362255
                                                         8.137097      -0.084475
                          1      10    4dz2              0.025000       0.000000
                                                         0.043421       0.000324
                                                         0.116674       0.008235
                                                         0.270613       0.068282
                                                         0.621282       0.281131
                                                         1.433057       0.551967
                                                         2.756113      -0.209148
                                                         8.137097      -0.048772

                          1      11    5dx2              0.025000       0.000000
                                                         0.043421       0.003224
                                                         0.116674       0.025521
                                                         0.270613      -0.011269
                                                         0.621282      -0.229179
                                                         1.433057      -0.207296
                                                         2.756113       0.097398
                                                         8.137097       0.105248
                          1      11    5dxy              0.025000       0.000000
                                                         0.043421       0.005585
                                                         0.116674       0.044204
                                                         0.270613      -0.019518
                                                         0.621282      -0.396950
                                                         1.433057      -0.359046
                                                         2.756113       0.168699
                                                         8.137097       0.182294
                          1      11    5dxz              0.025000       0.000000
                                                         0.043421       0.005585
                                                         0.116674       0.044204
                                                         0.270613      -0.019518
                                                         0.621282      -0.396950
                                                         1.433057      -0.359046
                                                         2.756113       0.168699
                                                         8.137097       0.182294
                          1      11    5dy2              0.025000       0.000000
                                                         0.043421       0.003224
                                                         0.116674       0.025521
                                                         0.270613      -0.011269
                                                         0.621282      -0.229179
                                                         1.433057      -0.207296
                                                         2.756113       0.097398
                                                         8.137097       0.105248
                          1      11    5dyz              0.025000       0.000000
                                                         0.043421       0.005585
                                                         0.116674       0.044204
                                                         0.270613      -0.019518
                                                         0.621282      -0.396950
                                                         1.433057      -0.359046
                                                         2.756113       0.168699
                                                         8.137097       0.182294
                          1      11    5dz2              0.025000       0.000000
                                                         0.043421       0.003224
                                                         0.116674       0.025521
                                                         0.270613      -0.011269
                                                         0.621282      -0.229179
                                                         1.433057      -0.207296
                                                         2.756113       0.097398
                                                         8.137097       0.105248

                          1      12    6dx2              0.025000       0.000000
                                                         0.043421       0.005971
                                                         0.116674      -0.033628
                                                         0.270613       0.209364
                                                         0.621282      -0.474577
                                                         1.433057      -1.791156
                                                         2.756113       0.506204
                                                         8.137097      -0.024304
                          1      12    6dxy              0.025000       0.000000
                                                         0.043421       0.010342
                                                         0.116674      -0.058245
                                                         0.270613       0.362629
                                                         0.621282      -0.821991
                                                         1.433057      -3.102372
                                                         2.756113       0.876771
                                                         8.137097      -0.042097
                          1      12    6dxz              0.025000       0.000000
                                                         0.043421       0.010342
                                                         0.116674      -0.058245
                                                         0.270613       0.362629
                                                         0.621282      -0.821991
                                                         1.433057      -3.102372
                                                         2.756113       0.876771
                                                         8.137097      -0.042097
                          1      12    6dy2              0.025000       0.000000
                                                         0.043421       0.005971
                                                         0.116674      -0.033628
                                                         0.270613       0.209364
                                                         0.621282      -0.474577
                                                         1.433057      -1.791156
                                                         2.756113       0.506204
                                                         8.137097      -0.024304
                          1      12    6dyz              0.025000       0.000000
                                                         0.043421       0.010342
                                                         0.116674      -0.058245
                                                         0.270613       0.362629
                                                         0.621282      -0.821991
                                                         1.433057      -3.102372
                                                         2.756113       0.876771
                                                         8.137097      -0.042097
                          1      12    6dz2              0.025000       0.000000
                                                         0.043421       0.005971
                                                         0.116674      -0.033628
                                                         0.270613       0.209364
                                                         0.621282      -0.474577
                                                         1.433057      -1.791156
                                                         2.756113       0.506204
                                                         8.137097      -0.024304

                          1      13    7dx2              0.025000       0.000001
                                                         0.043421       0.006331
                                                         0.116674       0.000735
                                                         0.270613       0.037439
                                                         0.621282      -0.202501
                                                         1.433057       0.000000
                                                         2.756113       0.000000
                                                         8.137097       0.000000
                          1      13    7dxy              0.025000       0.000002
                                                         0.043421       0.010966
                                                         0.116674       0.001273
                                                         0.270613       0.064846
                                                         0.621282      -0.350742
                                                         1.433057       0.000000
                                                         2.756113       0.000000
                                                         8.137097       0.000000
                          1      13    7dxz              0.025000       0.000002
                                                         0.043421       0.010966
                                                         0.116674       0.001273
                                                         0.270613       0.064846
                                                         0.621282      -0.350742
                                                         1.433057       0.000000
                                                         2.756113       0.000000
                                                         8.137097       0.000000
                          1      13    7dy2              0.025000       0.000001
                                                         0.043421       0.006331
                                                         0.116674       0.000735
                                                         0.270613       0.037439
                                                         0.621282      -0.202501
                                                         1.433057       0.000000
                                                         2.756113       0.000000
                                                         8.137097       0.000000
                          1      13    7dyz              0.025000       0.000002
                                                         0.043421       0.010966
                                                         0.116674       0.001273
                                                         0.270613       0.064846
                                                         0.621282      -0.350742
                                                         1.433057       0.000000
                                                         2.756113       0.000000
                                                         8.137097       0.000000
                          1      13    7dz2              0.025000       0.000001
                                                         0.043421       0.006331
                                                         0.116674       0.000735
                                                         0.270613       0.037439
                                                         0.621282      -0.202501
                                                         1.433057       0.000000
                                                         2.756113       0.000000
                                                         8.137097       0.000000

                          1      14    5fx3              0.025000       0.000000
                                                         0.043421      -0.000040
                                                         0.116674       0.000257
                                                         0.270613      -0.047752
                                                         0.621282      -0.211763
                                                         1.433057      -0.364708
                                                         2.756113       0.024508
                                                         8.137097       0.311640
                          1      14    5fx2y             0.025000       0.000000
                                                         0.043421      -0.000089
                                                         0.116674       0.000575
                                                         0.270613      -0.106776
                                                         0.621282      -0.473516
                                                         1.433057      -0.815513
                                                         2.756113       0.054803
                                                         8.137097       0.696849
                          1      14    5fx2z             0.025000       0.000000
                                                         0.043421      -0.000089
                                                         0.116674       0.000575
                                                         0.270613      -0.106776
                                                         0.621282      -0.473516
                                                         1.433057      -0.815513
                                                         2.756113       0.054803
                                                         8.137097       0.696849
                          1      14    5fxy2             0.025000       0.000000
                                                         0.043421      -0.000089
                                                         0.116674       0.000575
                                                         0.270613      -0.106776
                                                         0.621282      -0.473516
                                                         1.433057      -0.815513
                                                         2.756113       0.054803
                                                         8.137097       0.696849
                          1      14    5fxyz             0.025000       0.000000
                                                         0.043421      -0.000154
                                                         0.116674       0.000996
                                                         0.270613      -0.184942
                                                         0.621282      -0.820153
                                                         1.433057      -1.412510
                                                         2.756113       0.094921
                                                         8.137097       1.206977
                          1      14    5fxz2             0.025000       0.000000
                                                         0.043421      -0.000089
                                                         0.116674       0.000575
                                                         0.270613      -0.106776
                                                         0.621282      -0.473516
                                                         1.433057      -0.815513
                                                         2.756113       0.054803
                                                         8.137097       0.696849
                          1      14    5fy3              0.025000       0.000000
                                                         0.043421      -0.000040
                                                         0.116674       0.000257
                                                         0.270613      -0.047752
                                                         0.621282      -0.211763
                                                         1.433057      -0.364708
                                                         2.756113       0.024508
                                                         8.137097       0.311640
                          1      14    5fy2z             0.025000       0.000000
                                                         0.043421      -0.000089
                                                         0.116674       0.000575
                                                         0.270613      -0.106776
                                                         0.621282      -0.473516
                                                         1.433057      -0.815513
                                                         2.756113       0.054803
                                                         8.137097       0.696849
                          1      14    5fyz2             0.025000       0.000000
                                                         0.043421      -0.000089
                                                         0.116674       0.000575
                                                         0.270613      -0.106776
                                                         0.621282      -0.473516
                                                         1.433057      -0.815513
                                                         2.756113       0.054803
                                                         8.137097       0.696849
                          1      14    5fz3              0.025000       0.000000
                                                         0.043421      -0.000040
                                                         0.116674       0.000257
                                                         0.270613      -0.047752
                                                         0.621282      -0.211763
                                                         1.433057      -0.364708
                                                         2.756113       0.024508
                                                         8.137097       0.311640

                          1      15    6fx3              0.025000       0.000000
                                                         0.043421       0.000546
                                                         0.116674       0.005705
                                                         0.270613       0.026440
                                                         0.621282      -0.239213
                                                         1.433057      -0.378476
                                                         2.756113       0.087523
                                                         8.137097      -0.277243
                          1      15    6fx2y             0.025000       0.000000
                                                         0.043421       0.001221
                                                         0.116674       0.012757
                                                         0.270613       0.059121
                                                         0.621282      -0.534896
                                                         1.433057      -0.846298
                                                         2.756113       0.195707
                                                         8.137097      -0.619935
                          1      15    6fx2z             0.025000       0.000000
                                                         0.043421       0.001221
                                                         0.116674       0.012757
                                                         0.270613       0.059121
                                                         0.621282      -0.534896
                                                         1.433057      -0.846298
                                                         2.756113       0.195707
                                                         8.137097      -0.619935
                          1      15    6fxy2             0.025000       0.000000
                                                         0.043421       0.001221
                                                         0.116674       0.012757
                                                         0.270613       0.059121
                                                         0.621282      -0.534896
                                                         1.433057      -0.846298
                                                         2.756113       0.195707
                                                         8.137097      -0.619935
                          1      15    6fxyz             0.025000       0.000000
                                                         0.043421       0.002115
                                                         0.116674       0.022095
                                                         0.270613       0.102401
                                                         0.621282      -0.926468
                                                         1.433057      -1.465831
                                                         2.756113       0.338974
                                                         8.137097      -1.073758
                          1      15    6fxz2             0.025000       0.000000
                                                         0.043421       0.001221
                                                         0.116674       0.012757
                                                         0.270613       0.059121
                                                         0.621282      -0.534896
                                                         1.433057      -0.846298
                                                         2.756113       0.195707
                                                         8.137097      -0.619935
                          1      15    6fy3              0.025000       0.000000
                                                         0.043421       0.000546
                                                         0.116674       0.005705
                                                         0.270613       0.026440
                                                         0.621282      -0.239213
                                                         1.433057      -0.378476
                                                         2.756113       0.087523
                                                         8.137097      -0.277243
                          1      15    6fy2z             0.025000       0.000000
                                                         0.043421       0.001221
                                                         0.116674       0.012757
                                                         0.270613       0.059121
                                                         0.621282      -0.534896
                                                         1.433057      -0.846298
                                                         2.756113       0.195707
                                                         8.137097      -0.619935
                          1      15    6fyz2             0.025000       0.000000
                                                         0.043421       0.001221
                                                         0.116674       0.012757
                                                         0.270613       0.059121
                                                         0.621282      -0.534896
                                                         1.433057      -0.846298
                                                         2.756113       0.195707
                                                         8.137097      -0.619935
                          1      15    6fz3              0.025000       0.000000
                                                         0.043421       0.000546
                                                         0.116674       0.005705
                                                         0.270613       0.026440
                                                         0.621282      -0.239213
                                                         1.433057      -0.378476
                                                         2.756113       0.087523
                                                         8.137097      -0.277243

                          1      16    7fx3              0.025000       0.000008
                                                         0.043421       0.000374
                                                         0.116674       0.005573
                                                         0.270613      -0.028736
                                                         0.621282      -0.347936
                                                         1.433057       0.000000
                                                         2.756113       0.000000
                                                         8.137097       0.000000
                          1      16    7fx2y             0.025000       0.000018
                                                         0.043421       0.000835
                                                         0.116674       0.012462
                                                         0.270613      -0.064255
                                                         0.621282      -0.778009
                                                         1.433057       0.000000
                                                         2.756113       0.000000
                                                         8.137097       0.000000
                          1      16    7fx2z             0.025000       0.000018
                                                         0.043421       0.000835
                                                         0.116674       0.012462
                                                         0.270613      -0.064255
                                                         0.621282      -0.778009
                                                         1.433057       0.000000
                                                         2.756113       0.000000
                                                         8.137097       0.000000
                          1      16    7fxy2             0.025000       0.000018
                                                         0.043421       0.000835
                                                         0.116674       0.012462
                                                         0.270613      -0.064255
                                                         0.621282      -0.778009
                                                         1.433057       0.000000
                                                         2.756113       0.000000
[...]
 # Total charge                             24.000000                 -0.000000

 !-----------------------------------------------------------------------------!

 !-----------------------------------------------------------------------------!
                           Hirshfeld Charges

  #Atom  Element  Kind  Ref Charge     Population                    Net charge
      1       Zr     1      12.000         12.000                         0.000
      2       Zr     1      12.000         12.000                        -0.000

  Total Charge                                                           -0.000
 !-----------------------------------------------------------------------------!

 KPOINTS| Band Structure Calculation
 KPOINTS| Number of k-point sets                                               1
 KPOINTS| Number of added MOs/bands                                           -1
 KPOINTS| Number of k-points in set    1                                     148
 KPOINTS| In units of b-vector [2pi/Bohr]
 KPOINTS| Special point     1 not specifi     0.000000     0.000000     0.000000
 KPOINTS| Special point     2 not specifi     0.500000     0.000000     0.000000
 KPOINTS| Special point     3 not specifi     0.333333     0.333333     0.000000
 KPOINTS| Special point     4 not specifi     0.000000     0.000000     0.000000
 KPOINTS| Time for k-point line                                           26.728

 ENERGY| Total FORCE_EVAL ( QS ) energy [hartree]            -94.244922052584343

 -------------------------------------------------------------------------------
 -                                                                             -
 -                                DBCSR STATISTICS                             -
 -                                                                             -
 -------------------------------------------------------------------------------
 COUNTER                                    TOTAL       BLAS       SMM       ACC
 flops inhomo. stacks                           0       0.0%      0.0%      0.0%
 flops total                         0.000000E+00       0.0%      0.0%      0.0%
 flops max/rank                      0.000000E+00       0.0%      0.0%      0.0%
 matmuls inhomo. stacks                         0       0.0%      0.0%      0.0%
 matmuls total                                  0       0.0%      0.0%      0.0%
 number of processed stacks                     0       0.0%      0.0%      0.0%
 average stack size                                     0.0       0.0       0.0
 marketing flops                     0.000000E+00
 -------------------------------------------------------------------------------
 -                                                                             -
 -                      DBCSR MESSAGE PASSING PERFORMANCE                      -
 -                                                                             -
 -------------------------------------------------------------------------------
 ROUTINE             CALLS      AVE VOLUME [Bytes]
 MP_Bcast                1                     12.
 MP_Allreduce           19                     21.
 MP_Alltoall        791200                  13435.
 -------------------------------------------------------------------------------

 -------------------------------------------------------------------------------
 -                                                                             -
 -                                DBM STATISTICS                               -
 -                                                                             -
 -------------------------------------------------------------------------------
    M  x    N  x    K                                          COUNT     PERCENT
 -------------------------------------------------------------------------------

 -------------------------------------------------------------------------------
 -                                                                             -
 -                                GRID STATISTICS                              -
 -                                                                             -
 -------------------------------------------------------------------------------
 LP    KERNEL             BACKEND                              COUNT     PERCENT
 6     collocate general  CPU                                3293400      50.85%
 6     integrate general  CPU                                3183620      49.15%
 0     collocate general  CPU                                      4       0.00%
 0     integrate general  CPU                                      2       0.00%
 -------------------------------------------------------------------------------

 MEMORY| Estimated peak process memory [MiB]                                2059

 -------------------------------------------------------------------------------
 ----                             MULTIGRID INFO                            ----
 -------------------------------------------------------------------------------
 count for grid        1:         339202          cutoff [a.u.]          500.00
 count for grid        2:         355222          cutoff [a.u.]          166.67
 count for grid        3:         201576          cutoff [a.u.]           55.56
 count for grid        4:         325164          cutoff [a.u.]           18.52
 total gridlevel count  :        1221164

 -------------------------------------------------------------------------------
 -                                                                             -
 -                         MESSAGE PASSING PERFORMANCE                         -
 -                                                                             -
 -------------------------------------------------------------------------------

 ROUTINE             CALLS      AVE VOLUME [Bytes]
 MP_Group                6
 MP_Bcast           271020                   1848.
 MP_Allreduce       625935                     20.
 MP_Sync                 4
 MP_Alltoall           587                1018018.
 MP_SendRecv          1830                  70219.
 MP_ISendRecv         1755                  69145.
 MP_Wait            185231
 MP_comm_split           4
 MP_ISend           189340                   1623.
 MP_IRecv           315952                    975.
 -------------------------------------------------------------------------------


 -------------------------------------------------------------------------------
 -                                                                             -
 -                           R E F E R E N C E S                               -
 -                                                                             -
 -------------------------------------------------------------------------------
 
 CP2K version 2025.1 (Development Version), the CP2K developers group (2025).
 CP2K is freely available from https://www.cp2k.org/ .
 
 T. D. Kuehne, M. Iannuzzi, M. Del Ben, V. V. Rybkin, P. Seewald, F. Stein, T. 
 Laino, R. Z. Khaliullin, O. Schuett, F. Schiffmann, D. Golze, J. Wilhelm, S. 
 Chulkov, M. H. Bani-Hashemian, V. Weber, U. Borstnik, M. Taillefumier, A. S. 
 Jakobovits, A. Lazzaro, H. Pabst, T. Mueller, R. Schade, M. Guidon, S. 
 Andermatt, N. Holmberg, G. K. Schenter, A. Hehn, A. Bussy, F. Belleflamme, G. 
 Tabacchi, A. Gloess, M. Lass, I. Bethune, C. J. Mundy, C. Plessl, M. Watkins, 
 J. VandeVondele, M. Krack, J. Hutter.
 J. Chem. Phys. 152, 194103 (2020).
 CP2K: An electronic structure and molecular dynamics software package - 
 Quickstep: Efficient and accurate electronic structure calculations.
 https://doi.org/10.1063/5.0007045

 O. Schuett, P. Messmer, J. Hutter, J. VandeVondele.
 Electronic Structure Calculations on Graphics Processing Units, 173-190 (2016).
 GPU-Accelerated Sparse Matrix-Matrix Multiplication for Linear Scaling Density 
 Functional Theory.
 https://doi.org/10.1002/9781118670712.ch8

 J. Hutter, M. Iannuzzi, F. Schiffmann, J. VandeVondele.
 WIREs Comput Mol Sci. 4, 15-25 (2014).
 CP2K: atomistic simulations of condensed matter systems.
 https://doi.org/10.1002/wcms.1159

 U. Borstnik, J. VandeVondele, V. Weber, J. Hutter.
 Parallel Comput. 40, 47-58 (2014).
 Sparse matrix multiplication: The distributed block-compressed sparse row 
 library.
 https://doi.org/10.1016/j.parco.2014.03.012

 J. VandeVondele, J. Hutter.
 J. Chem. Phys. 127, 114105 (2007).
 Gaussian basis sets for accurate calculations on molecular systems in gas and 
 condensed phases.
 https://doi.org/10.1063/1.2770708

 J. VandeVondele, M. Krack, F. Mohamed, M. Parrinello, T. Chassaing, J. Hutter.
 Comput. Phys. Commun. 167, 103-128 (2005).
 QUICKSTEP: Fast and accurate density functional calculations using a mixed 
 Gaussian and plane waves approach.
 https://doi.org/10.1016/j.cpc.2004.12.014

 M. Krack.
 Theor. Chem. Acc. 114, 145-152 (2005).
 Pseudopotentials for H to Kr optimized for gradient-corrected 
 exchange-correlation functionals.
 https://doi.org/10.1007/s00214-005-0655-y

 M. Frigo, S. G. Johnson.
 Proc. IEEE 93, 216-231 (2005).
 The design and implementation of FFTW3.
 https://doi.org/10.1109/JPROC.2004.840301

 C. Hartwigsen, S. Goedecker, J. Hutter.
 Phys. Rev. B 58, 3641-3662 (1998).
 Relativistic separable dual-space Gaussian pseudopotentials from H to Rn.
 https://doi.org/10.1103/PhysRevB.58.3641

 G. Lippert, J. Hutter, M. Parrinello.
 Mol. Phys. 92, 477-487 (1997).
 A hybrid Gaussian and plane wave density functional scheme.
 https://doi.org/10.1080/002689797170220

 S. Goedecker, M. Teter, J. Hutter.
 Phys. Rev. B 54, 1703-1710 (1996).
 Separable dual-space Gaussian pseudopotentials.
 https://doi.org/10.1103/PhysRevB.54.1703

 J. P. Perdew, K. Burke, M. Ernzerhof.
 Phys. Rev. Lett. 77, 3865-3868 (1996).
 Generalized gradient approximation made simple.
 https://doi.org/10.1103/PhysRevLett.77.3865


 -------------------------------------------------------------------------------
 -                                                                             -
 -                                T I M I N G                                  -
 -                                                                             -
 -------------------------------------------------------------------------------
 SUBROUTINE                       CALLS  ASD         SELF TIME        TOTAL TIME
                                MAXIMUM       AVERAGE  MAXIMUM  AVERAGE  MAXIMUM
 CP2K                                 1  1.0    0.043    0.046 2255.403 2255.404
 qs_energies                          1  2.0    0.025    0.073 2255.063 2255.105
 scf_env_do_scf                       1  3.0    0.000    0.000 2199.695 2199.696
 scf_env_do_scf_inner_loop           29  4.0    0.181    0.193 2199.695 2199.695
 do_general_diag_kp                  30  5.9    0.170    0.228 2066.166 2090.223
 qs_scf_new_mos_kp                   29  5.0    0.000    0.000 2039.663 2063.692
 mp_alltoall_i22                 134440  8.6 1670.647 2049.079 1670.647 2049.079
 dbcsr_desymmetrize_deep          74940  7.4    1.178    1.704 1173.163 1436.152
 rskp_transform                   15144  6.9  237.758 1274.202  237.758 1274.202
 dbcsr_complete_redistribute      59500  8.0    2.134    2.757  530.052  645.524
 kpoint_density_transform            29  7.0    0.189    0.224  631.523  633.522
 copy_fm_to_dbcsr                 14848  8.0    0.090    0.114  511.546  626.461
 transform_dmat                    7424  8.0  115.342  621.612  115.342  621.612
 qs_ks_update_qs_env                 29  5.0    0.000    0.000   36.057  142.526
 rebuild_ks_matrix                   29  6.0    0.000    0.000   27.239  133.708
 qs_ks_build_kohn_sham_matrix        29  7.0    0.345    0.369   27.239  133.707
 sum_up_and_integrate                29  8.0    0.000    0.000   25.007  131.179
 integrate_v_rspace                  29  9.0    0.293    1.560   25.006  131.177
 grid_integrate_task_list            29 10.0   24.181  129.377   24.181  129.377
 transfer_rs2pw                     122  8.0    0.002    0.002   95.557  117.544
 transfer_rs2pw_500                  32  8.9    0.057    0.061   95.511  117.497
 mp_sendrecv_dv                    1830 10.0   95.487  117.474   95.487  117.474
 qs_rho_update_rho_low               30  5.0    0.000    0.000  103.358  103.469
 calculate_rho_elec                  30  6.0    0.033    0.146  103.358  103.469
 density_rs2pw                       30  7.0    0.001    0.001   84.081  103.370
 grid_collocate_task_list            30  7.0   19.243  102.507   19.243  102.507
 copy_dbcsr_to_fm                 44652  6.6    0.474    0.535   32.797   33.574
 qs_energies_init_hamiltonians        1  3.0    0.000    0.000   17.165   17.165
 cp_dbcsr_alloc_block_from_nbl    50450  5.0    2.788   15.027    3.064   16.292
 write_kpoints_restart               29  5.0    0.125    0.145   15.069   15.070
 build_core_hamiltonian_matrix        1  4.0    0.025    0.026    3.063   14.601
 qs_env_update_s_mstruct              1  4.0    0.000    0.000   12.055   14.340
 calculate_rho_core                   1  5.0    0.000    0.002   11.548   14.265
 dbcsr_dot                       416557  8.0    2.122    4.443   13.056   13.957
 mp_sum_d                        417209  9.0   11.611   13.534   11.611   13.534
 init_scf_run                         1  3.0    0.000    0.000    8.044    8.926
 scf_env_initial_rho_setup            1  4.0    0.000    0.000    8.044    8.926
 evaluate_core_matrix_traces         29  6.0    0.000    0.000    8.818    8.818
 calculate_ptrace_kp                 58  7.0    0.316    0.347    8.818    8.818
 mp_alltoall_d11v                403320  9.2    7.807    8.085    7.807    8.085
 cp_fm_start_copy_general         45136  7.3    0.823    1.151    7.805    8.070
 self_consistency_check              29  5.0    0.297    0.320    7.128    7.579
 cp_sm_mix                       208278  6.0    0.746    1.990    6.437    7.030
 mp_max_d                        208280  7.0    5.185    6.078    5.185    6.078
 dbcsr_finalize                  249704  7.4    0.849    1.020    5.521    6.061
 cp_fm_write_unformatted          14364  6.0    3.779    5.270    4.027    5.834
 build_core_ppnl                      1  5.0    1.109    5.728    1.109    5.728
 mixing_allocate                      1  3.0    0.041    0.042    1.030    5.566
 mp_allgather_i                   90272  8.3    5.107    5.465    5.107    5.465
 calculate_first_density_matrix       1  5.0    0.005    0.005    4.577    5.459
 calculate_atomic_block_dm            1  6.0    0.001    0.001    4.559    5.446
 mp_cart_sub                      89307  8.6    5.039    5.073    5.039    5.073
 mp_alltoall_i11v                253440  8.8    4.851    4.961    4.851    4.961
 hybrid_alltoall_any              74940  8.4    0.314    0.348    4.618    4.847
 dbcsr_create_new                660977  7.5    3.243    4.122    3.624    4.561
 cp_cfm_geeig_canon                 501  6.8    0.011    0.012    4.404    4.504
 dbcsr_copy                      438586  6.6    2.436    2.908    3.398    4.059
 cp_cfm_heevd                      1002  7.8    0.002    0.002    3.939    4.031
 cp_cfm_heevd_base                 1002  8.8    3.938    4.030    3.938    4.030
 dbcsr_merge_all                  59500 10.0    2.174    2.772    3.271    3.871
 mp_cart_create                   44659  8.6    2.712    2.840    2.712    2.840
 build_overlap_matrix_low             1  5.0    0.088    0.302    0.540    2.487
 build_kinetic_matrix_low             1  5.0    0.082    0.264    0.532    2.458
 calculate_ecore_overlap              1  4.0    0.000    0.000    1.893    2.326
 dbcsr_set                       549553  7.0    0.473    0.507    0.963    2.273
 qs_env_rebuild_rho                   1  5.0    0.000    0.000    0.481    2.261
 qs_rho_rebuild                       1  6.0    0.020    0.021    0.481    2.261
 mp_sum_iv                           24  5.3    1.762    2.169    1.762    2.169
 qs_scf_ensure_work_matrices          1  3.0    0.000    0.000    1.762    2.169
 dbcsr_iterator_start           1004459  8.5    1.617    1.758    1.859    1.980
 dbcsr_zero                      549553  8.0    0.490    1.780    0.490    1.780
 mp_send_dv                       14364  7.0    0.212    1.705    0.212    1.705
 build_core_ppl                       1  5.0    0.305    1.669    0.305    1.669
 copy_fm_to_dbcsr_bc              14848  9.0    0.200    0.243    0.822    1.630
 dbcsr_work_create               134440  8.6    0.857    0.932    1.363    1.582
 kpoint_set_mo_occupation            29  7.0    1.294    1.304    1.413    1.476
 mp_bcast_iv                     180570  8.3    1.287    1.420    1.287    1.420
 dbcsr_reserve_blocks             65298  7.1    0.322    1.320    0.343    1.375
 dbcsr_iterator_stop            1004459  8.5    1.042    1.068    1.249    1.288
 dbcsr_data_new                 1524802  9.4    0.884    1.182    0.884    1.182
 dbcsr_work_destroy_all          134440  9.6    0.659    0.711    1.012    1.104
 copy_dbcsr_to_fm_bc              44652  7.6    0.445    0.482    1.018    1.072
 dbcsr_data_release             2679141  9.7    0.889    1.014    0.889    1.014
 tree_to_linear_d                 59500 11.0    0.859    0.996    0.859    0.996
 fft_wrap_pw1pw2                    527 10.0    0.004    0.005    0.687    0.834
 dbcsr_destroy                   244421  7.0    0.396    0.436    0.708    0.808
 fft_wrap_pw1pw2_500                350 11.3    0.017    0.017    0.642    0.789
 fft3d_ps                           527 12.0    0.102    0.106    0.630    0.778
 potential_pw2rs                     29 10.0    0.001    0.001    0.532    0.679
 mp_alltoall_z22v                   527 14.0    0.490    0.638    0.490    0.638
 mp_recv_dv                       43092  7.0    0.035    0.564    0.035    0.564
 yz_to_x                            207 13.1    0.009    0.009    0.398    0.545
 kpoint_density_matrices             29  7.0    0.012    0.013    0.380    0.544
 parallel_gemm_fm                  1856  8.0    0.002    0.002    0.359    0.523
 parallel_gemm_fm_gemm             1856  9.0    0.002    0.002    0.358    0.521
 cp_fm_gemm                        1856 10.0    0.356    0.519    0.356    0.519
 quick_finalize                   74940  9.4    0.199    0.266    0.340    0.490
 cp_fm_finish_copy_general        16852  7.9    0.417    0.447    0.445    0.490
 mp_bcast_im                      90272  8.3    0.384    0.437    0.384    0.437
 cp_cfm_gemm                       1503  7.8    0.426    0.432    0.426    0.432
 dbcsr_copy_into_existing         22030  8.7    0.153    0.280    0.278    0.412
 mp_comm_free                    134000  8.6    0.333    0.386    0.333    0.386
 mp_waitall_1                    185231  8.4    0.175    0.354    0.175    0.354
 dbcsr_iterator_seek            1004459  9.5    0.242    0.323    0.242    0.323
 dbcsr_make_index_exist          660977  8.5    0.267    0.306    0.267    0.306
 kpoint_init_cell_index               2  3.5    0.253    0.287    0.294    0.299
 qs_vxc_create                       29  8.0    0.000    0.000    0.242    0.243
 xc_vxc_pw_create                    29  9.0    0.007    0.008    0.242    0.242
 -------------------------------------------------------------------------------

 The number of warnings for this run is : 1
 
 -------------------------------------------------------------------------------
  **** **** ******  **  PROGRAM ENDED AT                 2025-08-12 23:45:52.706
 ***** ** ***  *** **   PROGRAM RAN ON                              i03r04c05s04
 **    ****   ******    PROGRAM RAN BY                                   di38fab
 ***** **    ** ** **   PROGRAM PROCESS ID                               2291338
  **** **  *******  **  PROGRAM STOPPED IN /hppfs/scratch/04/di38fab/09_GTH/Delt
                                           a_Set/Zr/aug-TZVP-MOLOPT-GTH-tier-1/8
                                           x8x8
