 DBCSR| CPU Multiplication driver                                           BLAS (U)
 DBCSR| Multrec recursion limit                                              512 (U)
 DBCSR| Multiplication stack size                                           1000 (D)
 DBCSR| Maximum elements for images                                    UNLIMITED (U)
 DBCSR| Multiplicative factor virtual images                                   1 (U)
 DBCSR| Use multiplication densification                                       T (D)
 DBCSR| Multiplication size stacks                                             3 (U)
 DBCSR| Use memory pool for CPU allocation                                     F (U)
 DBCSR| Number of 3D layers                                               SINGLE (U)
 DBCSR| Use MPI memory allocation                                              F (U)
 DBCSR| Use RMA algorithm                                                      F (U)
 DBCSR| Use Communication thread                                               T (U)
 DBCSR| Communication thread load                                             45 (D)
 DBCSR| MPI: My process id                                                     0
 DBCSR| MPI: Number of processes                                               8
 DBCSR| OMP: Current number of threads                                        12
 DBCSR| OMP: Max number of threads                                            12
 DBCSR| Split modifier for TAS multiplication algorithm                  1.0E+00 (U)


  **** **** ******  **  PROGRAM STARTED AT               2025-08-03 16:52:30.976
 ***** ** ***  *** **   PROGRAM STARTED ON                          i01r04c02s02
 **    ****   ******    PROGRAM STARTED BY                               di38fab
 ***** **    ** ** **   PROGRAM PROCESS ID                               2450788
  **** **  *******  **  PROGRAM STARTED IN /hppfs/scratch/04/di38fab/09_GTH/Delt
                                           a_Set/In/DZVP-MOLOPT-PBE-GTH/8x8x8

 CP2K| version string:                 CP2K version 2025.1 (Development Version)
 CP2K| source code revision number:                                  git:3130539
 CP2K| cp2kflags: omp libint fftw3 libxc parallel scalapack max_contr=4         
 CP2K| is freely available from                            https://www.cp2k.org/
 CP2K| Program compiled at                         Tue Jun  3 16:14:32 CEST 2025
 CP2K| Program compiled on                                               login01
 CP2K| Program compiled for                                        Supermuc-foss
 CP2K| Data directory path                  /hppfs/work/pn36zo/di38fab/cp2k/data
 CP2K| Input file name                                                    GW.inp

 GLOBAL| Force Environment number                                              1
 GLOBAL| Basis set file name            /hppfs/scratch/04/di38fab/09_GTH/BASIS_A
 GLOBAL| Potential file name            /hppfs/work/pn36zo/di38fab/cp2k/data/GTH
 GLOBAL| MM Potential file name                                     MM_POTENTIAL
 GLOBAL| Coordinate file name                                             In.cif
 GLOBAL| Method name                                                        CP2K
 GLOBAL| Project name                                                       WSe2
 GLOBAL| Run type                                                         ENERGY
 GLOBAL| FFT library                                                       FFTW3
 GLOBAL| Diagonalization library                                       ScaLAPACK
 GLOBAL| Cholesky decomposition library                                ScaLAPACK
 GLOBAL| DGEMM library                                                      BLAS
 GLOBAL| Orthonormality check for eigenvectors                          DISABLED
 GLOBAL| Matrix multiplication library                                 ScaLAPACK
 GLOBAL| All-to-all communication in single precision                          F
 GLOBAL| FFTs using library dependent lengths                                  F
 GLOBAL| Grid backend                                                       AUTO
 GLOBAL| Global print level                                               MEDIUM
 GLOBAL| MPI I/O enabled                                                       T
 GLOBAL| Total number of message passing processes                             8
 GLOBAL| Number of threads for this process                                   12
 GLOBAL| This output is from process                                           0
 GLOBAL| OpenMP stack size per thread (OMP_STACKSIZE)                    default
 GLOBAL| CPU model name             Intel(R) Xeon(R) Platinum 8174 CPU @ 3.10GHz

 MEMORY| system memory details [Kb]
 MEMORY|                        rank 0           min           max       average
 MEMORY| MemTotal             98436664      98436660      98436664      98436662
 MEMORY| MemFree              84838884      84838884      85033460      84936172
 MEMORY| Buffers                     0             0             0             0
 MEMORY| Cached                2354128       2350244       2354128       2352186
 MEMORY| Slab                  1236708       1194804       1236708       1215756
 MEMORY| SReclaimable           270416        263640        270416        267028
 MEMORY| MemLikelyFree        87463428      87463428      87647344      87555386


 *** Fundamental physical constants (SI units) ***

 *** Literature: B. J. Mohr and B. N. Taylor,
 ***             CODATA recommended values of the fundamental physical
 ***             constants: 2006, Web Version 5.1
 ***             http://physics.nist.gov/constants

 Speed of light in vacuum [m/s]                             2.99792458000000E+08
 Magnetic constant or permeability of vacuum [N/A**2]       1.25663706143592E-06
 Electric constant or permittivity of vacuum [F/m]          8.85418781762039E-12
 Planck constant (h) [J*s]                                  6.62606896000000E-34
 Planck constant (h-bar) [J*s]                              1.05457162825177E-34
 Elementary charge [C]                                      1.60217648700000E-19
 Electron mass [kg]                                         9.10938215000000E-31
 Electron g factor [ ]                                     -2.00231930436220E+00
 Proton mass [kg]                                           1.67262163700000E-27
 Fine-structure constant                                    7.29735253760000E-03
 Rydberg constant [1/m]                                     1.09737315685270E+07
 Avogadro constant [1/mol]                                  6.02214179000000E+23
 Boltzmann constant [J/K]                                   1.38065040000000E-23
 Atomic mass unit [kg]                                      1.66053878200000E-27
 Bohr radius [m]                                            5.29177208590000E-11

 *** Conversion factors ***

 [u] -> [a.u.]                                              1.82288848426455E+03
 [Angstrom] -> [Bohr] = [a.u.]                              1.88972613288564E+00
 [a.u.] = [Bohr] -> [Angstrom]                              5.29177208590000E-01
 [a.u.] -> [s]                                              2.41888432650478E-17
 [a.u.] -> [fs]                                             2.41888432650478E-02
 [a.u.] -> [J]                                              4.35974393937059E-18
 [a.u.] -> [N]                                              8.23872205491840E-08
 [a.u.] -> [K]                                              3.15774647902944E+05
 [a.u.] -> [kJ/mol]                                         2.62549961709828E+03
 [a.u.] -> [kcal/mol]                                       6.27509468713739E+02
 [a.u.] -> [Pa]                                             2.94210107994716E+13
 [a.u.] -> [bar]                                            2.94210107994716E+08
 [a.u.] -> [atm]                                            2.90362800883016E+08
 [a.u.] -> [eV]                                             2.72113838565563E+01
 [a.u.] -> [Hz]                                             6.57968392072181E+15
 [a.u.] -> [1/cm] (wave numbers)                            2.19474631370540E+05
 [a.u./Bohr**2] -> [1/cm]                                   5.14048714338585E+03
 

 CELL_TOP| Volume [angstrom^3]:                                        55.078165
 CELL_TOP| Vector a [angstrom     3.298     0.000     0.000   |a| =     3.298410
 CELL_TOP| Vector b [angstrom     0.000     3.298     0.000   |b| =     3.298410
 CELL_TOP| Vector c [angstrom     0.000     0.000     5.063   |c| =     5.062560
 CELL_TOP| Angle (b,c), alpha [degree]:                                90.000000
 CELL_TOP| Angle (a,c), beta  [degree]:                                90.000000
 CELL_TOP| Angle (a,b), gamma [degree]:                                90.000000
 CELL_TOP| Numerically orthorhombic:                                         YES
 CELL_TOP| Periodicity                                                       XYZ

 CELL_CIF| Volume [angstrom^3]:                                        55.078165
 CELL_CIF| Vector a [angstrom     3.298     0.000     0.000   |a| =     3.298410
 CELL_CIF| Vector b [angstrom     0.000     3.298     0.000   |b| =     3.298410
 CELL_CIF| Vector c [angstrom     0.000     0.000     5.063   |c| =     5.062560
 CELL_CIF| Angle (b,c), alpha [degree]:                                90.000000
 CELL_CIF| Angle (a,c), beta  [degree]:                                90.000000
 CELL_CIF| Angle (a,b), gamma [degree]:                                90.000000
 CELL_CIF| Numerically orthorhombic:                                         YES
 CELL_CIF| Periodicity                                                       XYZ

 GENERATE|  Preliminary Number of Bonds generated:                             0
 GENERATE|  Achieved consistency in connectivity generation.

 CELL| Volume [angstrom^3]:                                            55.078165
 CELL| Vector a [angstrom]:       3.298     0.000     0.000   |a| =     3.298410
 CELL| Vector b [angstrom]:       0.000     3.298     0.000   |b| =     3.298410
 CELL| Vector c [angstrom]:       0.000     0.000     5.063   |c| =     5.062560
 CELL| Angle (b,c), alpha [degree]:                                    90.000000
 CELL| Angle (a,c), beta  [degree]:                                    90.000000
 CELL| Angle (a,b), gamma [degree]:                                    90.000000
 CELL| Numerically orthorhombic:                                             YES
 CELL| Periodicity                                                           XYZ

 CELL_REF| Volume [angstrom^3]:                                        55.078165
 CELL_REF| Vector a [angstrom     3.298     0.000     0.000   |a| =     3.298410
 CELL_REF| Vector b [angstrom     0.000     3.298     0.000   |b| =     3.298410
 CELL_REF| Vector c [angstrom     0.000     0.000     5.063   |c| =     5.062560
 CELL_REF| Angle (b,c), alpha [degree]:                                90.000000
 CELL_REF| Angle (a,c), beta  [degree]:                                90.000000
 CELL_REF| Angle (a,b), gamma [degree]:                                90.000000
 CELL_REF| Numerically orthorhombic:                                         YES
 CELL_REF| Periodicity                                                       XYZ

 *** WARNING in cryssym.F:180 :: Symmetry library SPGLIB not available ***


 *******************************************************************************
                                    Kpoints
 *******************************************************************************
 BRILLOUIN| K-point scheme                                        Monkhorst-Pack
 BRILLOUIN| K-Point grid                                             8    8    8
 BRILLOUIN| Accuracy in Symmetry determination                      0.100000E-05
 BRILLOUIN| K-Point point group symmetrization                               OFF
 BRILLOUIN| Wavefunction type                                            COMPLEX
 BRILLOUIN| List of Kpoints [2 Pi/Bohr]                                      256
 BRILLOUIN| Number           Weight            X              Y              Z
 BRILLOUIN|     1           0.00391       -0.43750       -0.43750       -0.43750
 BRILLOUIN|     2           0.00391       -0.43750       -0.43750       -0.31250
 BRILLOUIN|     3           0.00391       -0.43750       -0.43750       -0.18750
 BRILLOUIN|     4           0.00391       -0.43750       -0.43750       -0.06250
 BRILLOUIN|     5           0.00391       -0.43750       -0.43750        0.06250
 BRILLOUIN|     6           0.00391       -0.43750       -0.43750        0.18750
 BRILLOUIN|     7           0.00391       -0.43750       -0.43750        0.31250
 BRILLOUIN|     8           0.00391       -0.43750       -0.43750        0.43750
 BRILLOUIN|     9           0.00391       -0.43750       -0.31250       -0.43750
 BRILLOUIN|    10           0.00391       -0.43750       -0.31250       -0.31250
 BRILLOUIN|    11           0.00391       -0.43750       -0.31250       -0.18750
 BRILLOUIN|    12           0.00391       -0.43750       -0.31250       -0.06250
 BRILLOUIN|    13           0.00391       -0.43750       -0.31250        0.06250
 BRILLOUIN|    14           0.00391       -0.43750       -0.31250        0.18750
 BRILLOUIN|    15           0.00391       -0.43750       -0.31250        0.31250
 BRILLOUIN|    16           0.00391       -0.43750       -0.31250        0.43750
 BRILLOUIN|    17           0.00391       -0.43750       -0.18750       -0.43750
 BRILLOUIN|    18           0.00391       -0.43750       -0.18750       -0.31250
 BRILLOUIN|    19           0.00391       -0.43750       -0.18750       -0.18750
 BRILLOUIN|    20           0.00391       -0.43750       -0.18750       -0.06250
 BRILLOUIN|    21           0.00391       -0.43750       -0.18750        0.06250
 BRILLOUIN|    22           0.00391       -0.43750       -0.18750        0.18750
 BRILLOUIN|    23           0.00391       -0.43750       -0.18750        0.31250
 BRILLOUIN|    24           0.00391       -0.43750       -0.18750        0.43750
 BRILLOUIN|    25           0.00391       -0.43750       -0.06250       -0.43750
 BRILLOUIN|    26           0.00391       -0.43750       -0.06250       -0.31250
 BRILLOUIN|    27           0.00391       -0.43750       -0.06250       -0.18750
 BRILLOUIN|    28           0.00391       -0.43750       -0.06250       -0.06250
 BRILLOUIN|    29           0.00391       -0.43750       -0.06250        0.06250
 BRILLOUIN|    30           0.00391       -0.43750       -0.06250        0.18750
 BRILLOUIN|    31           0.00391       -0.43750       -0.06250        0.31250
 BRILLOUIN|    32           0.00391       -0.43750       -0.06250        0.43750
 BRILLOUIN|    33           0.00391       -0.43750        0.06250       -0.43750
 BRILLOUIN|    34           0.00391       -0.43750        0.06250       -0.31250
 BRILLOUIN|    35           0.00391       -0.43750        0.06250       -0.18750
 BRILLOUIN|    36           0.00391       -0.43750        0.06250       -0.06250
 BRILLOUIN|    37           0.00391       -0.43750        0.06250        0.06250
 BRILLOUIN|    38           0.00391       -0.43750        0.06250        0.18750
 BRILLOUIN|    39           0.00391       -0.43750        0.06250        0.31250
 BRILLOUIN|    40           0.00391       -0.43750        0.06250        0.43750
 BRILLOUIN|    41           0.00391       -0.43750        0.18750       -0.43750
 BRILLOUIN|    42           0.00391       -0.43750        0.18750       -0.31250
 BRILLOUIN|    43           0.00391       -0.43750        0.18750       -0.18750
 BRILLOUIN|    44           0.00391       -0.43750        0.18750       -0.06250
 BRILLOUIN|    45           0.00391       -0.43750        0.18750        0.06250
 BRILLOUIN|    46           0.00391       -0.43750        0.18750        0.18750
 BRILLOUIN|    47           0.00391       -0.43750        0.18750        0.31250
 BRILLOUIN|    48           0.00391       -0.43750        0.18750        0.43750
 BRILLOUIN|    49           0.00391       -0.43750        0.31250       -0.43750
 BRILLOUIN|    50           0.00391       -0.43750        0.31250       -0.31250
 BRILLOUIN|    51           0.00391       -0.43750        0.31250       -0.18750
 BRILLOUIN|    52           0.00391       -0.43750        0.31250       -0.06250
 BRILLOUIN|    53           0.00391       -0.43750        0.31250        0.06250
 BRILLOUIN|    54           0.00391       -0.43750        0.31250        0.18750
 BRILLOUIN|    55           0.00391       -0.43750        0.31250        0.31250
 BRILLOUIN|    56           0.00391       -0.43750        0.31250        0.43750
 BRILLOUIN|    57           0.00391       -0.43750        0.43750       -0.43750
 BRILLOUIN|    58           0.00391       -0.43750        0.43750       -0.31250
 BRILLOUIN|    59           0.00391       -0.43750        0.43750       -0.18750
 BRILLOUIN|    60           0.00391       -0.43750        0.43750       -0.06250
 BRILLOUIN|    61           0.00391       -0.43750        0.43750        0.06250
 BRILLOUIN|    62           0.00391       -0.43750        0.43750        0.18750
 BRILLOUIN|    63           0.00391       -0.43750        0.43750        0.31250
 BRILLOUIN|    64           0.00391       -0.43750        0.43750        0.43750
 BRILLOUIN|    65           0.00391       -0.31250       -0.43750       -0.43750
 BRILLOUIN|    66           0.00391       -0.31250       -0.43750       -0.31250
 BRILLOUIN|    67           0.00391       -0.31250       -0.43750       -0.18750
 BRILLOUIN|    68           0.00391       -0.31250       -0.43750       -0.06250
 BRILLOUIN|    69           0.00391       -0.31250       -0.43750        0.06250
 BRILLOUIN|    70           0.00391       -0.31250       -0.43750        0.18750
 BRILLOUIN|    71           0.00391       -0.31250       -0.43750        0.31250
 BRILLOUIN|    72           0.00391       -0.31250       -0.43750        0.43750
 BRILLOUIN|    73           0.00391       -0.31250       -0.31250       -0.43750
 BRILLOUIN|    74           0.00391       -0.31250       -0.31250       -0.31250
 BRILLOUIN|    75           0.00391       -0.31250       -0.31250       -0.18750
 BRILLOUIN|    76           0.00391       -0.31250       -0.31250       -0.06250
 BRILLOUIN|    77           0.00391       -0.31250       -0.31250        0.06250
 BRILLOUIN|    78           0.00391       -0.31250       -0.31250        0.18750
 BRILLOUIN|    79           0.00391       -0.31250       -0.31250        0.31250
 BRILLOUIN|    80           0.00391       -0.31250       -0.31250        0.43750
 BRILLOUIN|    81           0.00391       -0.31250       -0.18750       -0.43750
 BRILLOUIN|    82           0.00391       -0.31250       -0.18750       -0.31250
 BRILLOUIN|    83           0.00391       -0.31250       -0.18750       -0.18750
 BRILLOUIN|    84           0.00391       -0.31250       -0.18750       -0.06250
 BRILLOUIN|    85           0.00391       -0.31250       -0.18750        0.06250
 BRILLOUIN|    86           0.00391       -0.31250       -0.18750        0.18750
 BRILLOUIN|    87           0.00391       -0.31250       -0.18750        0.31250
 BRILLOUIN|    88           0.00391       -0.31250       -0.18750        0.43750
 BRILLOUIN|    89           0.00391       -0.31250       -0.06250       -0.43750
 BRILLOUIN|    90           0.00391       -0.31250       -0.06250       -0.31250
 BRILLOUIN|    91           0.00391       -0.31250       -0.06250       -0.18750
 BRILLOUIN|    92           0.00391       -0.31250       -0.06250       -0.06250
 BRILLOUIN|    93           0.00391       -0.31250       -0.06250        0.06250
 BRILLOUIN|    94           0.00391       -0.31250       -0.06250        0.18750
 BRILLOUIN|    95           0.00391       -0.31250       -0.06250        0.31250
 BRILLOUIN|    96           0.00391       -0.31250       -0.06250        0.43750
 BRILLOUIN|    97           0.00391       -0.31250        0.06250       -0.43750
 BRILLOUIN|    98           0.00391       -0.31250        0.06250       -0.31250
 BRILLOUIN|    99           0.00391       -0.31250        0.06250       -0.18750
 BRILLOUIN|   100           0.00391       -0.31250        0.06250       -0.06250
 BRILLOUIN|   101           0.00391       -0.31250        0.06250        0.06250
 BRILLOUIN|   102           0.00391       -0.31250        0.06250        0.18750
 BRILLOUIN|   103           0.00391       -0.31250        0.06250        0.31250
 BRILLOUIN|   104           0.00391       -0.31250        0.06250        0.43750
 BRILLOUIN|   105           0.00391       -0.31250        0.18750       -0.43750
 BRILLOUIN|   106           0.00391       -0.31250        0.18750       -0.31250
 BRILLOUIN|   107           0.00391       -0.31250        0.18750       -0.18750
 BRILLOUIN|   108           0.00391       -0.31250        0.18750       -0.06250
 BRILLOUIN|   109           0.00391       -0.31250        0.18750        0.06250
 BRILLOUIN|   110           0.00391       -0.31250        0.18750        0.18750
 BRILLOUIN|   111           0.00391       -0.31250        0.18750        0.31250
 BRILLOUIN|   112           0.00391       -0.31250        0.18750        0.43750
 BRILLOUIN|   113           0.00391       -0.31250        0.31250       -0.43750
 BRILLOUIN|   114           0.00391       -0.31250        0.31250       -0.31250
 BRILLOUIN|   115           0.00391       -0.31250        0.31250       -0.18750
 BRILLOUIN|   116           0.00391       -0.31250        0.31250       -0.06250
 BRILLOUIN|   117           0.00391       -0.31250        0.31250        0.06250
 BRILLOUIN|   118           0.00391       -0.31250        0.31250        0.18750
 BRILLOUIN|   119           0.00391       -0.31250        0.31250        0.31250
 BRILLOUIN|   120           0.00391       -0.31250        0.31250        0.43750
 BRILLOUIN|   121           0.00391       -0.31250        0.43750       -0.43750
 BRILLOUIN|   122           0.00391       -0.31250        0.43750       -0.31250
 BRILLOUIN|   123           0.00391       -0.31250        0.43750       -0.18750
 BRILLOUIN|   124           0.00391       -0.31250        0.43750       -0.06250
 BRILLOUIN|   125           0.00391       -0.31250        0.43750        0.06250
 BRILLOUIN|   126           0.00391       -0.31250        0.43750        0.18750
 BRILLOUIN|   127           0.00391       -0.31250        0.43750        0.31250
 BRILLOUIN|   128           0.00391       -0.31250        0.43750        0.43750
 BRILLOUIN|   129           0.00391       -0.18750       -0.43750       -0.43750
 BRILLOUIN|   130           0.00391       -0.18750       -0.43750       -0.31250
 BRILLOUIN|   131           0.00391       -0.18750       -0.43750       -0.18750
 BRILLOUIN|   132           0.00391       -0.18750       -0.43750       -0.06250
 BRILLOUIN|   133           0.00391       -0.18750       -0.43750        0.06250
 BRILLOUIN|   134           0.00391       -0.18750       -0.43750        0.18750
 BRILLOUIN|   135           0.00391       -0.18750       -0.43750        0.31250
 BRILLOUIN|   136           0.00391       -0.18750       -0.43750        0.43750
 BRILLOUIN|   137           0.00391       -0.18750       -0.31250       -0.43750
 BRILLOUIN|   138           0.00391       -0.18750       -0.31250       -0.31250
 BRILLOUIN|   139           0.00391       -0.18750       -0.31250       -0.18750
 BRILLOUIN|   140           0.00391       -0.18750       -0.31250       -0.06250
 BRILLOUIN|   141           0.00391       -0.18750       -0.31250        0.06250
 BRILLOUIN|   142           0.00391       -0.18750       -0.31250        0.18750
 BRILLOUIN|   143           0.00391       -0.18750       -0.31250        0.31250
 BRILLOUIN|   144           0.00391       -0.18750       -0.31250        0.43750
 BRILLOUIN|   145           0.00391       -0.18750       -0.18750       -0.43750
 BRILLOUIN|   146           0.00391       -0.18750       -0.18750       -0.31250
 BRILLOUIN|   147           0.00391       -0.18750       -0.18750       -0.18750
 BRILLOUIN|   148           0.00391       -0.18750       -0.18750       -0.06250
 BRILLOUIN|   149           0.00391       -0.18750       -0.18750        0.06250
 BRILLOUIN|   150           0.00391       -0.18750       -0.18750        0.18750
 BRILLOUIN|   151           0.00391       -0.18750       -0.18750        0.31250
 BRILLOUIN|   152           0.00391       -0.18750       -0.18750        0.43750
 BRILLOUIN|   153           0.00391       -0.18750       -0.06250       -0.43750
 BRILLOUIN|   154           0.00391       -0.18750       -0.06250       -0.31250
 BRILLOUIN|   155           0.00391       -0.18750       -0.06250       -0.18750
 BRILLOUIN|   156           0.00391       -0.18750       -0.06250       -0.06250
 BRILLOUIN|   157           0.00391       -0.18750       -0.06250        0.06250
 BRILLOUIN|   158           0.00391       -0.18750       -0.06250        0.18750
 BRILLOUIN|   159           0.00391       -0.18750       -0.06250        0.31250
 BRILLOUIN|   160           0.00391       -0.18750       -0.06250        0.43750
 BRILLOUIN|   161           0.00391       -0.18750        0.06250       -0.43750
 BRILLOUIN|   162           0.00391       -0.18750        0.06250       -0.31250
 BRILLOUIN|   163           0.00391       -0.18750        0.06250       -0.18750
 BRILLOUIN|   164           0.00391       -0.18750        0.06250       -0.06250
 BRILLOUIN|   165           0.00391       -0.18750        0.06250        0.06250
 BRILLOUIN|   166           0.00391       -0.18750        0.06250        0.18750
 BRILLOUIN|   167           0.00391       -0.18750        0.06250        0.31250
 BRILLOUIN|   168           0.00391       -0.18750        0.06250        0.43750
 BRILLOUIN|   169           0.00391       -0.18750        0.18750       -0.43750
 BRILLOUIN|   170           0.00391       -0.18750        0.18750       -0.31250
 BRILLOUIN|   171           0.00391       -0.18750        0.18750       -0.18750
 BRILLOUIN|   172           0.00391       -0.18750        0.18750       -0.06250
 BRILLOUIN|   173           0.00391       -0.18750        0.18750        0.06250
 BRILLOUIN|   174           0.00391       -0.18750        0.18750        0.18750
 BRILLOUIN|   175           0.00391       -0.18750        0.18750        0.31250
 BRILLOUIN|   176           0.00391       -0.18750        0.18750        0.43750
 BRILLOUIN|   177           0.00391       -0.18750        0.31250       -0.43750
 BRILLOUIN|   178           0.00391       -0.18750        0.31250       -0.31250
 BRILLOUIN|   179           0.00391       -0.18750        0.31250       -0.18750
 BRILLOUIN|   180           0.00391       -0.18750        0.31250       -0.06250
 BRILLOUIN|   181           0.00391       -0.18750        0.31250        0.06250
 BRILLOUIN|   182           0.00391       -0.18750        0.31250        0.18750
 BRILLOUIN|   183           0.00391       -0.18750        0.31250        0.31250
 BRILLOUIN|   184           0.00391       -0.18750        0.31250        0.43750
 BRILLOUIN|   185           0.00391       -0.18750        0.43750       -0.43750
 BRILLOUIN|   186           0.00391       -0.18750        0.43750       -0.31250
 BRILLOUIN|   187           0.00391       -0.18750        0.43750       -0.18750
 BRILLOUIN|   188           0.00391       -0.18750        0.43750       -0.06250
 BRILLOUIN|   189           0.00391       -0.18750        0.43750        0.06250
 BRILLOUIN|   190           0.00391       -0.18750        0.43750        0.18750
 BRILLOUIN|   191           0.00391       -0.18750        0.43750        0.31250
 BRILLOUIN|   192           0.00391       -0.18750        0.43750        0.43750
 BRILLOUIN|   193           0.00391       -0.06250       -0.43750       -0.43750
 BRILLOUIN|   194           0.00391       -0.06250       -0.43750       -0.31250
 BRILLOUIN|   195           0.00391       -0.06250       -0.43750       -0.18750
 BRILLOUIN|   196           0.00391       -0.06250       -0.43750       -0.06250
 BRILLOUIN|   197           0.00391       -0.06250       -0.43750        0.06250
 BRILLOUIN|   198           0.00391       -0.06250       -0.43750        0.18750
 BRILLOUIN|   199           0.00391       -0.06250       -0.43750        0.31250
 BRILLOUIN|   200           0.00391       -0.06250       -0.43750        0.43750
 BRILLOUIN|   201           0.00391       -0.06250       -0.31250       -0.43750
 BRILLOUIN|   202           0.00391       -0.06250       -0.31250       -0.31250
 BRILLOUIN|   203           0.00391       -0.06250       -0.31250       -0.18750
 BRILLOUIN|   204           0.00391       -0.06250       -0.31250       -0.06250
 BRILLOUIN|   205           0.00391       -0.06250       -0.31250        0.06250
 BRILLOUIN|   206           0.00391       -0.06250       -0.31250        0.18750
 BRILLOUIN|   207           0.00391       -0.06250       -0.31250        0.31250
 BRILLOUIN|   208           0.00391       -0.06250       -0.31250        0.43750
 BRILLOUIN|   209           0.00391       -0.06250       -0.18750       -0.43750
 BRILLOUIN|   210           0.00391       -0.06250       -0.18750       -0.31250
 BRILLOUIN|   211           0.00391       -0.06250       -0.18750       -0.18750
 BRILLOUIN|   212           0.00391       -0.06250       -0.18750       -0.06250
 BRILLOUIN|   213           0.00391       -0.06250       -0.18750        0.06250
 BRILLOUIN|   214           0.00391       -0.06250       -0.18750        0.18750
 BRILLOUIN|   215           0.00391       -0.06250       -0.18750        0.31250
 BRILLOUIN|   216           0.00391       -0.06250       -0.18750        0.43750
 BRILLOUIN|   217           0.00391       -0.06250       -0.06250       -0.43750
 BRILLOUIN|   218           0.00391       -0.06250       -0.06250       -0.31250
 BRILLOUIN|   219           0.00391       -0.06250       -0.06250       -0.18750
 BRILLOUIN|   220           0.00391       -0.06250       -0.06250       -0.06250
 BRILLOUIN|   221           0.00391       -0.06250       -0.06250        0.06250
 BRILLOUIN|   222           0.00391       -0.06250       -0.06250        0.18750
 BRILLOUIN|   223           0.00391       -0.06250       -0.06250        0.31250
 BRILLOUIN|   224           0.00391       -0.06250       -0.06250        0.43750
 BRILLOUIN|   225           0.00391       -0.06250        0.06250       -0.43750
 BRILLOUIN|   226           0.00391       -0.06250        0.06250       -0.31250
 BRILLOUIN|   227           0.00391       -0.06250        0.06250       -0.18750
 BRILLOUIN|   228           0.00391       -0.06250        0.06250       -0.06250
 BRILLOUIN|   229           0.00391       -0.06250        0.06250        0.06250
 BRILLOUIN|   230           0.00391       -0.06250        0.06250        0.18750
 BRILLOUIN|   231           0.00391       -0.06250        0.06250        0.31250
 BRILLOUIN|   232           0.00391       -0.06250        0.06250        0.43750
 BRILLOUIN|   233           0.00391       -0.06250        0.18750       -0.43750
 BRILLOUIN|   234           0.00391       -0.06250        0.18750       -0.31250
 BRILLOUIN|   235           0.00391       -0.06250        0.18750       -0.18750
 BRILLOUIN|   236           0.00391       -0.06250        0.18750       -0.06250
 BRILLOUIN|   237           0.00391       -0.06250        0.18750        0.06250
 BRILLOUIN|   238           0.00391       -0.06250        0.18750        0.18750
 BRILLOUIN|   239           0.00391       -0.06250        0.18750        0.31250
 BRILLOUIN|   240           0.00391       -0.06250        0.18750        0.43750
 BRILLOUIN|   241           0.00391       -0.06250        0.31250       -0.43750
 BRILLOUIN|   242           0.00391       -0.06250        0.31250       -0.31250
 BRILLOUIN|   243           0.00391       -0.06250        0.31250       -0.18750
 BRILLOUIN|   244           0.00391       -0.06250        0.31250       -0.06250
 BRILLOUIN|   245           0.00391       -0.06250        0.31250        0.06250
 BRILLOUIN|   246           0.00391       -0.06250        0.31250        0.18750
 BRILLOUIN|   247           0.00391       -0.06250        0.31250        0.31250
 BRILLOUIN|   248           0.00391       -0.06250        0.31250        0.43750
 BRILLOUIN|   249           0.00391       -0.06250        0.43750       -0.43750
 BRILLOUIN|   250           0.00391       -0.06250        0.43750       -0.31250
 BRILLOUIN|   251           0.00391       -0.06250        0.43750       -0.18750
 BRILLOUIN|   252           0.00391       -0.06250        0.43750       -0.06250
 BRILLOUIN|   253           0.00391       -0.06250        0.43750        0.06250
 BRILLOUIN|   254           0.00391       -0.06250        0.43750        0.18750
 BRILLOUIN|   255           0.00391       -0.06250        0.43750        0.31250
 BRILLOUIN|   256           0.00391       -0.06250        0.43750        0.43750
 *******************************************************************************

 *******************************************************************************
 *******************************************************************************
 **                                                                           **
 **     #####                         ##              ##                      **
 **    ##   ##            ##          ##              ##                      **
 **   ##     ##                       ##            ######                    **
 **   ##     ##  ##   ##  ##   #####  ##  ##   ####   ##    #####    #####    **
 **   ##     ##  ##   ##  ##  ##      ## ##   ##      ##   ##   ##  ##   ##   **
 **   ##  ## ##  ##   ##  ##  ##      ####     ###    ##   ######   ######    **
 **    ##  ###   ##   ##  ##  ##      ## ##      ##   ##   ##       ##        **
 **     #######   #####   ##   #####  ##  ##  ####    ##    #####   ##        **
 **           ##                                                    ##        **
 **                                                                           **
 **                                                ... make the atoms dance   **
 **                                                                           **
 **            Copyright (C) by CP2K developers group (2000-2025)             **
 **                      J. Chem. Phys. 152, 194103 (2020)                    **
 **                                                                           **
 *******************************************************************************

 DFT| Spin restricted Kohn-Sham (RKS) calculation                            RKS
 DFT| Multiplicity                                                             1
 DFT| Number of spin states                                                    1
 DFT| Charge                                                                   0
 DFT| Self-interaction correction (SIC)                                       NO
 DFT| Cutoffs: density                                              1.000000E-10
 DFT|          gradient                                             1.000000E-10
 DFT|          tau                                                  1.000000E-10
 DFT|          cutoff_smoothing_range                               0.000000E+00
 DFT| XC density smoothing                                                  NONE
 DFT| XC derivatives                                                          PW

 FUNCTIONAL| PBE:
 FUNCTIONAL| J.P.Perdew, K.Burke, M.Ernzerhof, Phys. Rev. Letter, vol. 77, n 18,
 FUNCTIONAL|  pp. 3865-3868, (1996) {spin unpolarized}                          


 QS| Method:                                                                 GPW
 QS| Density plane wave grid type                        NON-SPHERICAL FULLSPACE
 QS| Number of grid levels:                                                    4
 QS| Density cutoff [a.u.]:                                                500.0
 QS| Multi grid cutoff [a.u.]: 1) grid level                               500.0
 QS|                           2) grid level                               166.7
 QS|                           3) grid level                                55.6
 QS|                           4) grid level                                18.5
 QS| Grid level progression factor:                                          3.0
 QS| Relative density cutoff [a.u.]:                                        50.0
 QS| Interaction thresholds: eps_pgf_orb:                                1.0E-16
 QS|                         eps_filter_matrix:                          0.0E+00
 QS|                         eps_core_charge:                            1.0E-18
 QS|                         eps_rho_gspace:                             1.0E-16
 QS|                         eps_rho_rspace:                             1.0E-16
 QS|                         eps_gvg_rspace:                             1.0E-08
 QS|                         eps_ppl:                                    1.0E-02
 QS|                         eps_ppnl:                                   1.0E-10


 ATOMIC KIND INFORMATION

  1. Atomic kind: In                                    Number of atoms:       2

     Orbital Basis Set                                   DZVP-MOLOPT-GGA-GTH-q13

       Number of orbital shell sets:                                           1
       Number of orbital shells:                                               7
       Number of primitive Cartesian functions:                                6
       Number of Cartesian basis functions:                                   30
       Number of spherical basis functions:                                   25
       Norm type:                                                              2

       Normalised Cartesian orbitals:

                        Set   Shell   Orbital            Exponent    Coefficient

                          1       1    2s                2.943928      -0.029159
                                                         1.555923       0.036489
                                                         0.750747       0.063207
                                                         0.329011       0.007326
                                                         0.125227      -0.092927
                                                         0.045473      -0.034979

                          1       2    3s                2.943928      -0.178420
                                                         1.555923      -0.075206
                                                         0.750747       1.066086
                                                         0.329011      -0.558118
                                                         0.125227      -0.118966
                                                         0.045473       0.091763

                          1       3    3px               2.943928       0.018434
                                                         1.555923       0.003500
                                                         0.750747      -0.122966
                                                         0.329011       0.060016
                                                         0.125227       0.057367
                                                         0.045473       0.013778
                          1       3    3py               2.943928       0.018434
                                                         1.555923       0.003500
                                                         0.750747      -0.122966
                                                         0.329011       0.060016
                                                         0.125227       0.057367
                                                         0.045473       0.013778
                          1       3    3pz               2.943928       0.018434
                                                         1.555923       0.003500
                                                         0.750747      -0.122966
                                                         0.329011       0.060016
                                                         0.125227       0.057367
                                                         0.045473       0.013778

                          1       4    4px               2.943928       0.088789
                                                         1.555923       0.057077
                                                         0.750747      -0.622953
                                                         0.329011       0.415312
                                                         0.125227       0.036966
                                                         0.045473      -0.030103
                          1       4    4py               2.943928       0.088789
                                                         1.555923       0.057077
                                                         0.750747      -0.622953
                                                         0.329011       0.415312
                                                         0.125227       0.036966
                                                         0.045473      -0.030103
                          1       4    4pz               2.943928       0.088789
                                                         1.555923       0.057077
                                                         0.750747      -0.622953
                                                         0.329011       0.415312
                                                         0.125227       0.036966
                                                         0.045473      -0.030103

                          1       5    4dx2              2.943928       2.541053
                                                         1.555923       1.227521
                                                         0.750747       0.290116
                                                         0.329011       0.062062
                                                         0.125227       0.004511
                                                         0.045473       0.000652
                          1       5    4dxy              2.943928       4.401232
                                                         1.555923       2.126129
                                                         0.750747       0.502495
                                                         0.329011       0.107495
                                                         0.125227       0.007813
                                                         0.045473       0.001130
                          1       5    4dxz              2.943928       4.401232
                                                         1.555923       2.126129
                                                         0.750747       0.502495
                                                         0.329011       0.107495
                                                         0.125227       0.007813
                                                         0.045473       0.001130
                          1       5    4dy2              2.943928       2.541053
                                                         1.555923       1.227521
                                                         0.750747       0.290116
                                                         0.329011       0.062062
                                                         0.125227       0.004511
                                                         0.045473       0.000652
                          1       5    4dyz              2.943928       4.401232
                                                         1.555923       2.126129
                                                         0.750747       0.502495
                                                         0.329011       0.107495
                                                         0.125227       0.007813
                                                         0.045473       0.001130
                          1       5    4dz2              2.943928       2.541053
                                                         1.555923       1.227521
                                                         0.750747       0.290116
                                                         0.329011       0.062062
                                                         0.125227       0.004511
                                                         0.045473       0.000652

                          1       6    5dx2              2.943928      -1.261002
                                                         1.555923      -0.750682
                                                         0.750747      -0.290611
                                                         0.329011       0.091261
                                                         0.125227       0.017333
                                                         0.045473       0.003367
                          1       6    5dxy              2.943928      -2.184119
                                                         1.555923      -1.300219
                                                         0.750747      -0.503352
                                                         0.329011       0.158068
                                                         0.125227       0.030021
                                                         0.045473       0.005831
                          1       6    5dxz              2.943928      -2.184119
                                                         1.555923      -1.300219
                                                         0.750747      -0.503352
                                                         0.329011       0.158068
                                                         0.125227       0.030021
                                                         0.045473       0.005831
                          1       6    5dy2              2.943928      -1.261002
                                                         1.555923      -0.750682
                                                         0.750747      -0.290611
                                                         0.329011       0.091261
                                                         0.125227       0.017333
                                                         0.045473       0.003367
                          1       6    5dyz              2.943928      -2.184119
                                                         1.555923      -1.300219
                                                         0.750747      -0.503352
                                                         0.329011       0.158068
                                                         0.125227       0.030021
                                                         0.045473       0.005831
                          1       6    5dz2              2.943928      -1.261002
                                                         1.555923      -0.750682
                                                         0.750747      -0.290611
                                                         0.329011       0.091261
                                                         0.125227       0.017333
                                                         0.045473       0.003367

                          1       7    5fx3              2.943928      -0.104325
                                                         1.555923       0.160408
                                                         0.750747       0.063056
                                                         0.329011       0.083397
                                                         0.125227       0.003186
                                                         0.045473       0.000322
                          1       7    5fx2y             2.943928      -0.233277
                                                         1.555923       0.358683
                                                         0.750747       0.140997
                                                         0.329011       0.186481
                                                         0.125227       0.007124
                                                         0.045473       0.000720
                          1       7    5fx2z             2.943928      -0.233277
                                                         1.555923       0.358683
                                                         0.750747       0.140997
                                                         0.329011       0.186481
                                                         0.125227       0.007124
                                                         0.045473       0.000720
                          1       7    5fxy2             2.943928      -0.233277
                                                         1.555923       0.358683
                                                         0.750747       0.140997
                                                         0.329011       0.186481
                                                         0.125227       0.007124
                                                         0.045473       0.000720
                          1       7    5fxyz             2.943928      -0.404047
                                                         1.555923       0.621257
                                                         0.750747       0.244215
                                                         0.329011       0.322995
                                                         0.125227       0.012339
                                                         0.045473       0.001246
                          1       7    5fxz2             2.943928      -0.233277
                                                         1.555923       0.358683
                                                         0.750747       0.140997
                                                         0.329011       0.186481
                                                         0.125227       0.007124
                                                         0.045473       0.000720
                          1       7    5fy3              2.943928      -0.104325
                                                         1.555923       0.160408
                                                         0.750747       0.063056
                                                         0.329011       0.083397
                                                         0.125227       0.003186
                                                         0.045473       0.000322
                          1       7    5fy2z             2.943928      -0.233277
                                                         1.555923       0.358683
                                                         0.750747       0.140997
                                                         0.329011       0.186481
                                                         0.125227       0.007124
                                                         0.045473       0.000720
                          1       7    5fyz2             2.943928      -0.233277
                                                         1.555923       0.358683
                                                         0.750747       0.140997
                                                         0.329011       0.186481
                                                         0.125227       0.007124
                                                         0.045473       0.000720
                          1       7    5fz3              2.943928      -0.104325
                                                         1.555923       0.160408
                                                         0.750747       0.063056
                                                         0.329011       0.083397
                                                         0.125227       0.003186
                                                         0.045473       0.000322

       Atomic covalent radius [Angstrom]:                                  1.440

       Atomic van der Waals radius [Angstrom]:                             1.930

     GTH Potential information for                                   GTH-PBE-q13

       Description:                       Goedecker-Teter-Hutter pseudopotential
                                           Goedecker et al., PRB 54, 1703 (1996)
                                          Hartwigsen et al., PRB 58, 3641 (1998)
                                                      Krack, TCA 114, 145 (2005)

       Gaussian exponent of the core charge distribution:               1.779993
       Electronic configuration (s p d ...):                           2   1  10

       Parameters of the local part of the GTH pseudopotential:

                          rloc        C1          C2          C3          C4
                        0.530000    3.324785

       Parameters of the non-local part of the GTH (SOC) pseudopotential:

                   l      r(l)      h(i,j,l)
                                    k(i,j,l)
                   0    0.479495   11.117160   -6.573507    1.506863
                                   -6.573507   10.937275   -3.890704
                                    1.506863   -3.890704    3.088151
                   1    0.569933    4.700614   -2.217064
                                   -2.217064    2.623266
                                    0.341772   -0.541994
                                   -0.541994    0.641296
                   2    0.377069   -4.002288   -0.840128
                                   -0.840128    0.952616
                                   -0.077551    0.133279
                                    0.133279   -0.151124


 MOLECULE KIND INFORMATION


 All atoms are their own molecule, skipping detailed information


 TOTAL NUMBERS AND MAXIMUM NUMBERS

  Total number of            - Atomic kinds:                                   1
                             - Atoms:                                          2
                             - Shell sets:                                     2
                             - Shells:                                        14
                             - Primitive Cartesian functions:                 12
                             - Cartesian basis functions:                     60
                             - Spherical basis functions:                     50

  Maximum angular momentum of- Orbital basis functions:                        3
                             - Local part of the GTH pseudopotential:          0
                             - Non-local part of the GTH pseudopotential:      4


 MODULE QUICKSTEP: ATOMIC COORDINATES IN ANGSTROM

   Atom Kind Element         X             Y             Z       Z(eff)     Mass
      1    1 In   49      0.000000      0.000000      0.000000  13.0000 114.8180
      2    1 In   49      1.649205      1.649205      2.531280  13.0000 114.8180



 SCF PARAMETERS         Density guess:                                    ATOMIC
                        --------------------------------------------------------
                        max_scf:                                             500
                        max_scf_history:                                       0
                        max_diis:                                              4
                        --------------------------------------------------------
                        eps_scf:                                        1.00E-09
                        eps_scf_history:                                0.00E+00
                        eps_diis:                                       1.00E-01
                        eps_eigval:                                     1.00E-05
                        --------------------------------------------------------
                        level_shift [a.u.]:                             0.000000
                        added MOs                                        37    0
                        --------------------------------------------------------
                        Mixing method:                            BROYDEN_MIXING
                                                charge density mixing in g-space
                        --------------------------------------------------------
                        Smear method:                                FERMI_DIRAC
                        Electronic temperature [K]:                        300.0
                        Electronic temperature [a.u.]:                  9.50E-04
                        Accuracy threshold:                             1.00E-10
                        --------------------------------------------------------
                        No outer SCF

 PW_GRID| Information for grid number                                          1
 PW_GRID| Grid distributed over                                     8 processors
 PW_GRID| Real space group dimensions                                     8    1
 PW_GRID| the grid is blocked:                                                NO
 PW_GRID| Cutoff [a.u.]                                                    500.0
 PW_GRID| spherical cutoff:                                                   NO
 PW_GRID|   Bounds   1            -32      31                Points:          64
 PW_GRID|   Bounds   2            -32      31                Points:          64
 PW_GRID|   Bounds   3            -50      49                Points:         100
 PW_GRID| Volume element (a.u.^3)  0.9074E-03     Volume (a.u.^3)       371.6859
 PW_GRID| Grid span                                                    FULLSPACE
 PW_GRID|   Distribution                         Average         Max         Min
 PW_GRID|   G-Vectors                            51200.0       51200       51200
 PW_GRID|   G-Rays                                 800.0         800         800
 PW_GRID|   Real Space Points                    51200.0       51200       51200

 PW_GRID| Information for grid number                                          2
 PW_GRID| Number of the reference grid                                         1
 PW_GRID| Grid distributed over                                     8 processors
 PW_GRID| Real space group dimensions                                     8    1
 PW_GRID| the grid is blocked:                                                NO
 PW_GRID| Cutoff [a.u.]                                                    166.7
 PW_GRID| spherical cutoff:                                                   NO
 PW_GRID|   Bounds   1            -20      19                Points:          40
 PW_GRID|   Bounds   2            -20      19                Points:          40
 PW_GRID|   Bounds   3            -30      29                Points:          60
 PW_GRID| Volume element (a.u.^3)  0.3872E-02     Volume (a.u.^3)       371.6859
 PW_GRID| Grid span                                                    FULLSPACE
 PW_GRID|   Distribution                         Average         Max         Min
 PW_GRID|   G-Vectors                            12000.0       12120       11880
 PW_GRID|   G-Rays                                 300.0         303         297
 PW_GRID|   Real Space Points                    12000.0       12000       12000

 PW_GRID| Information for grid number                                          3
 PW_GRID| Number of the reference grid                                         1
 PW_GRID| Grid distributed over                                     8 processors
 PW_GRID| Real space group dimensions                                     8    1
 PW_GRID| the grid is blocked:                                                NO
 PW_GRID| Cutoff [a.u.]                                                     55.6
 PW_GRID| spherical cutoff:                                                   NO
 PW_GRID|   Bounds   1            -12      11                Points:          24
 PW_GRID|   Bounds   2            -12      11                Points:          24
 PW_GRID|   Bounds   3            -18      17                Points:          36
 PW_GRID| Volume element (a.u.^3)  0.1792E-01     Volume (a.u.^3)       371.6859
 PW_GRID| Grid span                                                    FULLSPACE
 PW_GRID|   Distribution                         Average         Max         Min
 PW_GRID|   G-Vectors                             2592.0        2640        2520
 PW_GRID|   G-Rays                                 108.0         110         105
 PW_GRID|   Real Space Points                     2592.0        2592        2592

 PW_GRID| Information for grid number                                          4
 PW_GRID| Number of the reference grid                                         1
 PW_GRID| Grid distributed over                                     8 processors
 PW_GRID| Real space group dimensions                                     8    1
 PW_GRID| the grid is blocked:                                                NO
 PW_GRID| Cutoff [a.u.]                                                     18.5
 PW_GRID| spherical cutoff:                                                   NO
 PW_GRID|   Bounds   1             -7       7                Points:          15
 PW_GRID|   Bounds   2             -7       7                Points:          15
 PW_GRID|   Bounds   3            -10       9                Points:          20
 PW_GRID| Volume element (a.u.^3)  0.8260E-01     Volume (a.u.^3)       371.6859
 PW_GRID| Grid span                                                    FULLSPACE
 PW_GRID|   Distribution                         Average         Max         Min
 PW_GRID|   G-Vectors                              562.5         585         555
 PW_GRID|   G-Rays                                  37.5          39          37
 PW_GRID|   Real Space Points                      562.5         600         300

 POISSON| Solver                                                        PERIODIC
 POISSON| Periodicity                                                        XYZ

 RS_GRID| Information for grid number                                          1
 RS_GRID|   Bounds   1            -32      31                Points:          64
 RS_GRID|   Bounds   2            -32      31                Points:          64
 RS_GRID|   Bounds   3            -50      49                Points:         100
 RS_GRID| Real space fully replicated
 RS_GRID| Group size                                                           1

 RS_GRID| Information for grid number                                          2
 RS_GRID|   Bounds   1            -20      19                Points:          40
 RS_GRID|   Bounds   2            -20      19                Points:          40
 RS_GRID|   Bounds   3            -30      29                Points:          60
 RS_GRID| Real space fully replicated
 RS_GRID| Group size                                                           1

 RS_GRID| Information for grid number                                          3
 RS_GRID|   Bounds   1            -12      11                Points:          24
 RS_GRID|   Bounds   2            -12      11                Points:          24
 RS_GRID|   Bounds   3            -18      17                Points:          36
 RS_GRID| Real space fully replicated
 RS_GRID| Group size                                                           1

 RS_GRID| Information for grid number                                          4
 RS_GRID|   Bounds   1             -7       7                Points:          15
 RS_GRID|   Bounds   2             -7       7                Points:          15
 RS_GRID|   Bounds   3            -10       9                Points:          20
 RS_GRID| Real space fully replicated
 RS_GRID| Group size                                                           1

 Number of electrons:                                                         26
 Number of occupied orbitals:                                                 13
 Number of molecular orbitals:                                                50

 Number of orbital functions:                                                 50
 Number of independent orbital functions:                                     50

 Extrapolation method: initial_guess

 Atomic guess: The first density matrix is obtained in terms of atomic orbitals
               and electronic configurations assigned to each atomic kind

 Guess for atomic kind: In

 Electronic structure
    Total number of core electrons                                         36.00
    Total number of valence electrons                                      13.00
    Total number of electrons                                              49.00
    Multiplicity                                                   not specified
    S   [  2.00  2.00  2.00  2.00] 2.00
    P   [  6.00  6.00  6.00] 1.00
    D   [ 10.00]10.00


 *******************************************************************************
                  Iteration          Convergence                     Energy [au]
 *******************************************************************************
                          1         8.14332                     -53.269038729023
                          2         1.38293                     -55.705975688737
                          3        0.115825                     -55.984146737747
                          4        0.154129E-02                 -55.985277240962
                          5        0.258378E-04                 -55.985277495238
                          6        0.121088E-04                 -55.985277495321
                          7        0.101869E-06                 -55.985277495344

 Energy components [Hartree]           Total Energy ::          -55.985277495344
                                        Band Energy ::           -7.178867806229
                                     Kinetic Energy ::           44.133053837200
                                   Potential Energy ::         -100.118331332544
                                      Virial (-V/T) ::            2.268556617493
                                        Core Energy ::          -99.856855968642
                                          XC Energy ::           -7.171639632799
                                     Coulomb Energy ::           51.043218106096
                       Total Pseudopotential Energy ::         -144.077633091462
                       Local Pseudopotential Energy ::         -122.097770475250
                    Nonlocal Pseudopotential Energy ::          -21.979862616212
                                        Confinement ::            0.877232856211

 Orbital energies  State     L     Occupation   Energy[a.u.]          Energy[eV]

                       1     0          2.000      -0.282798           -7.695330

                       1     1          1.000      -0.062191           -1.692309

                       1     2         10.000      -0.655108          -17.826396


 Total Electron Density at R=0:                                         0.000002
 Re-scaling the density matrix to get the right number of electrons
                  # Electrons              Trace(P)               Scaling factor
                           26                26.000                        1.000


 SCF WAVEFUNCTION OPTIMIZATION

  Step     Update method      Time    Convergence         Total energy    Change
  ------------------------------------------------------------------------------
     1 NoMix/Diag. 0.10E+00   12.0     1.97116128      -112.7475354761 -1.13E+02
     2 Broy./Diag. 0.10E+00   12.6     0.00136955      -112.9044031933 -1.57E-01
     3 Broy./Diag. 0.10E+00   12.6     0.02524119      -112.7439775320  1.60E-01
     4 Broy./Diag. 0.10E+00   12.6     0.00047107      -112.5863134239  1.58E-01
     5 Broy./Diag. 0.10E+00   12.6     0.00275088      -112.6181618856 -3.18E-02
     6 Broy./Diag. 0.10E+00   12.6     0.00005927      -112.6318792281 -1.37E-02
     7 Broy./Diag. 0.10E+00   12.6     0.00036320      -112.6317611730  1.18E-04
     8 Broy./Diag. 0.10E+00   12.6     0.00002692      -112.6310763741  6.85E-04
     9 Broy./Diag. 0.10E+00   12.6     0.00024925      -112.6301476163  9.29E-04
    10 Broy./Diag. 0.10E+00   12.6     0.00000142      -112.6298178084  3.30E-04
    11 Broy./Diag. 0.10E+00   12.6     0.00000518      -112.6299906321 -1.73E-04
    12 Broy./Diag. 0.10E+00   12.6     0.00000037      -112.6300408059 -5.02E-05
    13 Broy./Diag. 0.10E+00   12.6     0.00000418      -112.6300365768  4.23E-06
    14 Broy./Diag. 0.10E+00   12.6     0.00000005      -112.6300348239  1.75E-06
    15 Broy./Diag. 0.10E+00   12.6     0.00000030      -112.6300367530 -1.93E-06
    16 Broy./Diag. 0.10E+00   12.6     0.00000013      -112.6300384851 -1.73E-06
    17 Broy./Diag. 0.10E+00   12.6     0.00000033      -112.6300363430  2.14E-06
    18 Broy./Diag. 0.10E+00   12.7     0.00000001      -112.6300351079  1.24E-06
    19 Broy./Diag. 0.10E+00   12.6     0.00000001      -112.6300353260 -2.18E-07
    20 Broy./Diag. 0.10E+00   12.6     0.00000002      -112.6300355027 -1.77E-07
    21 Broy./Diag. 0.10E+00   12.7     7.3026E-09      -112.6300355790 -7.63E-08
    22 Broy./Diag. 0.10E+00   12.6     5.1401E-09      -112.6300355535  2.55E-08
    23 Broy./Diag. 0.10E+00   12.6     2.6469E-09      -112.6300355272  2.62E-08
    24 Broy./Diag. 0.10E+00   12.6     7.8684E-10      -112.6300355304 -3.12E-09

  *** SCF run converged in    24 steps ***


  Electronic density on regular grids:        -26.0000000000        0.0000000000
  Core density on regular grids:               26.0000000000       -0.0000000000
  Total charge density on r-space grids:        0.0000000000
  Total charge density g-space grids:           0.0000000000

  Overlap energy of the core charge distribution:               0.00000000000001
  Self energy of the core charge distribution:               -179.90196154636004
  Core Hamiltonian energy:                                     56.20431157073547
  Hartree energy:                                              25.91575974183716
  Exchange-correlation energy:                                -14.84799511721744
  Electronic entropic energy:                                  -0.00015017936769
  Fermi energy:                                                 0.23658254886723

  Total energy:                                              -112.63003553037245

 !-----------------------------------------------------------------------------!
                     Mulliken Population Analysis

 #  Atom  Element  Kind  Atomic population                           Net charge
       1     In       1         13.000000                              0.000000
       2     In       1         13.000000                             -0.000000
 # Total charge                             26.000000                  0.000000

 !-----------------------------------------------------------------------------!

 !-----------------------------------------------------------------------------!
                           Hirshfeld Charges

  #Atom  Element  Kind  Ref Charge     Population                    Net charge
      1       In     1      13.000         13.000                        -0.000
      2       In     1      13.000         13.000                         0.000

  Total Charge                                                            0.000
 !-----------------------------------------------------------------------------!

 KPOINTS| Band Structure Calculation
 KPOINTS| Number of k-point sets                                               1
 KPOINTS| Number of added MOs/bands                                           -1
 KPOINTS| Number of k-points in set    1                                     197
 KPOINTS| In units of b-vector [2pi/Bohr]
 KPOINTS| Special point     1 not specifi     0.000000     0.000000     0.000000
 KPOINTS| Special point     2 not specifi     0.000000     0.000000     0.500000
 KPOINTS| Special point     3 not specifi     0.250000     0.250000     0.250000
 KPOINTS| Special point     4 not specifi     0.000000     0.500000     0.000000
 KPOINTS| Special point     5 not specifi     0.000000     0.000000     0.000000
 KPOINTS| Time for k-point line                                            7.007

 ENERGY| Total FORCE_EVAL ( QS ) energy [hartree]           -112.630035530372453

 -------------------------------------------------------------------------------
 -                                                                             -
 -                                DBCSR STATISTICS                             -
 -                                                                             -
 -------------------------------------------------------------------------------
 COUNTER                                    TOTAL       BLAS       SMM       ACC
 flops inhomo. stacks                           0       0.0%      0.0%      0.0%
 flops total                         0.000000E+00       0.0%      0.0%      0.0%
 flops max/rank                      0.000000E+00       0.0%      0.0%      0.0%
 matmuls inhomo. stacks                         0       0.0%      0.0%      0.0%
 matmuls total                                  0       0.0%      0.0%      0.0%
 number of processed stacks                     0       0.0%      0.0%      0.0%
 average stack size                                     0.0       0.0       0.0
 marketing flops                     0.000000E+00
 -------------------------------------------------------------------------------
 -                                                                             -
 -                      DBCSR MESSAGE PASSING PERFORMANCE                      -
 -                                                                             -
 -------------------------------------------------------------------------------
 ROUTINE             CALLS      AVE VOLUME [Bytes]
 MP_Bcast                1                     12.
 MP_Allreduce           19                     21.
 MP_Alltoall        580468                   4082.
 -------------------------------------------------------------------------------

 -------------------------------------------------------------------------------
 -                                                                             -
 -                                DBM STATISTICS                               -
 -                                                                             -
 -------------------------------------------------------------------------------
    M  x    N  x    K                                          COUNT     PERCENT
 -------------------------------------------------------------------------------

 -------------------------------------------------------------------------------
 -                                                                             -
 -                                GRID STATISTICS                              -
 -                                                                             -
 -------------------------------------------------------------------------------
 LP    KERNEL             BACKEND                              COUNT     PERCENT
 6     collocate ortho    CPU                                 589200      51.02%
 6     integrate ortho    CPU                                 565632      48.98%
 0     collocate general  CPU                                      4       0.00%
 0     integrate general  CPU                                      2       0.00%
 -------------------------------------------------------------------------------

 MEMORY| Estimated peak process memory [MiB]                                 543

 -------------------------------------------------------------------------------
 ----                             MULTIGRID INFO                            ----
 -------------------------------------------------------------------------------
 count for grid        1:           8002          cutoff [a.u.]          500.00
 count for grid        2:          33536          cutoff [a.u.]          166.67
 count for grid        3:          29590          cutoff [a.u.]           55.56
 count for grid        4:          23308          cutoff [a.u.]           18.52
 total gridlevel count  :          94436

 -------------------------------------------------------------------------------
 -                                                                             -
 -                         MESSAGE PASSING PERFORMANCE                         -
 -                                                                             -
 -------------------------------------------------------------------------------

 ROUTINE             CALLS      AVE VOLUME [Bytes]
 MP_Group                6
 MP_Bcast           227021                  20014.
 MP_Allreduce       190935                     23.
 MP_Sync                 4
 MP_Alltoall           437                2284019.
 MP_SendRecv           714                 138212.
 MP_ISendRecv          679                 135638.
 MP_Wait            156683
 MP_comm_split           4
 MP_ISend           166796                    607.
 MP_IRecv           263564                    377.
 -------------------------------------------------------------------------------


 -------------------------------------------------------------------------------
 -                                                                             -
 -                           R E F E R E N C E S                               -
 -                                                                             -
 -------------------------------------------------------------------------------
 
 CP2K version 2025.1 (Development Version), the CP2K developers group (2025).
 CP2K is freely available from https://www.cp2k.org/ .
 
 T. D. Kuehne, M. Iannuzzi, M. Del Ben, V. V. Rybkin, P. Seewald, F. Stein, T. 
 Laino, R. Z. Khaliullin, O. Schuett, F. Schiffmann, D. Golze, J. Wilhelm, S. 
 Chulkov, M. H. Bani-Hashemian, V. Weber, U. Borstnik, M. Taillefumier, A. S. 
 Jakobovits, A. Lazzaro, H. Pabst, T. Mueller, R. Schade, M. Guidon, S. 
 Andermatt, N. Holmberg, G. K. Schenter, A. Hehn, A. Bussy, F. Belleflamme, G. 
 Tabacchi, A. Gloess, M. Lass, I. Bethune, C. J. Mundy, C. Plessl, M. Watkins, 
 J. VandeVondele, M. Krack, J. Hutter.
 J. Chem. Phys. 152, 194103 (2020).
 CP2K: An electronic structure and molecular dynamics software package - 
 Quickstep: Efficient and accurate electronic structure calculations.
 https://doi.org/10.1063/5.0007045

 O. Schuett, P. Messmer, J. Hutter, J. VandeVondele.
 Electronic Structure Calculations on Graphics Processing Units, 173-190 (2016).
 GPU-Accelerated Sparse Matrix-Matrix Multiplication for Linear Scaling Density 
 Functional Theory.
 https://doi.org/10.1002/9781118670712.ch8

 J. Hutter, M. Iannuzzi, F. Schiffmann, J. VandeVondele.
 WIREs Comput Mol Sci. 4, 15-25 (2014).
 CP2K: atomistic simulations of condensed matter systems.
 https://doi.org/10.1002/wcms.1159

 U. Borstnik, J. VandeVondele, V. Weber, J. Hutter.
 Parallel Comput. 40, 47-58 (2014).
 Sparse matrix multiplication: The distributed block-compressed sparse row 
 library.
 https://doi.org/10.1016/j.parco.2014.03.012

 J. VandeVondele, J. Hutter.
 J. Chem. Phys. 127, 114105 (2007).
 Gaussian basis sets for accurate calculations on molecular systems in gas and 
 condensed phases.
 https://doi.org/10.1063/1.2770708

 J. VandeVondele, M. Krack, F. Mohamed, M. Parrinello, T. Chassaing, J. Hutter.
 Comput. Phys. Commun. 167, 103-128 (2005).
 QUICKSTEP: Fast and accurate density functional calculations using a mixed 
 Gaussian and plane waves approach.
 https://doi.org/10.1016/j.cpc.2004.12.014

 M. Krack.
 Theor. Chem. Acc. 114, 145-152 (2005).
 Pseudopotentials for H to Kr optimized for gradient-corrected 
 exchange-correlation functionals.
 https://doi.org/10.1007/s00214-005-0655-y

 M. Frigo, S. G. Johnson.
 Proc. IEEE 93, 216-231 (2005).
 The design and implementation of FFTW3.
 https://doi.org/10.1109/JPROC.2004.840301

 C. Hartwigsen, S. Goedecker, J. Hutter.
 Phys. Rev. B 58, 3641-3662 (1998).
 Relativistic separable dual-space Gaussian pseudopotentials from H to Rn.
 https://doi.org/10.1103/PhysRevB.58.3641

 G. Lippert, J. Hutter, M. Parrinello.
 Mol. Phys. 92, 477-487 (1997).
 A hybrid Gaussian and plane wave density functional scheme.
 https://doi.org/10.1080/002689797170220

 S. Goedecker, M. Teter, J. Hutter.
 Phys. Rev. B 54, 1703-1710 (1996).
 Separable dual-space Gaussian pseudopotentials.
 https://doi.org/10.1103/PhysRevB.54.1703

 J. P. Perdew, K. Burke, M. Ernzerhof.
 Phys. Rev. Lett. 77, 3865-3868 (1996).
 Generalized gradient approximation made simple.
 https://doi.org/10.1103/PhysRevLett.77.3865


 -------------------------------------------------------------------------------
 -                                                                             -
 -                                T I M I N G                                  -
 -                                                                             -
 -------------------------------------------------------------------------------
 SUBROUTINE                       CALLS  ASD         SELF TIME        TOTAL TIME
                                MAXIMUM       AVERAGE  MAXIMUM  AVERAGE  MAXIMUM
 CP2K                                 1  1.0    0.022    0.024  321.218  321.218
 qs_energies                          1  2.0    0.012    0.036  319.901  319.926
 scf_env_do_scf                       1  3.0    0.000    0.000  306.936  306.937
 scf_env_do_scf_inner_loop           24  4.0    0.054    0.059  306.936  306.936
 do_general_diag_kp                  25  5.9    0.138    0.167  285.785  289.866
 qs_scf_new_mos_kp                   24  5.0    0.000    0.000  278.832  282.913
 mp_alltoall_i22                  98924  8.7  217.899  267.299  217.899  267.299
 dbcsr_desymmetrize_deep          56000  7.4    0.826    0.979  160.203  195.497
 rskp_transform                   12682  6.9   30.892  167.326   30.892  167.326
 dbcsr_complete_redistribute      42924  8.1    1.368    1.567   74.173   88.222
 kpoint_density_transform            24  7.0    0.083    0.096   80.440   80.685
 copy_fm_to_dbcsr                 12288  8.0    0.072    0.081   65.091   78.939
 transform_dmat                    6144  8.0   13.889   75.771   13.889   75.771
 qs_ks_update_qs_env                 24  5.0    0.000    0.000    7.189   25.064
 rebuild_ks_matrix                   24  6.0    0.000    0.000    5.308   23.183
 qs_ks_build_kohn_sham_matrix        24  7.0    0.104    0.108    5.307   23.183
 sum_up_and_integrate                24  8.0    0.000    0.000    4.350   22.176
 integrate_v_rspace                  24  9.0    0.044    0.232    4.349   22.175
 grid_integrate_task_list            24 10.0    4.094   21.782    4.094   21.782
 transfer_rs2pw                     102  8.0    0.001    0.001   14.886   18.341
 transfer_rs2pw_500                  27  8.9    0.041    0.043   14.850   18.305
 mp_sendrecv_dv                     714 10.0   14.833   18.288   14.833   18.288
 qs_rho_update_rho_low               25  5.0    0.000    0.000   15.743   15.785
 calculate_rho_elec                  25  6.0    0.016    0.042   15.743   15.785
 density_rs2pw                       25  7.0    0.001    0.001   12.780   15.703
 grid_collocate_task_list            25  7.0    2.946   15.441    2.946   15.441
 copy_dbcsr_to_fm                 30636  6.8    0.301    0.335   14.692   14.934
 cp_dbcsr_alloc_block_from_nbl    18598  5.0    0.730    3.703    0.784    3.905
 write_kpoints_restart               24  5.0    0.023    0.029    3.795    3.795
 dbcsr_finalize                  141392  7.9    0.488    0.525    3.381    3.601
 qs_energies_init_hamiltonians        1  3.0    0.000    0.000    3.514    3.514
 cp_fm_start_copy_general         37652  7.3    0.525    0.778    3.212    3.272
 mp_alltoall_d11v                296772  9.3    2.914    3.079    2.914    3.079
 dbcsr_dot                       126529  8.0    0.545    0.834    2.676    2.884
 build_core_hamiltonian_matrix        1  4.0    0.009    0.010    0.657    2.842
 qs_env_update_s_mstruct              1  4.0    0.000    0.000    2.337    2.753
 calculate_rho_core                   1  5.0    0.001    0.002    2.197    2.726
 mp_sum_d                        127139  9.0    2.263    2.658    2.263    2.658
 mp_cart_sub                      61274  8.8    2.565    2.584    2.565    2.584
 cp_cfm_geeig_canon                 965  6.4    0.006    0.007    2.347    2.355
 cp_cfm_heevd                      1930  7.4    0.002    0.002    2.204    2.209
 cp_cfm_heevd_base                 1930  8.4    2.202    2.207    2.202    2.207
 dbcsr_merge_all                  42924 10.1    1.111    1.317    1.920    2.123
 hybrid_alltoall_any              56000  8.4    0.219    0.236    1.945    2.072
 evaluate_core_matrix_traces         24  6.0    0.000    0.000    1.881    1.881
 calculate_ptrace_kp                 48  7.0    0.093    0.096    1.881    1.881
 init_scf_run                         1  3.0    0.000    0.000    1.555    1.761
 scf_env_initial_rho_setup            1  4.0    0.000    0.000    1.555    1.761
 mp_alltoall_i11v                184772  8.9    1.682    1.711    1.682    1.711
 mp_allgather_i                   75304  8.3    1.348    1.476    1.348    1.476
 mp_cart_create                   30643  8.8    1.399    1.454    1.399    1.454
 dbcsr_copy                      141452  6.7    0.789    0.856    1.186    1.401
 cp_fm_write_unformatted           5272  6.0    1.030    1.303    1.042    1.355
 self_consistency_check              24  5.0    0.089    0.092    1.258    1.314
 mixing_allocate                      1  3.0    0.015    0.015    0.261    1.151
 cp_sm_mix                        63264  6.0    0.179    0.339    1.076    1.146
 dbcsr_create_new                287000  7.7    0.870    0.931    1.057    1.141
 create_qs_kind_set                   1  2.0    0.000    0.000    1.131    1.131
 read_qs_kind                         1  3.0    0.619    0.626    1.130    1.131
 calculate_first_density_matrix       1  5.0    0.002    0.002    0.900    1.107
 calculate_atomic_block_dm            1  6.0    0.001    0.001    0.895    1.102
 dbcsr_work_create                98924  8.7    0.578    0.606    0.943    1.033
 mp_bcast_iv                     150764  8.3    0.909    1.025    0.909    1.025
 dbcsr_iterator_start            463051  8.7    0.791    0.805    0.909    0.917
 mp_max_d                         63266  7.0    0.747    0.856    0.747    0.856
 dbcsr_data_new                 1088029  9.5    0.645    0.754    0.645    0.754
 dbcsr_work_destroy_all           98924  9.7    0.469    0.473    0.708    0.712
 copy_dbcsr_to_fm_bc              30636  7.8    0.291    0.306    0.654    0.665
 tree_to_linear_d                 42924 11.1    0.644    0.656    0.644    0.656
 build_core_ppnl                      1  5.0    0.137    0.651    0.137    0.651
 build_overlap_matrix_low             1  5.0    0.026    0.065    0.146    0.626
 build_kinetic_matrix_low             1  5.0    0.025    0.063    0.145    0.624
 dbcsr_iterator_stop             463051  8.7    0.514    0.524    0.611    0.623
 calculate_ecore_overlap              1  4.0    0.000    0.000    0.490    0.603
 copy_fm_to_dbcsr_bc              12288  9.0    0.157    0.174    0.538    0.588
 dbcsr_data_release             1663080  9.9    0.554    0.586    0.554    0.586
 parser_read_line                135711  4.0    0.044    0.046    0.571    0.574
 qs_env_rebuild_rho                   1  5.0    0.000    0.000    0.129    0.573
 qs_rho_rebuild                       1  6.0    0.007    0.008    0.129    0.573
 mp_sum_iv                           24  5.3    0.446    0.549    0.446    0.549
 qs_scf_ensure_work_matrices          1  3.0    0.000    0.000    0.446    0.549
 parser_read_line_low               155  5.2    0.061    0.309    0.527    0.531
 fft_wrap_pw1pw2                    437 10.0    0.003    0.004    0.475    0.519
 broadcast_input_information        155  6.2    0.101    0.105    0.466    0.505
 dbcsr_destroy                   160472  7.6    0.256    0.278    0.460    0.500
 kpoint_set_mo_occupation            24  7.0    0.454    0.455    0.471    0.477
 fft_wrap_pw1pw2_500                290 11.3    0.025    0.027    0.432    0.475
 dbcsr_set                       210729  7.3    0.182    0.190    0.286    0.446
 fft3d_ps                           437 12.0    0.141    0.145    0.401    0.444
 mp_bcast_im                      75304  8.3    0.278    0.319    0.278    0.319
 dbcsr_copy_into_existing         14924  9.3    0.110    0.232    0.192    0.318
 quick_finalize                   56000  9.4    0.140    0.179    0.233    0.314
 build_core_ppl                       1  5.0    0.061    0.303    0.061    0.303
 mp_bcast_i_src                     620  7.2    0.249    0.286    0.249    0.286
 qs_vxc_create                       24  8.0    0.000    0.000    0.283    0.283
 xc_vxc_pw_create                    24  9.0    0.011    0.011    0.282    0.283
 mp_alltoall_z22v                   437 14.0    0.226    0.272    0.226    0.272
 dbcsr_reserve_blocks             30886  8.0    0.097    0.241    0.113    0.269
 mp_waitall_1                    156683  8.3    0.134    0.267    0.134    0.267
 dbcsr_zero                      210729  8.3    0.104    0.257    0.104    0.257
 potential_pw2rs                     24 10.0    0.001    0.001    0.211    0.254
 mp_comm_free                     91953  8.7    0.208    0.239    0.208    0.239
 gspace_mixing                       23  5.0    0.009    0.009    0.220    0.220
 cp_fm_finish_copy_general        16148  7.6    0.145    0.168    0.166    0.202
 yz_to_x                            197 12.8    0.011    0.011    0.139    0.185
 xc_pw_derive                       144 11.0    0.000    0.000    0.183    0.185
 broyden_mixing                      23  6.0    0.173    0.176    0.178    0.179
 kpoint_density_matrices             24  7.0    0.010    0.010    0.155    0.168
 parallel_gemm_fm                  3072  8.0    0.003    0.003    0.142    0.155
 parallel_gemm_fm_gemm             3072  9.0    0.003    0.003    0.139    0.152
 xc_rho_set_and_dset_create          24 10.0    0.008    0.008    0.149    0.151
 cp_fm_gemm                        3072 10.0    0.136    0.149    0.136    0.149
 dbcsr_iterator_seek             463051  9.7    0.118    0.145    0.118    0.145
 dbcsr_make_index_exist          287000  8.7    0.124    0.143    0.124    0.143
 cp_cfm_gemm                       2895  7.4    0.129    0.132    0.129    0.132
 dbcsr_sort_indices              129810 10.7    0.070    0.129    0.070    0.129
 xc_pw_divergence                    24 10.0    0.000    0.000    0.120    0.123
 x_to_yz                            240 13.2    0.020    0.022    0.117    0.119
 mp_bcast_am_src                    155  7.2    0.101    0.107    0.115    0.118
 transfer_pw2rs                      97 11.0    0.001    0.001    0.111    0.111
 dbcsr_reserve_all_blocks         12288 10.0    0.018    0.022    0.084    0.097
 merge_index                      42924 11.1    0.082    0.091    0.082    0.091
 transfer_pw2rs_500                  25 11.8    0.043    0.048    0.078    0.081
 mp_irecv_iv                     150608  8.3    0.009    0.074    0.009    0.074
 mp_isend_dv                      37652  8.3    0.061    0.069    0.061    0.069
 dbcsr_switch_data_area           56000 10.4    0.051    0.052    0.066    0.067
 topology_control                     1  2.0    0.000    0.000    0.066    0.067
 scf_post_calculation_gpw             1  3.0    0.000    0.000    0.060    0.060
 write_available_results              1  4.0    0.000    0.000    0.060    0.060
 write_mo_free_results                1  5.0    0.001    0.001    0.060    0.060
 cp_fm_cleanup_copy_general       26900  7.0    0.035    0.038    0.054    0.059
 qs_create_task_list                  1  5.0    0.000    0.000    0.011    0.057
 generate_qs_task_list                1  6.0    0.008    0.044    0.011    0.057
 kpoint_init_cell_index               2  3.5    0.037    0.047    0.052    0.054
 mp_recv_dv                       15816  7.0    0.007    0.052    0.007    0.052
 mp_isend_iv                      86096  8.3    0.014    0.052    0.014    0.052
 dbcsr_data_copy_aa2              42924 10.9    0.025    0.047    0.025    0.047
 read_cell_cif                        2  4.5    0.002    0.005    0.046    0.047
 xc_functional_eval                  24 11.0    0.000    0.000    0.044    0.046
 pbe_lda_eval                        24 12.0    0.044    0.045    0.044    0.045
 coordinate_control                   1  3.0    0.001    0.001    0.039    0.039
 coordinate_control_READ_COORDI       1  4.0    0.000    0.000    0.039    0.039
 read_coordinate_cif                  1  5.0    0.002    0.002    0.039    0.039
 dbcsr_distribution_new           42926  8.4    0.030    0.038    0.030    0.038
 qs_init_subsys                       1  2.0    0.002    0.002    0.037    0.037
 dbcsr_get_data_size_used         98924  9.7    0.032    0.037    0.032    0.037
 mp_irecv_im2                     75304  8.3    0.004    0.036    0.004    0.036
 qs_env_setup                         1  3.0    0.000    0.000    0.034    0.035
 qs_env_rebuild_pw_env                2  3.5    0.000    0.000    0.034    0.034
 mp_comm_size                    127435  9.0    0.031    0.034    0.031    0.034
 pw_env_rebuild                       1  5.0    0.001    0.001    0.033    0.034
 -------------------------------------------------------------------------------

 The number of warnings for this run is : 1
 
 -------------------------------------------------------------------------------
  **** **** ******  **  PROGRAM ENDED AT                 2025-08-03 16:57:52.520
 ***** ** ***  *** **   PROGRAM RAN ON                              i01r04c02s02
 **    ****   ******    PROGRAM RAN BY                                   di38fab
 ***** **    ** ** **   PROGRAM PROCESS ID                               2450788
  **** **  *******  **  PROGRAM STOPPED IN /hppfs/scratch/04/di38fab/09_GTH/Delt
                                           a_Set/In/DZVP-MOLOPT-PBE-GTH/8x8x8
