 DBCSR| CPU Multiplication driver                                           BLAS (U)
 DBCSR| Multrec recursion limit                                              512 (U)
 DBCSR| Multiplication stack size                                           1000 (D)
 DBCSR| Maximum elements for images                                    UNLIMITED (U)
 DBCSR| Multiplicative factor virtual images                                   1 (U)
 DBCSR| Use multiplication densification                                       T (D)
 DBCSR| Multiplication size stacks                                             3 (U)
 DBCSR| Use memory pool for CPU allocation                                     F (U)
 DBCSR| Number of 3D layers                                               SINGLE (U)
 DBCSR| Use MPI memory allocation                                              F (U)
 DBCSR| Use RMA algorithm                                                      F (U)
 DBCSR| Use Communication thread                                               T (U)
 DBCSR| Communication thread load                                             45 (D)
 DBCSR| MPI: My process id                                                     0
 DBCSR| MPI: Number of processes                                               8
 DBCSR| OMP: Current number of threads                                        12
 DBCSR| OMP: Max number of threads                                            12
 DBCSR| Split modifier for TAS multiplication algorithm                  1.0E+00 (U)


  **** **** ******  **  PROGRAM STARTED AT               2025-08-04 02:48:36.536
 ***** ** ***  *** **   PROGRAM STARTED ON                          i04r11c03s06
 **    ****   ******    PROGRAM STARTED BY                               di38fab
 ***** **    ** ** **   PROGRAM PROCESS ID                               4128464
  **** **  *******  **  PROGRAM STARTED IN /hppfs/scratch/04/di38fab/09_GTH/Delt
                                           a_Set/Te/TZV2P-MOLOPT-PBE-GTH/8x8x8

 CP2K| version string:                 CP2K version 2025.1 (Development Version)
 CP2K| source code revision number:                                  git:3130539
 CP2K| cp2kflags: omp libint fftw3 libxc parallel scalapack max_contr=4         
 CP2K| is freely available from                            https://www.cp2k.org/
 CP2K| Program compiled at                         Tue Jun  3 16:14:32 CEST 2025
 CP2K| Program compiled on                                               login01
 CP2K| Program compiled for                                        Supermuc-foss
 CP2K| Data directory path                  /hppfs/work/pn36zo/di38fab/cp2k/data
 CP2K| Input file name                                                    GW.inp

 GLOBAL| Force Environment number                                              1
 GLOBAL| Basis set file name            /hppfs/scratch/04/di38fab/09_GTH/BASIS_A
 GLOBAL| Potential file name            /hppfs/work/pn36zo/di38fab/cp2k/data/GTH
 GLOBAL| MM Potential file name                                     MM_POTENTIAL
 GLOBAL| Coordinate file name                                             Te.cif
 GLOBAL| Method name                                                        CP2K
 GLOBAL| Project name                                                       WSe2
 GLOBAL| Run type                                                         ENERGY
 GLOBAL| FFT library                                                       FFTW3
 GLOBAL| Diagonalization library                                       ScaLAPACK
 GLOBAL| Cholesky decomposition library                                ScaLAPACK
 GLOBAL| DGEMM library                                                      BLAS
 GLOBAL| Orthonormality check for eigenvectors                          DISABLED
 GLOBAL| Matrix multiplication library                                 ScaLAPACK
 GLOBAL| All-to-all communication in single precision                          F
 GLOBAL| FFTs using library dependent lengths                                  F
 GLOBAL| Grid backend                                                       AUTO
 GLOBAL| Global print level                                               MEDIUM
 GLOBAL| MPI I/O enabled                                                       T
 GLOBAL| Total number of message passing processes                             8
 GLOBAL| Number of threads for this process                                   12
 GLOBAL| This output is from process                                           0
 GLOBAL| OpenMP stack size per thread (OMP_STACKSIZE)                    default
 GLOBAL| CPU model name             Intel(R) Xeon(R) Platinum 8174 CPU @ 3.10GHz

 MEMORY| system memory details [Kb]
 MEMORY|                        rank 0           min           max       average
 MEMORY| MemTotal             98436664      98436664      98436664      98436664
 MEMORY| MemFree              84551296      84438156      84551296      84494726
 MEMORY| Buffers                     0             0             0             0
 MEMORY| Cached                2378996       2369808       2378996       2374402
 MEMORY| Slab                  1298440       1296512       1298440       1297476
 MEMORY| SReclaimable           298980        283460        298980        291220
 MEMORY| MemLikelyFree        87229272      87091424      87229272      87160348


 *** Fundamental physical constants (SI units) ***

 *** Literature: B. J. Mohr and B. N. Taylor,
 ***             CODATA recommended values of the fundamental physical
 ***             constants: 2006, Web Version 5.1
 ***             http://physics.nist.gov/constants

 Speed of light in vacuum [m/s]                             2.99792458000000E+08
 Magnetic constant or permeability of vacuum [N/A**2]       1.25663706143592E-06
 Electric constant or permittivity of vacuum [F/m]          8.85418781762039E-12
 Planck constant (h) [J*s]                                  6.62606896000000E-34
 Planck constant (h-bar) [J*s]                              1.05457162825177E-34
 Elementary charge [C]                                      1.60217648700000E-19
 Electron mass [kg]                                         9.10938215000000E-31
 Electron g factor [ ]                                     -2.00231930436220E+00
 Proton mass [kg]                                           1.67262163700000E-27
 Fine-structure constant                                    7.29735253760000E-03
 Rydberg constant [1/m]                                     1.09737315685270E+07
 Avogadro constant [1/mol]                                  6.02214179000000E+23
 Boltzmann constant [J/K]                                   1.38065040000000E-23
 Atomic mass unit [kg]                                      1.66053878200000E-27
 Bohr radius [m]                                            5.29177208590000E-11

 *** Conversion factors ***

 [u] -> [a.u.]                                              1.82288848426455E+03
 [Angstrom] -> [Bohr] = [a.u.]                              1.88972613288564E+00
 [a.u.] = [Bohr] -> [Angstrom]                              5.29177208590000E-01
 [a.u.] -> [s]                                              2.41888432650478E-17
 [a.u.] -> [fs]                                             2.41888432650478E-02
 [a.u.] -> [J]                                              4.35974393937059E-18
 [a.u.] -> [N]                                              8.23872205491840E-08
 [a.u.] -> [K]                                              3.15774647902944E+05
 [a.u.] -> [kJ/mol]                                         2.62549961709828E+03
 [a.u.] -> [kcal/mol]                                       6.27509468713739E+02
 [a.u.] -> [Pa]                                             2.94210107994716E+13
 [a.u.] -> [bar]                                            2.94210107994716E+08
 [a.u.] -> [atm]                                            2.90362800883016E+08
 [a.u.] -> [eV]                                             2.72113838565563E+01
 [a.u.] -> [Hz]                                             6.57968392072181E+15
 [a.u.] -> [1/cm] (wave numbers)                            2.19474631370540E+05
 [a.u./Bohr**2] -> [1/cm]                                   5.14048714338585E+03
 

 CELL_TOP| Volume [angstrom^3]:                                       104.947872
 CELL_TOP| Vector a [angstrom     4.508     0.000     0.000   |a| =     4.507880
 CELL_TOP| Vector b [angstrom    -2.254     3.904     0.000   |b| =     4.507880
 CELL_TOP| Vector c [angstrom     0.000     0.000     5.963   |c| =     5.963460
 CELL_TOP| Angle (b,c), alpha [degree]:                                90.000000
 CELL_TOP| Angle (a,c), beta  [degree]:                                90.000000
 CELL_TOP| Angle (a,b), gamma [degree]:                               120.000000
 CELL_TOP| Numerically orthorhombic:                                          NO
 CELL_TOP| Periodicity                                                       XYZ

 CELL_CIF| Volume [angstrom^3]:                                       104.947872
 CELL_CIF| Vector a [angstrom     4.508     0.000     0.000   |a| =     4.507880
 CELL_CIF| Vector b [angstrom    -2.254     3.904     0.000   |b| =     4.507880
 CELL_CIF| Vector c [angstrom     0.000     0.000     5.963   |c| =     5.963460
 CELL_CIF| Angle (b,c), alpha [degree]:                                90.000000
 CELL_CIF| Angle (a,c), beta  [degree]:                                90.000000
 CELL_CIF| Angle (a,b), gamma [degree]:                               120.000000
 CELL_CIF| Numerically orthorhombic:                                          NO
 CELL_CIF| Periodicity                                                       XYZ

 GENERATE|  Preliminary Number of Bonds generated:                             0
 GENERATE|  Achieved consistency in connectivity generation.

 CELL| Volume [angstrom^3]:                                           104.947872
 CELL| Vector a [angstrom]:       4.508     0.000     0.000   |a| =     4.507880
 CELL| Vector b [angstrom]:      -2.254     3.904     0.000   |b| =     4.507880
 CELL| Vector c [angstrom]:       0.000     0.000     5.963   |c| =     5.963460
 CELL| Angle (b,c), alpha [degree]:                                    90.000000
 CELL| Angle (a,c), beta  [degree]:                                    90.000000
 CELL| Angle (a,b), gamma [degree]:                                   120.000000
 CELL| Numerically orthorhombic:                                              NO
 CELL| Periodicity                                                           XYZ

 CELL_REF| Volume [angstrom^3]:                                       104.947872
 CELL_REF| Vector a [angstrom     4.508     0.000     0.000   |a| =     4.507880
 CELL_REF| Vector b [angstrom    -2.254     3.904     0.000   |b| =     4.507880
 CELL_REF| Vector c [angstrom     0.000     0.000     5.963   |c| =     5.963460
 CELL_REF| Angle (b,c), alpha [degree]:                                90.000000
 CELL_REF| Angle (a,c), beta  [degree]:                                90.000000
 CELL_REF| Angle (a,b), gamma [degree]:                               120.000000
 CELL_REF| Numerically orthorhombic:                                          NO
 CELL_REF| Periodicity                                                       XYZ

 *** WARNING in cryssym.F:180 :: Symmetry library SPGLIB not available ***


 *******************************************************************************
                                    Kpoints
 *******************************************************************************
 BRILLOUIN| K-point scheme                                        Monkhorst-Pack
 BRILLOUIN| K-Point grid                                             8    8    8
 BRILLOUIN| Accuracy in Symmetry determination                      0.100000E-05
 BRILLOUIN| K-Point point group symmetrization                               OFF
 BRILLOUIN| Wavefunction type                                            COMPLEX
 BRILLOUIN| List of Kpoints [2 Pi/Bohr]                                      256
 BRILLOUIN| Number           Weight            X              Y              Z
 BRILLOUIN|     1           0.00391       -0.43750       -0.43750       -0.43750
 BRILLOUIN|     2           0.00391       -0.43750       -0.43750       -0.31250
 BRILLOUIN|     3           0.00391       -0.43750       -0.43750       -0.18750
 BRILLOUIN|     4           0.00391       -0.43750       -0.43750       -0.06250
 BRILLOUIN|     5           0.00391       -0.43750       -0.43750        0.06250
 BRILLOUIN|     6           0.00391       -0.43750       -0.43750        0.18750
 BRILLOUIN|     7           0.00391       -0.43750       -0.43750        0.31250
 BRILLOUIN|     8           0.00391       -0.43750       -0.43750        0.43750
 BRILLOUIN|     9           0.00391       -0.43750       -0.31250       -0.43750
 BRILLOUIN|    10           0.00391       -0.43750       -0.31250       -0.31250
 BRILLOUIN|    11           0.00391       -0.43750       -0.31250       -0.18750
 BRILLOUIN|    12           0.00391       -0.43750       -0.31250       -0.06250
 BRILLOUIN|    13           0.00391       -0.43750       -0.31250        0.06250
 BRILLOUIN|    14           0.00391       -0.43750       -0.31250        0.18750
 BRILLOUIN|    15           0.00391       -0.43750       -0.31250        0.31250
 BRILLOUIN|    16           0.00391       -0.43750       -0.31250        0.43750
 BRILLOUIN|    17           0.00391       -0.43750       -0.18750       -0.43750
 BRILLOUIN|    18           0.00391       -0.43750       -0.18750       -0.31250
 BRILLOUIN|    19           0.00391       -0.43750       -0.18750       -0.18750
 BRILLOUIN|    20           0.00391       -0.43750       -0.18750       -0.06250
 BRILLOUIN|    21           0.00391       -0.43750       -0.18750        0.06250
 BRILLOUIN|    22           0.00391       -0.43750       -0.18750        0.18750
 BRILLOUIN|    23           0.00391       -0.43750       -0.18750        0.31250
 BRILLOUIN|    24           0.00391       -0.43750       -0.18750        0.43750
 BRILLOUIN|    25           0.00391       -0.43750       -0.06250       -0.43750
 BRILLOUIN|    26           0.00391       -0.43750       -0.06250       -0.31250
 BRILLOUIN|    27           0.00391       -0.43750       -0.06250       -0.18750
 BRILLOUIN|    28           0.00391       -0.43750       -0.06250       -0.06250
 BRILLOUIN|    29           0.00391       -0.43750       -0.06250        0.06250
 BRILLOUIN|    30           0.00391       -0.43750       -0.06250        0.18750
 BRILLOUIN|    31           0.00391       -0.43750       -0.06250        0.31250
 BRILLOUIN|    32           0.00391       -0.43750       -0.06250        0.43750
 BRILLOUIN|    33           0.00391       -0.43750        0.06250       -0.43750
 BRILLOUIN|    34           0.00391       -0.43750        0.06250       -0.31250
 BRILLOUIN|    35           0.00391       -0.43750        0.06250       -0.18750
 BRILLOUIN|    36           0.00391       -0.43750        0.06250       -0.06250
 BRILLOUIN|    37           0.00391       -0.43750        0.06250        0.06250
 BRILLOUIN|    38           0.00391       -0.43750        0.06250        0.18750
 BRILLOUIN|    39           0.00391       -0.43750        0.06250        0.31250
 BRILLOUIN|    40           0.00391       -0.43750        0.06250        0.43750
 BRILLOUIN|    41           0.00391       -0.43750        0.18750       -0.43750
 BRILLOUIN|    42           0.00391       -0.43750        0.18750       -0.31250
 BRILLOUIN|    43           0.00391       -0.43750        0.18750       -0.18750
 BRILLOUIN|    44           0.00391       -0.43750        0.18750       -0.06250
 BRILLOUIN|    45           0.00391       -0.43750        0.18750        0.06250
 BRILLOUIN|    46           0.00391       -0.43750        0.18750        0.18750
 BRILLOUIN|    47           0.00391       -0.43750        0.18750        0.31250
 BRILLOUIN|    48           0.00391       -0.43750        0.18750        0.43750
 BRILLOUIN|    49           0.00391       -0.43750        0.31250       -0.43750
 BRILLOUIN|    50           0.00391       -0.43750        0.31250       -0.31250
 BRILLOUIN|    51           0.00391       -0.43750        0.31250       -0.18750
 BRILLOUIN|    52           0.00391       -0.43750        0.31250       -0.06250
 BRILLOUIN|    53           0.00391       -0.43750        0.31250        0.06250
 BRILLOUIN|    54           0.00391       -0.43750        0.31250        0.18750
 BRILLOUIN|    55           0.00391       -0.43750        0.31250        0.31250
 BRILLOUIN|    56           0.00391       -0.43750        0.31250        0.43750
 BRILLOUIN|    57           0.00391       -0.43750        0.43750       -0.43750
 BRILLOUIN|    58           0.00391       -0.43750        0.43750       -0.31250
 BRILLOUIN|    59           0.00391       -0.43750        0.43750       -0.18750
 BRILLOUIN|    60           0.00391       -0.43750        0.43750       -0.06250
 BRILLOUIN|    61           0.00391       -0.43750        0.43750        0.06250
 BRILLOUIN|    62           0.00391       -0.43750        0.43750        0.18750
 BRILLOUIN|    63           0.00391       -0.43750        0.43750        0.31250
 BRILLOUIN|    64           0.00391       -0.43750        0.43750        0.43750
 BRILLOUIN|    65           0.00391       -0.31250       -0.43750       -0.43750
 BRILLOUIN|    66           0.00391       -0.31250       -0.43750       -0.31250
 BRILLOUIN|    67           0.00391       -0.31250       -0.43750       -0.18750
 BRILLOUIN|    68           0.00391       -0.31250       -0.43750       -0.06250
 BRILLOUIN|    69           0.00391       -0.31250       -0.43750        0.06250
 BRILLOUIN|    70           0.00391       -0.31250       -0.43750        0.18750
 BRILLOUIN|    71           0.00391       -0.31250       -0.43750        0.31250
 BRILLOUIN|    72           0.00391       -0.31250       -0.43750        0.43750
 BRILLOUIN|    73           0.00391       -0.31250       -0.31250       -0.43750
 BRILLOUIN|    74           0.00391       -0.31250       -0.31250       -0.31250
 BRILLOUIN|    75           0.00391       -0.31250       -0.31250       -0.18750
 BRILLOUIN|    76           0.00391       -0.31250       -0.31250       -0.06250
 BRILLOUIN|    77           0.00391       -0.31250       -0.31250        0.06250
 BRILLOUIN|    78           0.00391       -0.31250       -0.31250        0.18750
 BRILLOUIN|    79           0.00391       -0.31250       -0.31250        0.31250
 BRILLOUIN|    80           0.00391       -0.31250       -0.31250        0.43750
 BRILLOUIN|    81           0.00391       -0.31250       -0.18750       -0.43750
 BRILLOUIN|    82           0.00391       -0.31250       -0.18750       -0.31250
 BRILLOUIN|    83           0.00391       -0.31250       -0.18750       -0.18750
 BRILLOUIN|    84           0.00391       -0.31250       -0.18750       -0.06250
 BRILLOUIN|    85           0.00391       -0.31250       -0.18750        0.06250
 BRILLOUIN|    86           0.00391       -0.31250       -0.18750        0.18750
 BRILLOUIN|    87           0.00391       -0.31250       -0.18750        0.31250
 BRILLOUIN|    88           0.00391       -0.31250       -0.18750        0.43750
 BRILLOUIN|    89           0.00391       -0.31250       -0.06250       -0.43750
 BRILLOUIN|    90           0.00391       -0.31250       -0.06250       -0.31250
 BRILLOUIN|    91           0.00391       -0.31250       -0.06250       -0.18750
 BRILLOUIN|    92           0.00391       -0.31250       -0.06250       -0.06250
 BRILLOUIN|    93           0.00391       -0.31250       -0.06250        0.06250
 BRILLOUIN|    94           0.00391       -0.31250       -0.06250        0.18750
 BRILLOUIN|    95           0.00391       -0.31250       -0.06250        0.31250
 BRILLOUIN|    96           0.00391       -0.31250       -0.06250        0.43750
 BRILLOUIN|    97           0.00391       -0.31250        0.06250       -0.43750
 BRILLOUIN|    98           0.00391       -0.31250        0.06250       -0.31250
 BRILLOUIN|    99           0.00391       -0.31250        0.06250       -0.18750
 BRILLOUIN|   100           0.00391       -0.31250        0.06250       -0.06250
 BRILLOUIN|   101           0.00391       -0.31250        0.06250        0.06250
 BRILLOUIN|   102           0.00391       -0.31250        0.06250        0.18750
 BRILLOUIN|   103           0.00391       -0.31250        0.06250        0.31250
 BRILLOUIN|   104           0.00391       -0.31250        0.06250        0.43750
 BRILLOUIN|   105           0.00391       -0.31250        0.18750       -0.43750
 BRILLOUIN|   106           0.00391       -0.31250        0.18750       -0.31250
 BRILLOUIN|   107           0.00391       -0.31250        0.18750       -0.18750
 BRILLOUIN|   108           0.00391       -0.31250        0.18750       -0.06250
 BRILLOUIN|   109           0.00391       -0.31250        0.18750        0.06250
 BRILLOUIN|   110           0.00391       -0.31250        0.18750        0.18750
 BRILLOUIN|   111           0.00391       -0.31250        0.18750        0.31250
 BRILLOUIN|   112           0.00391       -0.31250        0.18750        0.43750
 BRILLOUIN|   113           0.00391       -0.31250        0.31250       -0.43750
 BRILLOUIN|   114           0.00391       -0.31250        0.31250       -0.31250
 BRILLOUIN|   115           0.00391       -0.31250        0.31250       -0.18750
 BRILLOUIN|   116           0.00391       -0.31250        0.31250       -0.06250
 BRILLOUIN|   117           0.00391       -0.31250        0.31250        0.06250
 BRILLOUIN|   118           0.00391       -0.31250        0.31250        0.18750
 BRILLOUIN|   119           0.00391       -0.31250        0.31250        0.31250
 BRILLOUIN|   120           0.00391       -0.31250        0.31250        0.43750
 BRILLOUIN|   121           0.00391       -0.31250        0.43750       -0.43750
 BRILLOUIN|   122           0.00391       -0.31250        0.43750       -0.31250
 BRILLOUIN|   123           0.00391       -0.31250        0.43750       -0.18750
 BRILLOUIN|   124           0.00391       -0.31250        0.43750       -0.06250
 BRILLOUIN|   125           0.00391       -0.31250        0.43750        0.06250
 BRILLOUIN|   126           0.00391       -0.31250        0.43750        0.18750
 BRILLOUIN|   127           0.00391       -0.31250        0.43750        0.31250
 BRILLOUIN|   128           0.00391       -0.31250        0.43750        0.43750
 BRILLOUIN|   129           0.00391       -0.18750       -0.43750       -0.43750
 BRILLOUIN|   130           0.00391       -0.18750       -0.43750       -0.31250
 BRILLOUIN|   131           0.00391       -0.18750       -0.43750       -0.18750
 BRILLOUIN|   132           0.00391       -0.18750       -0.43750       -0.06250
 BRILLOUIN|   133           0.00391       -0.18750       -0.43750        0.06250
 BRILLOUIN|   134           0.00391       -0.18750       -0.43750        0.18750
 BRILLOUIN|   135           0.00391       -0.18750       -0.43750        0.31250
 BRILLOUIN|   136           0.00391       -0.18750       -0.43750        0.43750
 BRILLOUIN|   137           0.00391       -0.18750       -0.31250       -0.43750
 BRILLOUIN|   138           0.00391       -0.18750       -0.31250       -0.31250
 BRILLOUIN|   139           0.00391       -0.18750       -0.31250       -0.18750
 BRILLOUIN|   140           0.00391       -0.18750       -0.31250       -0.06250
 BRILLOUIN|   141           0.00391       -0.18750       -0.31250        0.06250
 BRILLOUIN|   142           0.00391       -0.18750       -0.31250        0.18750
 BRILLOUIN|   143           0.00391       -0.18750       -0.31250        0.31250
 BRILLOUIN|   144           0.00391       -0.18750       -0.31250        0.43750
 BRILLOUIN|   145           0.00391       -0.18750       -0.18750       -0.43750
 BRILLOUIN|   146           0.00391       -0.18750       -0.18750       -0.31250
 BRILLOUIN|   147           0.00391       -0.18750       -0.18750       -0.18750
 BRILLOUIN|   148           0.00391       -0.18750       -0.18750       -0.06250
 BRILLOUIN|   149           0.00391       -0.18750       -0.18750        0.06250
 BRILLOUIN|   150           0.00391       -0.18750       -0.18750        0.18750
 BRILLOUIN|   151           0.00391       -0.18750       -0.18750        0.31250
 BRILLOUIN|   152           0.00391       -0.18750       -0.18750        0.43750
 BRILLOUIN|   153           0.00391       -0.18750       -0.06250       -0.43750
 BRILLOUIN|   154           0.00391       -0.18750       -0.06250       -0.31250
 BRILLOUIN|   155           0.00391       -0.18750       -0.06250       -0.18750
 BRILLOUIN|   156           0.00391       -0.18750       -0.06250       -0.06250
 BRILLOUIN|   157           0.00391       -0.18750       -0.06250        0.06250
 BRILLOUIN|   158           0.00391       -0.18750       -0.06250        0.18750
 BRILLOUIN|   159           0.00391       -0.18750       -0.06250        0.31250
 BRILLOUIN|   160           0.00391       -0.18750       -0.06250        0.43750
 BRILLOUIN|   161           0.00391       -0.18750        0.06250       -0.43750
 BRILLOUIN|   162           0.00391       -0.18750        0.06250       -0.31250
 BRILLOUIN|   163           0.00391       -0.18750        0.06250       -0.18750
 BRILLOUIN|   164           0.00391       -0.18750        0.06250       -0.06250
 BRILLOUIN|   165           0.00391       -0.18750        0.06250        0.06250
 BRILLOUIN|   166           0.00391       -0.18750        0.06250        0.18750
 BRILLOUIN|   167           0.00391       -0.18750        0.06250        0.31250
 BRILLOUIN|   168           0.00391       -0.18750        0.06250        0.43750
 BRILLOUIN|   169           0.00391       -0.18750        0.18750       -0.43750
 BRILLOUIN|   170           0.00391       -0.18750        0.18750       -0.31250
 BRILLOUIN|   171           0.00391       -0.18750        0.18750       -0.18750
 BRILLOUIN|   172           0.00391       -0.18750        0.18750       -0.06250
 BRILLOUIN|   173           0.00391       -0.18750        0.18750        0.06250
 BRILLOUIN|   174           0.00391       -0.18750        0.18750        0.18750
 BRILLOUIN|   175           0.00391       -0.18750        0.18750        0.31250
 BRILLOUIN|   176           0.00391       -0.18750        0.18750        0.43750
 BRILLOUIN|   177           0.00391       -0.18750        0.31250       -0.43750
 BRILLOUIN|   178           0.00391       -0.18750        0.31250       -0.31250
 BRILLOUIN|   179           0.00391       -0.18750        0.31250       -0.18750
 BRILLOUIN|   180           0.00391       -0.18750        0.31250       -0.06250
 BRILLOUIN|   181           0.00391       -0.18750        0.31250        0.06250
 BRILLOUIN|   182           0.00391       -0.18750        0.31250        0.18750
 BRILLOUIN|   183           0.00391       -0.18750        0.31250        0.31250
 BRILLOUIN|   184           0.00391       -0.18750        0.31250        0.43750
 BRILLOUIN|   185           0.00391       -0.18750        0.43750       -0.43750
 BRILLOUIN|   186           0.00391       -0.18750        0.43750       -0.31250
 BRILLOUIN|   187           0.00391       -0.18750        0.43750       -0.18750
 BRILLOUIN|   188           0.00391       -0.18750        0.43750       -0.06250
 BRILLOUIN|   189           0.00391       -0.18750        0.43750        0.06250
 BRILLOUIN|   190           0.00391       -0.18750        0.43750        0.18750
 BRILLOUIN|   191           0.00391       -0.18750        0.43750        0.31250
 BRILLOUIN|   192           0.00391       -0.18750        0.43750        0.43750
 BRILLOUIN|   193           0.00391       -0.06250       -0.43750       -0.43750
 BRILLOUIN|   194           0.00391       -0.06250       -0.43750       -0.31250
 BRILLOUIN|   195           0.00391       -0.06250       -0.43750       -0.18750
 BRILLOUIN|   196           0.00391       -0.06250       -0.43750       -0.06250
 BRILLOUIN|   197           0.00391       -0.06250       -0.43750        0.06250
 BRILLOUIN|   198           0.00391       -0.06250       -0.43750        0.18750
 BRILLOUIN|   199           0.00391       -0.06250       -0.43750        0.31250
 BRILLOUIN|   200           0.00391       -0.06250       -0.43750        0.43750
 BRILLOUIN|   201           0.00391       -0.06250       -0.31250       -0.43750
 BRILLOUIN|   202           0.00391       -0.06250       -0.31250       -0.31250
 BRILLOUIN|   203           0.00391       -0.06250       -0.31250       -0.18750
 BRILLOUIN|   204           0.00391       -0.06250       -0.31250       -0.06250
 BRILLOUIN|   205           0.00391       -0.06250       -0.31250        0.06250
 BRILLOUIN|   206           0.00391       -0.06250       -0.31250        0.18750
 BRILLOUIN|   207           0.00391       -0.06250       -0.31250        0.31250
 BRILLOUIN|   208           0.00391       -0.06250       -0.31250        0.43750
 BRILLOUIN|   209           0.00391       -0.06250       -0.18750       -0.43750
 BRILLOUIN|   210           0.00391       -0.06250       -0.18750       -0.31250
 BRILLOUIN|   211           0.00391       -0.06250       -0.18750       -0.18750
 BRILLOUIN|   212           0.00391       -0.06250       -0.18750       -0.06250
 BRILLOUIN|   213           0.00391       -0.06250       -0.18750        0.06250
 BRILLOUIN|   214           0.00391       -0.06250       -0.18750        0.18750
 BRILLOUIN|   215           0.00391       -0.06250       -0.18750        0.31250
 BRILLOUIN|   216           0.00391       -0.06250       -0.18750        0.43750
 BRILLOUIN|   217           0.00391       -0.06250       -0.06250       -0.43750
 BRILLOUIN|   218           0.00391       -0.06250       -0.06250       -0.31250
 BRILLOUIN|   219           0.00391       -0.06250       -0.06250       -0.18750
 BRILLOUIN|   220           0.00391       -0.06250       -0.06250       -0.06250
 BRILLOUIN|   221           0.00391       -0.06250       -0.06250        0.06250
 BRILLOUIN|   222           0.00391       -0.06250       -0.06250        0.18750
 BRILLOUIN|   223           0.00391       -0.06250       -0.06250        0.31250
 BRILLOUIN|   224           0.00391       -0.06250       -0.06250        0.43750
 BRILLOUIN|   225           0.00391       -0.06250        0.06250       -0.43750
 BRILLOUIN|   226           0.00391       -0.06250        0.06250       -0.31250
 BRILLOUIN|   227           0.00391       -0.06250        0.06250       -0.18750
 BRILLOUIN|   228           0.00391       -0.06250        0.06250       -0.06250
 BRILLOUIN|   229           0.00391       -0.06250        0.06250        0.06250
 BRILLOUIN|   230           0.00391       -0.06250        0.06250        0.18750
 BRILLOUIN|   231           0.00391       -0.06250        0.06250        0.31250
 BRILLOUIN|   232           0.00391       -0.06250        0.06250        0.43750
 BRILLOUIN|   233           0.00391       -0.06250        0.18750       -0.43750
 BRILLOUIN|   234           0.00391       -0.06250        0.18750       -0.31250
 BRILLOUIN|   235           0.00391       -0.06250        0.18750       -0.18750
 BRILLOUIN|   236           0.00391       -0.06250        0.18750       -0.06250
 BRILLOUIN|   237           0.00391       -0.06250        0.18750        0.06250
 BRILLOUIN|   238           0.00391       -0.06250        0.18750        0.18750
 BRILLOUIN|   239           0.00391       -0.06250        0.18750        0.31250
 BRILLOUIN|   240           0.00391       -0.06250        0.18750        0.43750
 BRILLOUIN|   241           0.00391       -0.06250        0.31250       -0.43750
 BRILLOUIN|   242           0.00391       -0.06250        0.31250       -0.31250
 BRILLOUIN|   243           0.00391       -0.06250        0.31250       -0.18750
 BRILLOUIN|   244           0.00391       -0.06250        0.31250       -0.06250
 BRILLOUIN|   245           0.00391       -0.06250        0.31250        0.06250
 BRILLOUIN|   246           0.00391       -0.06250        0.31250        0.18750
 BRILLOUIN|   247           0.00391       -0.06250        0.31250        0.31250
 BRILLOUIN|   248           0.00391       -0.06250        0.31250        0.43750
 BRILLOUIN|   249           0.00391       -0.06250        0.43750       -0.43750
 BRILLOUIN|   250           0.00391       -0.06250        0.43750       -0.31250
 BRILLOUIN|   251           0.00391       -0.06250        0.43750       -0.18750
 BRILLOUIN|   252           0.00391       -0.06250        0.43750       -0.06250
 BRILLOUIN|   253           0.00391       -0.06250        0.43750        0.06250
 BRILLOUIN|   254           0.00391       -0.06250        0.43750        0.18750
 BRILLOUIN|   255           0.00391       -0.06250        0.43750        0.31250
 BRILLOUIN|   256           0.00391       -0.06250        0.43750        0.43750
 *******************************************************************************

 *******************************************************************************
 *******************************************************************************
 **                                                                           **
 **     #####                         ##              ##                      **
 **    ##   ##            ##          ##              ##                      **
 **   ##     ##                       ##            ######                    **
 **   ##     ##  ##   ##  ##   #####  ##  ##   ####   ##    #####    #####    **
 **   ##     ##  ##   ##  ##  ##      ## ##   ##      ##   ##   ##  ##   ##   **
 **   ##  ## ##  ##   ##  ##  ##      ####     ###    ##   ######   ######    **
 **    ##  ###   ##   ##  ##  ##      ## ##      ##   ##   ##       ##        **
 **     #######   #####   ##   #####  ##  ##  ####    ##    #####   ##        **
 **           ##                                                    ##        **
 **                                                                           **
 **                                                ... make the atoms dance   **
 **                                                                           **
 **            Copyright (C) by CP2K developers group (2000-2025)             **
 **                      J. Chem. Phys. 152, 194103 (2020)                    **
 **                                                                           **
 *******************************************************************************

 DFT| Spin restricted Kohn-Sham (RKS) calculation                            RKS
 DFT| Multiplicity                                                             1
 DFT| Number of spin states                                                    1
 DFT| Charge                                                                   0
 DFT| Self-interaction correction (SIC)                                       NO
 DFT| Cutoffs: density                                              1.000000E-10
 DFT|          gradient                                             1.000000E-10
 DFT|          tau                                                  1.000000E-10
 DFT|          cutoff_smoothing_range                               0.000000E+00
 DFT| XC density smoothing                                                  NONE
 DFT| XC derivatives                                                          PW

 FUNCTIONAL| PBE:
 FUNCTIONAL| J.P.Perdew, K.Burke, M.Ernzerhof, Phys. Rev. Letter, vol. 77, n 18,
 FUNCTIONAL|  pp. 3865-3868, (1996) {spin unpolarized}                          


 QS| Method:                                                                 GPW
 QS| Density plane wave grid type                        NON-SPHERICAL FULLSPACE
 QS| Number of grid levels:                                                    4
 QS| Density cutoff [a.u.]:                                                500.0
 QS| Multi grid cutoff [a.u.]: 1) grid level                               500.0
 QS|                           2) grid level                               166.7
 QS|                           3) grid level                                55.6
 QS|                           4) grid level                                18.5
 QS| Grid level progression factor:                                          3.0
 QS| Relative density cutoff [a.u.]:                                        50.0
 QS| Interaction thresholds: eps_pgf_orb:                                1.0E-16
 QS|                         eps_filter_matrix:                          0.0E+00
 QS|                         eps_core_charge:                            1.0E-18
 QS|                         eps_rho_gspace:                             1.0E-16
 QS|                         eps_rho_rspace:                             1.0E-16
 QS|                         eps_gvg_rspace:                             1.0E-08
 QS|                         eps_ppl:                                    1.0E-02
 QS|                         eps_ppnl:                                   1.0E-10


 ATOMIC KIND INFORMATION

  1. Atomic kind: Te                                    Number of atoms:       3

     Orbital Basis Set                                   TZV2P-MOLOPT-GGA-GTH-q6

       Number of orbital shell sets:                                           1
       Number of orbital shells:                                               9
       Number of primitive Cartesian functions:                                4
       Number of Cartesian basis functions:                                   34
       Number of spherical basis functions:                                   29
       Norm type:                                                              2

       Normalised Cartesian orbitals:

                        Set   Shell   Orbital            Exponent    Coefficient

                          1       1    2s                1.502058       0.033423
                                                         1.445079      -0.076164
                                                         0.277535       0.014326
                                                         0.094459       0.118098

                          1       2    3s                1.502058      11.238957
                                                         1.445079     -12.030880
                                                         0.277535       0.712043
                                                         0.094459      -0.196980

                          1       3    4s                1.502058       0.410349
                                                         1.445079       0.400898
                                                         0.277535       0.057243
                                                         0.094459       0.001111

                          1       4    3px               1.502058       1.102918
                                                         1.445079      -0.602675
                                                         0.277535       0.144297
                                                         0.094459       0.036841
                          1       4    3py               1.502058       1.102918
                                                         1.445079      -0.602675
                                                         0.277535       0.144297
                                                         0.094459       0.036841
                          1       4    3pz               1.502058       1.102918
                                                         1.445079      -0.602675
                                                         0.277535       0.144297
                                                         0.094459       0.036841

                          1       5    4px               1.502058      -1.581581
                                                         1.445079      -1.100225
                                                         0.277535       0.176141
                                                         0.094459      -0.019328
                          1       5    4py               1.502058      -1.581581
                                                         1.445079      -1.100225
                                                         0.277535       0.176141
                                                         0.094459      -0.019328
                          1       5    4pz               1.502058      -1.581581
                                                         1.445079      -1.100225
                                                         0.277535       0.176141
                                                         0.094459      -0.019328

                          1       6    5px               1.502058      -1.656374
                                                         1.445079       0.206453
                                                         0.277535      -0.078031
                                                         0.094459       0.073522
                          1       6    5py               1.502058      -1.656374
                                                         1.445079       0.206453
                                                         0.277535      -0.078031
                                                         0.094459       0.073522
                          1       6    5pz               1.502058      -1.656374
                                                         1.445079       0.206453
                                                         0.277535      -0.078031
                                                         0.094459       0.073522

                          1       7    4dx2              1.502058      -0.594376
                                                         1.445079       0.764245
                                                         0.277535      -0.143332
                                                         0.094459      -0.007518
                          1       7    4dxy              1.502058      -1.029490
                                                         1.445079       1.323711
                                                         0.277535      -0.248258
                                                         0.094459      -0.013021
                          1       7    4dxz              1.502058      -1.029490
                                                         1.445079       1.323711
                                                         0.277535      -0.248258
                                                         0.094459      -0.013021
                          1       7    4dy2              1.502058      -0.594376
                                                         1.445079       0.764245
                                                         0.277535      -0.143332
                                                         0.094459      -0.007518
                          1       7    4dyz              1.502058      -1.029490
                                                         1.445079       1.323711
                                                         0.277535      -0.248258
                                                         0.094459      -0.013021
                          1       7    4dz2              1.502058      -0.594376
                                                         1.445079       0.764245
                                                         0.277535      -0.143332
                                                         0.094459      -0.007518

                          1       8    5dx2              1.502058       1.807241
                                                         1.445079      -1.481312
                                                         0.277535      -0.121527
                                                         0.094459       0.033627
                          1       8    5dxy              1.502058       3.130233
                                                         1.445079      -2.565708
                                                         0.277535      -0.210490
                                                         0.094459       0.058245
                          1       8    5dxz              1.502058       3.130233
                                                         1.445079      -2.565708
                                                         0.277535      -0.210490
                                                         0.094459       0.058245
                          1       8    5dy2              1.502058       1.807241
                                                         1.445079      -1.481312
                                                         0.277535      -0.121527
                                                         0.094459       0.033627
                          1       8    5dyz              1.502058       3.130233
                                                         1.445079      -2.565708
                                                         0.277535      -0.210490
                                                         0.094459       0.058245
                          1       8    5dz2              1.502058       1.807241
                                                         1.445079      -1.481312
                                                         0.277535      -0.121527
                                                         0.094459       0.033627

                          1       9    5fx3              1.502058      -6.982236
                                                         1.445079       6.748300
                                                         0.277535       0.082513
                                                         0.094459      -0.000982
                          1       9    5fx2y             1.502058     -15.612754
                                                         1.445079      15.089657
                                                         0.277535       0.184505
                                                         0.094459      -0.002195
                          1       9    5fx2z             1.502058     -15.612754
                                                         1.445079      15.089657
                                                         0.277535       0.184505
                                                         0.094459      -0.002195
                          1       9    5fxy2             1.502058     -15.612754
                                                         1.445079      15.089657
                                                         0.277535       0.184505
                                                         0.094459      -0.002195
                          1       9    5fxyz             1.502058     -27.042083
                                                         1.445079      26.136052
                                                         0.277535       0.319573
                                                         0.094459      -0.003802
                          1       9    5fxz2             1.502058     -15.612754
                                                         1.445079      15.089657
                                                         0.277535       0.184505
                                                         0.094459      -0.002195
                          1       9    5fy3              1.502058      -6.982236
                                                         1.445079       6.748300
                                                         0.277535       0.082513
                                                         0.094459      -0.000982
                          1       9    5fy2z             1.502058     -15.612754
                                                         1.445079      15.089657
                                                         0.277535       0.184505
                                                         0.094459      -0.002195
                          1       9    5fyz2             1.502058     -15.612754
                                                         1.445079      15.089657
                                                         0.277535       0.184505
                                                         0.094459      -0.002195
                          1       9    5fz3              1.502058      -6.982236
                                                         1.445079       6.748300
                                                         0.277535       0.082513
                                                         0.094459      -0.000982

       Atomic covalent radius [Angstrom]:                                  1.360

       Atomic van der Waals radius [Angstrom]:                             2.060

     GTH Potential information for                                    GTH-PBE-q6

       Description:                       Goedecker-Teter-Hutter pseudopotential
                                           Goedecker et al., PRB 54, 1703 (1996)
                                          Hartwigsen et al., PRB 58, 3641 (1998)
                                                      Krack, TCA 114, 145 (2005)

       Gaussian exponent of the core charge distribution:               1.512287
       Electronic configuration (s p d ...):                               2   4

       Parameters of the local part of the GTH pseudopotential:

                          rloc        C1          C2          C3          C4
                        0.575000    8.713649

       Parameters of the non-local part of the GTH (SOC) pseudopotential:

                   l      r(l)      h(i,j,l)
                                    k(i,j,l)
                   0    0.574922    1.401813    0.978780   -0.486306
                                    0.978780   -2.054576    1.255637
                                   -0.486306    1.255637   -0.996631
                   1    0.589891    0.764789    0.323986
                                    0.323986   -0.383346
                                    0.287093   -0.138161
                                   -0.138161    0.163474
                   2    0.813389    0.344858
                                    0.009299


 MOLECULE KIND INFORMATION


 All atoms are their own molecule, skipping detailed information


 TOTAL NUMBERS AND MAXIMUM NUMBERS

  Total number of            - Atomic kinds:                                   1
                             - Atoms:                                          3
                             - Shell sets:                                     3
                             - Shells:                                        27
                             - Primitive Cartesian functions:                 12
                             - Cartesian basis functions:                    102
                             - Spherical basis functions:                     87

  Maximum angular momentum of- Orbital basis functions:                        3
                             - Local part of the GTH pseudopotential:          0
                             - Non-local part of the GTH pseudopotential:      4


 MODULE QUICKSTEP: ATOMIC COORDINATES IN ANGSTROM

   Atom Kind Element         X             Y             Z       Z(eff)     Mass
      1    1 Te   52      1.215595      0.000000      1.987800   6.0000 127.6000
      2    1 Te   52     -0.607797      1.052736      3.975660   6.0000 127.6000
      3    1 Te   52      1.646143      2.851203      0.000000   6.0000 127.6000



 SCF PARAMETERS         Density guess:                                    ATOMIC
                        --------------------------------------------------------
                        max_scf:                                             500
                        max_scf_history:                                       0
                        max_diis:                                              4
                        --------------------------------------------------------
                        eps_scf:                                        1.00E-09
                        eps_scf_history:                                0.00E+00
                        eps_diis:                                       1.00E-01
                        eps_eigval:                                     1.00E-05
                        --------------------------------------------------------
                        level_shift [a.u.]:                             0.000000
                        added MOs                                        78    0
                        --------------------------------------------------------
                        Mixing method:                            BROYDEN_MIXING
                                                charge density mixing in g-space
                        --------------------------------------------------------
                        No outer SCF

 PW_GRID| Information for grid number                                          1
 PW_GRID| Grid distributed over                                     8 processors
 PW_GRID| Real space group dimensions                                     8    1
 PW_GRID| the grid is blocked:                                                NO
 PW_GRID| Cutoff [a.u.]                                                    500.0
 PW_GRID| spherical cutoff:                                                   NO
 PW_GRID|   Bounds   1            -45      44                Points:          90
 PW_GRID|   Bounds   2            -45      44                Points:          90
 PW_GRID|   Bounds   3            -60      59                Points:         120
 PW_GRID| Volume element (a.u.^3)  0.7286E-03     Volume (a.u.^3)       708.2234
 PW_GRID| Grid span                                                    FULLSPACE
 PW_GRID|   Distribution                         Average         Max         Min
 PW_GRID|   G-Vectors                           121500.0      121500      121500
 PW_GRID|   G-Rays                                1350.0        1350        1350
 PW_GRID|   Real Space Points                   121500.0      129600      118800

 PW_GRID| Information for grid number                                          2
 PW_GRID| Number of the reference grid                                         1
 PW_GRID| Grid distributed over                                     8 processors
 PW_GRID| Real space group dimensions                                     8    1
 PW_GRID| the grid is blocked:                                                NO
 PW_GRID| Cutoff [a.u.]                                                    166.7
 PW_GRID| spherical cutoff:                                                   NO
 PW_GRID|   Bounds   1            -27      26                Points:          54
 PW_GRID|   Bounds   2            -27      26                Points:          54
 PW_GRID|   Bounds   3            -36      35                Points:          72
 PW_GRID| Volume element (a.u.^3)  0.3373E-02     Volume (a.u.^3)       708.2234
 PW_GRID| Grid span                                                    FULLSPACE
 PW_GRID|   Distribution                         Average         Max         Min
 PW_GRID|   G-Vectors                            26244.0       26298       26136
 PW_GRID|   G-Rays                                 486.0         487         484
 PW_GRID|   Real Space Points                    26244.0       27216       23328

 PW_GRID| Information for grid number                                          3
 PW_GRID| Number of the reference grid                                         1
 PW_GRID| Grid distributed over                                     8 processors
 PW_GRID| Real space group dimensions                                     8    1
 PW_GRID| the grid is blocked:                                                NO
 PW_GRID| Cutoff [a.u.]                                                     55.6
 PW_GRID| spherical cutoff:                                                   NO
 PW_GRID|   Bounds   1            -15      14                Points:          30
 PW_GRID|   Bounds   2            -15      14                Points:          30
 PW_GRID|   Bounds   3            -20      19                Points:          40
 PW_GRID| Volume element (a.u.^3)  0.1967E-01     Volume (a.u.^3)       708.2234
 PW_GRID| Grid span                                                    FULLSPACE
 PW_GRID|   Distribution                         Average         Max         Min
 PW_GRID|   G-Vectors                             4500.0        4560        4440
 PW_GRID|   G-Rays                                 150.0         152         148
 PW_GRID|   Real Space Points                     4500.0        4800        3600

 PW_GRID| Information for grid number                                          4
 PW_GRID| Number of the reference grid                                         1
 PW_GRID| Grid distributed over                                     8 processors
 PW_GRID| Real space group dimensions                                     8    1
 PW_GRID| the grid is blocked:                                                NO
 PW_GRID| Cutoff [a.u.]                                                     18.5
 PW_GRID| spherical cutoff:                                                   NO
 PW_GRID|   Bounds   1             -9       8                Points:          18
 PW_GRID|   Bounds   2             -9       8                Points:          18
 PW_GRID|   Bounds   3            -12      11                Points:          24
 PW_GRID| Volume element (a.u.^3)  0.9108E-01     Volume (a.u.^3)       708.2234
 PW_GRID| Grid span                                                    FULLSPACE
 PW_GRID|   Distribution                         Average         Max         Min
 PW_GRID|   G-Vectors                              972.0        1008         936
 PW_GRID|   G-Rays                                  54.0          56          52
 PW_GRID|   Real Space Points                      972.0        1296         864

 POISSON| Solver                                                        PERIODIC
 POISSON| Periodicity                                                        XYZ

 RS_GRID| Information for grid number                                          1
 RS_GRID|   Bounds   1            -45      44                Points:          90
 RS_GRID|   Bounds   2            -45      44                Points:          90
 RS_GRID|   Bounds   3            -60      59                Points:         120
 RS_GRID| Real space fully replicated
 RS_GRID| Group size                                                           1

 RS_GRID| Information for grid number                                          2
 RS_GRID|   Bounds   1            -27      26                Points:          54
 RS_GRID|   Bounds   2            -27      26                Points:          54
 RS_GRID|   Bounds   3            -36      35                Points:          72
 RS_GRID| Real space fully replicated
 RS_GRID| Group size                                                           1

 RS_GRID| Information for grid number                                          3
 RS_GRID|   Bounds   1            -15      14                Points:          30
 RS_GRID|   Bounds   2            -15      14                Points:          30
 RS_GRID|   Bounds   3            -20      19                Points:          40
 RS_GRID| Real space fully replicated
 RS_GRID| Group size                                                           1

 RS_GRID| Information for grid number                                          4
 RS_GRID|   Bounds   1             -9       8                Points:          18
 RS_GRID|   Bounds   2             -9       8                Points:          18
 RS_GRID|   Bounds   3            -12      11                Points:          24
 RS_GRID| Real space fully replicated
 RS_GRID| Group size                                                           1

 Number of electrons:                                                         18
 Number of occupied orbitals:                                                  9
 Number of molecular orbitals:                                                87

 Number of orbital functions:                                                 87
 Number of independent orbital functions:                                     87

 Extrapolation method: initial_guess

 Atomic guess: The first density matrix is obtained in terms of atomic orbitals
               and electronic configurations assigned to each atomic kind

 Guess for atomic kind: Te

 Electronic structure
    Total number of core electrons                                         46.00
    Total number of valence electrons                                       6.00
    Total number of electrons                                              52.00
    Multiplicity                                                   not specified
    S   [  2.00  2.00  2.00  2.00] 2.00
    P   [  6.00  6.00  6.00] 4.00
    D   [ 10.00 10.00]


 *******************************************************************************
                  Iteration          Convergence                     Energy [au]
 *******************************************************************************
                          1        0.386681                      -7.809236726838
                          2        0.225173                      -7.908883801732
                          3        0.629639E-02                  -7.940849656908
                          4        0.171569E-03                  -7.940867862874
                          5        0.777567E-06                  -7.940867873215

 Energy components [Hartree]           Total Energy ::           -7.940867873215
                                        Band Energy ::           -1.846351519904
                                     Kinetic Energy ::            2.420935854714
                                   Potential Energy ::          -10.361803727929
                                      Virial (-V/T) ::            4.280081897978
                                        Core Energy ::          -12.881229176406
                                          XC Energy ::           -1.658155792370
                                     Coulomb Energy ::            6.598517095561
                       Total Pseudopotential Energy ::          -15.371914138491
                       Local Pseudopotential Energy ::          -15.648828487742
                    Nonlocal Pseudopotential Energy ::            0.276914349251
                                        Confinement ::            0.697491073710

 Orbital energies  State     L     Occupation   Energy[a.u.]          Energy[eV]

                       1     0          2.000      -0.532221          -14.482477

                       1     1          4.000      -0.195477           -5.319207


 Total Electron Density at R=0:                                         0.000169
 Re-scaling the density matrix to get the right number of electrons
                  # Electrons              Trace(P)               Scaling factor
                           18                18.000                        1.000


 SCF WAVEFUNCTION OPTIMIZATION

  Step     Update method      Time    Convergence         Total energy    Change
  ------------------------------------------------------------------------------
     1 NoMix/Diag. 0.50E-01    3.4     0.35964813       -24.5940499269 -2.46E+01
     2 Broy./Diag. 0.50E-01    3.4     0.00039934       -24.6914772088 -9.74E-02
     3 Broy./Diag. 0.50E-01    3.5     0.01216280       -24.5739663190  1.18E-01
     4 Broy./Diag. 0.50E-01    3.4     0.00013553       -24.5510852139  2.29E-02
     5 Broy./Diag. 0.50E-01    3.5     0.00400356       -24.5114216165  3.97E-02
     6 Broy./Diag. 0.50E-01    3.4     0.00002614       -24.5037512921  7.67E-03
     7 Broy./Diag. 0.50E-01    3.5     0.00084771       -24.4994960564  4.26E-03
     8 Broy./Diag. 0.50E-01    3.5     0.00001025       -24.4983315619  1.16E-03
     9 Broy./Diag. 0.50E-01    3.5     0.00013690       -24.4988020418 -4.70E-04
    10 Broy./Diag. 0.50E-01    3.4     0.00000139       -24.4987473458  5.47E-05
    11 Broy./Diag. 0.50E-01    3.5     0.00002000       -24.4988192730 -7.19E-05
    12 Broy./Diag. 0.50E-01    3.4     0.00000034       -24.4988160402  3.23E-06
    13 Broy./Diag. 0.50E-01    3.5     0.00000536       -24.4987753313  4.07E-05
    14 Broy./Diag. 0.50E-01    3.4     0.00000019       -24.4987666700  8.66E-06
    15 Broy./Diag. 0.50E-01    3.5     0.00000347       -24.4987492157  1.75E-05
    16 Broy./Diag. 0.50E-01    3.5     0.00000029       -24.4987474004  1.82E-06
    17 Broy./Diag. 0.50E-01    3.5     0.00000007       -24.4987487045 -1.30E-06
    18 Broy./Diag. 0.50E-01    3.4     0.00000035       -24.4987490329 -3.28E-07
    19 Broy./Diag. 0.50E-01    3.5     0.00000010       -24.4987487156  3.17E-07
    20 Broy./Diag. 0.50E-01    3.5     0.00000011       -24.4987482889  4.27E-07
    21 Broy./Diag. 0.50E-01    3.5     0.00000008       -24.4987482248  6.41E-08
    22 Broy./Diag. 0.50E-01    3.4     0.00000010       -24.4987483480 -1.23E-07
    23 Broy./Diag. 0.50E-01    3.5     0.00000001       -24.4987482675  8.04E-08
    24 Broy./Diag. 0.50E-01    3.4     7.6547E-09       -24.4987482836 -1.60E-08
    25 Broy./Diag. 0.50E-01    3.5     8.3563E-09       -24.4987483139 -3.03E-08
    26 Broy./Diag. 0.50E-01    3.5     0.00000002       -24.4987482759  3.80E-08
    27 Broy./Diag. 0.50E-01    3.5     4.6471E-09       -24.4987482377  3.82E-08
    28 Broy./Diag. 0.50E-01    3.5     2.1097E-09       -24.4987482501 -1.24E-08
    29 Broy./Diag. 0.50E-01    3.4     1.9137E-09       -24.4987482757 -2.55E-08
    30 Broy./Diag. 0.50E-01    3.5     3.1344E-09       -24.4987482756  6.36E-11
    31 Broy./Diag. 0.50E-01    3.4     2.3990E-09       -24.4987482581  1.75E-08
    32 Broy./Diag. 0.50E-01    3.5     1.2612E-09       -24.4987482473  1.08E-08
    33 Broy./Diag. 0.50E-01    3.4     4.3145E-09       -24.4987482443  3.00E-09
    34 Broy./Diag. 0.50E-01    3.5     1.8977E-09       -24.4987482409  3.47E-09
    35 Broy./Diag. 0.50E-01    3.4     7.5417E-10       -24.4987482410 -1.67E-10

  *** SCF run converged in    35 steps ***


  Electronic density on regular grids:        -18.0000000000       -0.0000000000
  Core density on regular grids:               18.0000000000       -0.0000000000
  Total charge density on r-space grids:       -0.0000000000
  Total charge density g-space grids:          -0.0000000000

  Overlap energy of the core charge distribution:               0.00000000033710
  Self energy of the core charge distribution:                -52.98476088970233
  Core Hamiltonian energy:                                     10.63024698771869
  Hartree energy:                                              23.23170816933242
  Exchange-correlation energy:                                 -5.37594250870849

  Total energy:                                               -24.49874824102260

 !-----------------------------------------------------------------------------!
                     Mulliken Population Analysis

 #  Atom  Element  Kind  Atomic population                           Net charge
       1     Te       1          5.999977                              0.000023
       2     Te       1          5.999977                              0.000023
       3     Te       1          6.000046                             -0.000046
 # Total charge                             18.000000                  0.000000

 !-----------------------------------------------------------------------------!

 !-----------------------------------------------------------------------------!
                           Hirshfeld Charges

  #Atom  Element  Kind  Ref Charge     Population                    Net charge
      1       Te     1       6.000          6.000                         0.000
      2       Te     1       6.000          6.000                         0.000
      3       Te     1       6.000          6.000                        -0.000

  Total Charge                                                           -0.000
 !-----------------------------------------------------------------------------!

 KPOINTS| Band Structure Calculation
 KPOINTS| Number of k-point sets                                               1
 KPOINTS| Number of added MOs/bands                                           -1
 KPOINTS| Number of k-points in set    1                                     148
 KPOINTS| In units of b-vector [2pi/Bohr]
 KPOINTS| Special point     1 not specifi     0.000000     0.000000     0.000000
 KPOINTS| Special point     2 not specifi     0.500000     0.000000     0.000000
 KPOINTS| Special point     3 not specifi     0.333333     0.333333     0.000000
 KPOINTS| Special point     4 not specifi     0.000000     0.000000     0.000000
 KPOINTS| Time for k-point line                                            1.440

 ENERGY| Total FORCE_EVAL ( QS ) energy [hartree]            -24.498748241022604

 -------------------------------------------------------------------------------
 -                                                                             -
 -                                DBCSR STATISTICS                             -
 -                                                                             -
 -------------------------------------------------------------------------------
 COUNTER                                    TOTAL       BLAS       SMM       ACC
 flops inhomo. stacks                           0       0.0%      0.0%      0.0%
 flops total                         0.000000E+00       0.0%      0.0%      0.0%
 flops max/rank                      0.000000E+00       0.0%      0.0%      0.0%
 matmuls inhomo. stacks                         0       0.0%      0.0%      0.0%
 matmuls total                                  0       0.0%      0.0%      0.0%
 number of processed stacks                     0       0.0%      0.0%      0.0%
 average stack size                                     0.0       0.0       0.0
 marketing flops                     0.000000E+00
 -------------------------------------------------------------------------------
 -                                                                             -
 -                      DBCSR MESSAGE PASSING PERFORMANCE                      -
 -                                                                             -
 -------------------------------------------------------------------------------
 ROUTINE             CALLS      AVE VOLUME [Bytes]
 MP_Bcast                1                     12.
 MP_Allreduce           19                     21.
 MP_Alltoall        757408                   5751.
 -------------------------------------------------------------------------------

 -------------------------------------------------------------------------------
 -                                                                             -
 -                                DBM STATISTICS                               -
 -                                                                             -
 -------------------------------------------------------------------------------
    M  x    N  x    K                                          COUNT     PERCENT
 -------------------------------------------------------------------------------

 -------------------------------------------------------------------------------
 -                                                                             -
 -                                GRID STATISTICS                              -
 -                                                                             -
 -------------------------------------------------------------------------------
 LP    KERNEL             BACKEND                              COUNT     PERCENT
 6     collocate general  CPU                                 189864      50.70%
 6     integrate general  CPU                                 184590      49.29%
 0     collocate general  CPU                                      6       0.00%
 0     integrate general  CPU                                      3       0.00%
 -------------------------------------------------------------------------------

 MEMORY| Estimated peak process memory [MiB]                                 458

 -------------------------------------------------------------------------------
 ----                             MULTIGRID INFO                            ----
 -------------------------------------------------------------------------------
 count for grid        1:              0          cutoff [a.u.]          500.00
 count for grid        2:          35184          cutoff [a.u.]          166.67
 count for grid        3:          10914          cutoff [a.u.]           55.56
 count for grid        4:           5694          cutoff [a.u.]           18.52
 total gridlevel count  :          51792

 -------------------------------------------------------------------------------
 -                                                                             -
 -                         MESSAGE PASSING PERFORMANCE                         -
 -                                                                             -
 -------------------------------------------------------------------------------

 ROUTINE             CALLS      AVE VOLUME [Bytes]
 MP_Group                6
 MP_Bcast           327232                  13892.
 MP_Allreduce        56396                    126.
 MP_Sync                 4
 MP_Alltoall           635                5341783.
 MP_SendRecv          1022                 335563.
 MP_ISendRecv          987                 330866.
 MP_Wait            225263
 MP_comm_split           4
 MP_ISend           238604                   1762.
 MP_IRecv           381056                   1098.
 -------------------------------------------------------------------------------


 -------------------------------------------------------------------------------
 -                                                                             -
 -                           R E F E R E N C E S                               -
 -                                                                             -
 -------------------------------------------------------------------------------
 
 CP2K version 2025.1 (Development Version), the CP2K developers group (2025).
 CP2K is freely available from https://www.cp2k.org/ .
 
 T. D. Kuehne, M. Iannuzzi, M. Del Ben, V. V. Rybkin, P. Seewald, F. Stein, T. 
 Laino, R. Z. Khaliullin, O. Schuett, F. Schiffmann, D. Golze, J. Wilhelm, S. 
 Chulkov, M. H. Bani-Hashemian, V. Weber, U. Borstnik, M. Taillefumier, A. S. 
 Jakobovits, A. Lazzaro, H. Pabst, T. Mueller, R. Schade, M. Guidon, S. 
 Andermatt, N. Holmberg, G. K. Schenter, A. Hehn, A. Bussy, F. Belleflamme, G. 
 Tabacchi, A. Gloess, M. Lass, I. Bethune, C. J. Mundy, C. Plessl, M. Watkins, 
 J. VandeVondele, M. Krack, J. Hutter.
 J. Chem. Phys. 152, 194103 (2020).
 CP2K: An electronic structure and molecular dynamics software package - 
 Quickstep: Efficient and accurate electronic structure calculations.
 https://doi.org/10.1063/5.0007045

 O. Schuett, P. Messmer, J. Hutter, J. VandeVondele.
 Electronic Structure Calculations on Graphics Processing Units, 173-190 (2016).
 GPU-Accelerated Sparse Matrix-Matrix Multiplication for Linear Scaling Density 
 Functional Theory.
 https://doi.org/10.1002/9781118670712.ch8

 J. Hutter, M. Iannuzzi, F. Schiffmann, J. VandeVondele.
 WIREs Comput Mol Sci. 4, 15-25 (2014).
 CP2K: atomistic simulations of condensed matter systems.
 https://doi.org/10.1002/wcms.1159

 U. Borstnik, J. VandeVondele, V. Weber, J. Hutter.
 Parallel Comput. 40, 47-58 (2014).
 Sparse matrix multiplication: The distributed block-compressed sparse row 
 library.
 https://doi.org/10.1016/j.parco.2014.03.012

 J. VandeVondele, J. Hutter.
 J. Chem. Phys. 127, 114105 (2007).
 Gaussian basis sets for accurate calculations on molecular systems in gas and 
 condensed phases.
 https://doi.org/10.1063/1.2770708

 J. VandeVondele, M. Krack, F. Mohamed, M. Parrinello, T. Chassaing, J. Hutter.
 Comput. Phys. Commun. 167, 103-128 (2005).
 QUICKSTEP: Fast and accurate density functional calculations using a mixed 
 Gaussian and plane waves approach.
 https://doi.org/10.1016/j.cpc.2004.12.014

 M. Krack.
 Theor. Chem. Acc. 114, 145-152 (2005).
 Pseudopotentials for H to Kr optimized for gradient-corrected 
 exchange-correlation functionals.
 https://doi.org/10.1007/s00214-005-0655-y

 M. Frigo, S. G. Johnson.
 Proc. IEEE 93, 216-231 (2005).
 The design and implementation of FFTW3.
 https://doi.org/10.1109/JPROC.2004.840301

 C. Hartwigsen, S. Goedecker, J. Hutter.
 Phys. Rev. B 58, 3641-3662 (1998).
 Relativistic separable dual-space Gaussian pseudopotentials from H to Rn.
 https://doi.org/10.1103/PhysRevB.58.3641

 G. Lippert, J. Hutter, M. Parrinello.
 Mol. Phys. 92, 477-487 (1997).
 A hybrid Gaussian and plane wave density functional scheme.
 https://doi.org/10.1080/002689797170220

 S. Goedecker, M. Teter, J. Hutter.
 Phys. Rev. B 54, 1703-1710 (1996).
 Separable dual-space Gaussian pseudopotentials.
 https://doi.org/10.1103/PhysRevB.54.1703

 J. P. Perdew, K. Burke, M. Ernzerhof.
 Phys. Rev. Lett. 77, 3865-3868 (1996).
 Generalized gradient approximation made simple.
 https://doi.org/10.1103/PhysRevLett.77.3865


 -------------------------------------------------------------------------------
 -                                                                             -
 -                                T I M I N G                                  -
 -                                                                             -
 -------------------------------------------------------------------------------
 SUBROUTINE                       CALLS  ASD         SELF TIME        TOTAL TIME
                                MAXIMUM       AVERAGE  MAXIMUM  AVERAGE  MAXIMUM
 CP2K                                 1  1.0    0.010    0.014  124.933  124.933
 qs_energies                          1  2.0    0.007    0.036  123.726  123.742
 scf_env_do_scf                       1  3.0    0.000    0.000  121.730  121.730
 scf_env_do_scf_inner_loop           35  4.0    0.017    0.019  121.730  121.730
 do_general_diag_kp                  36  5.9    0.210    0.243  112.430  114.156
 qs_scf_new_mos_kp                   35  5.0    0.000    0.000  111.040  112.754
 mp_alltoall_i22                 129320  8.8   49.452   78.177   49.452   78.177
 dbcsr_desymmetrize_deep          73916  7.4    1.197    1.391   41.013   60.581
 rskp_transform                   18216  7.0   17.688   47.466   17.688   47.466
 dbcsr_complete_redistribute      55404  8.3    2.028    2.339   31.274   40.030
 kpoint_density_transform            35  7.0    0.078    0.094   31.167   31.222
 copy_fm_to_dbcsr                 17920  8.0    0.109    0.121   19.616   28.170
 transform_dmat                    8960  8.0    8.545   22.780    8.545   22.780
 copy_dbcsr_to_fm                 37484  6.9    0.393    0.428   18.843   19.098
 qs_ks_update_qs_env                 35  5.0    0.000    0.000    3.959    6.924
 rebuild_ks_matrix                   35  6.0    0.000    0.000    3.370    6.336
 qs_ks_build_kohn_sham_matrix        35  7.0    0.033    0.034    3.370    6.336
 cp_fm_start_copy_general         54352  7.3    1.050    1.415    6.134    6.188
 sum_up_and_integrate                35  8.0    0.000    0.000    2.180    5.134
 integrate_v_rspace                  35  9.0    0.029    0.074    2.178    5.131
 dbcsr_finalize                  138160  8.6    0.652    0.726    4.697    5.023
 qs_rho_update_rho_low               36  5.0    0.000    0.000    4.649    4.659
 calculate_rho_elec                  36  6.0    0.037    0.047    4.649    4.658
 grid_integrate_task_list            35 10.0    1.721    4.641    1.721    4.641
 mp_alltoall_d11v                387960  9.4    4.308    4.605    4.308    4.605
 density_rs2pw                       36  7.0    0.001    0.002    2.912    4.313
 transfer_rs2pw                     146  8.0    0.002    0.002    2.771    4.233
 transfer_rs2pw_500                  38  8.9    0.135    0.143    2.680    4.138
 mp_sendrecv_dv                    1022 10.0    2.601    4.061    2.601    4.061
 grid_collocate_task_list            36  7.0    1.693    3.992    1.693    3.992
 cp_cfm_geeig                      1157  6.9    0.009    0.010    3.325    3.376
 mp_allgather_i                  108704  8.3    3.038    3.179    3.038    3.179
 mp_cart_sub                      74970  8.9    3.115    3.161    3.115    3.161
 hybrid_alltoall_any              73916  8.4    0.312    0.338    2.763    3.010
 dbcsr_merge_all                  55404 10.3    1.540    1.668    2.674    2.878
 cp_cfm_heevd                      1157  7.9    0.002    0.002    2.552    2.591
 cp_cfm_heevd_base                 1157  8.9    2.551    2.589    2.551    2.589
 mp_alltoall_i11v                240128  9.0    2.477    2.583    2.477    2.583
 mp_cart_create                   37491  8.9    1.815    1.900    1.815    1.900
 mp_bcast_iv                     217564  8.3    1.338    1.526    1.338    1.526
 dbcsr_work_create               129320  8.8    0.765    0.812    1.274    1.360
 dbcsr_create_new                225475  8.2    0.966    1.064    1.156    1.283
 fft_wrap_pw1pw2                    635 10.0    0.006    0.006    1.201    1.218
 fft_wrap_pw1pw2_500                422 11.3    0.086    0.087    1.105    1.121
 create_qs_kind_set                   1  2.0    0.000    0.000    1.054    1.055
 read_qs_kind                         1  3.0    0.621    0.633    1.054    1.055
 fft3d_ps                           635 12.0    0.416    0.453    0.965    0.984
 dbcsr_iterator_start            406695  9.0    0.804    0.828    0.939    0.980
 dbcsr_work_destroy_all          129320  9.8    0.609    0.616    0.954    0.966
 dbcsr_data_new                 1389164  9.7    0.839    0.931    0.839    0.931
 write_kpoints_restart               35  5.0    0.004    0.007    0.926    0.926
 copy_fm_to_dbcsr_bc              17920  9.0    0.241    0.273    0.832    0.916
 tree_to_linear_d                 55404 11.3    0.877    0.908    0.877    0.908
 copy_dbcsr_to_fm_bc              37484  7.9    0.376    0.406    0.831    0.865
 qs_vxc_create                       35  8.0    0.001    0.001    0.845    0.847
 xc_vxc_pw_create                    35  9.0    0.034    0.036    0.844    0.846
 dbcsr_data_release             1943691 10.2    0.740    0.773    0.740    0.773
 dbcsr_copy                       55266  7.3    0.241    0.266    0.585    0.749
 gspace_mixing                       34  5.0    0.030    0.032    0.739    0.739
 cp_fm_finish_copy_general        22548  7.8    0.569    0.595    0.606    0.639
 dbcsr_destroy                   188655  8.2    0.315    0.333    0.578    0.622
 dbcsr_iterator_stop             406695  9.0    0.505    0.517    0.597    0.614
 dbcsr_dot                        36821  8.0    0.191    0.279    0.591    0.610
 broyden_mixing                      34  6.0    0.593    0.603    0.607    0.609
 evaluate_core_matrix_traces         35  6.0    0.000    0.000    0.588    0.588
 calculate_ptrace_kp                 70  7.0    0.027    0.029    0.588    0.588
 xc_pw_derive                       210 11.0    0.001    0.001    0.544    0.553
 mp_alltoall_z22v                   635 14.0    0.477    0.518    0.477    0.518
 parser_read_line                135843  4.0    0.045    0.046    0.480    0.486
 mp_bcast_im                     108704  8.3    0.401    0.462    0.401    0.462
 xc_rho_set_and_dset_create          35 10.0    0.017    0.018    0.438    0.448
 cp_cfm_triangular_multiply        3471  7.9    0.440    0.447    0.440    0.447
 mp_waitall_1                    225263  8.3    0.246    0.444    0.246    0.444
 parser_read_line_low               155  5.2    0.050    0.221    0.435    0.443
 potential_pw2rs                     35 10.0    0.003    0.003    0.428    0.440
 mp_sum_d                         37523  8.9    0.340    0.436    0.340    0.436
 self_consistency_check              35  5.0    0.026    0.028    0.394    0.427
 dbcsr_copy_into_existing         18446  9.9    0.178    0.316    0.283    0.424
 broadcast_input_information        155  6.2    0.099    0.103    0.384    0.419
 quick_finalize                   73916  9.4    0.215    0.240    0.372    0.415
 cp_fm_write_unformatted           1052  6.0    0.225    0.385    0.230    0.407
 cp_sm_mix                        18410  6.0    0.070    0.118    0.332    0.378
 xc_pw_divergence                    35 10.0    0.000    0.000    0.364    0.371
 kpoint_density_matrices             35  7.0    0.020    0.021    0.332    0.336
 mp_comm_free                    112497  8.9    0.277    0.319    0.277    0.319
 x_to_yz                            350 13.2    0.042    0.046    0.293    0.305
 parallel_gemm_fm                  4480  8.0    0.004    0.004    0.300    0.304
 parallel_gemm_fm_gemm             4480  9.0    0.004    0.004    0.296    0.300
 cp_fm_gemm                        4480 10.0    0.292    0.296    0.292    0.296
 mp_max_d                         18412  7.0    0.219    0.294    0.219    0.294
 transfer_pw2rs                     141 11.0    0.001    0.001    0.285    0.285
 yz_to_x                            285 12.8    0.024    0.028    0.251    0.279
 dbcsr_set                       131953  7.9    0.124    0.131    0.198    0.269
 qs_energies_init_hamiltonians        1  3.0    0.000    0.000    0.237    0.237
 init_scf_run                         1  3.0    0.000    0.000    0.205    0.226
 scf_env_initial_rho_setup            1  4.0    0.000    0.000    0.205    0.226
 transfer_pw2rs_500                  36 11.9    0.117    0.120    0.211    0.215
 mp_bcast_i_src                     620  7.2    0.173    0.207    0.173    0.207
 cp_dbcsr_alloc_block_from_nbl     3894  5.1    0.061    0.144    0.085    0.195
 build_core_hamiltonian_matrix        1  4.0    0.002    0.002    0.091    0.175
 dbcsr_reserve_blocks             21814 10.1    0.111    0.147    0.131    0.170
 mp_isend_dv                      54944  8.3    0.157    0.170    0.157    0.170
 qs_env_update_s_mstruct              1  4.0    0.000    0.000    0.123    0.169
 calculate_rho_core                   1  5.0    0.002    0.004    0.105    0.164
 dbcsr_sort_indices              151134 10.9    0.132    0.162    0.132    0.162
 kpoint_set_mo_occupation            35  7.0    0.058    0.058    0.115    0.162
 xc_functional_eval                  35 11.0    0.000    0.000    0.148    0.160
 pbe_lda_eval                        35 12.0    0.148    0.159    0.148    0.159
 cp_cfm_cholesky_decompose         1157  7.9    0.152    0.157    0.152    0.157
 dbcsr_iterator_seek             406695 10.0    0.135    0.154    0.135    0.154
 cp_cfm_triangular_invert          1157  7.9    0.150    0.153    0.150    0.153
 dbcsr_reserve_all_blocks         17920 10.0    0.028    0.033    0.137    0.152
 dbcsr_zero                      131953  8.9    0.074    0.138    0.074    0.138
 dbcsr_make_index_exist          225475  9.2    0.120    0.136    0.120    0.136
 merge_index                      55404 11.3    0.112    0.124    0.112    0.124
 mp_bcast_am_src                    155  7.2    0.104    0.108    0.110    0.116
 mp_irecv_iv                     217408  8.3    0.014    0.114    0.014    0.114
 mp_sum_dm3                          35  8.0    0.057    0.105    0.057    0.105
 dbcsr_data_copy_aa2              55404 11.2    0.064    0.100    0.064    0.100
 dbcsr_switch_data_area           73916 10.4    0.067    0.068    0.087    0.089
 cp_fm_cleanup_copy_general       38672  7.0    0.054    0.055    0.081    0.083
 pw_scatter_p                       350 12.2    0.078    0.080    0.078    0.080
 mp_isend_iv                     122440  8.3    0.020    0.079    0.020    0.079
 mp_isendrecv_dv                    987 13.0    0.025    0.076    0.025    0.076
 transfer_rs2pw_170                  36  9.0    0.027    0.028    0.067    0.075
 pw_poisson_solve                    35  8.0    0.000    0.000    0.067    0.068
 fft_wrap_pw1pw2_170                 71 10.5    0.004    0.005    0.061    0.065
 mixing_allocate                      1  3.0    0.003    0.003    0.031    0.063
 mp_sum_dv                          330  3.4    0.043    0.061    0.043    0.061
 scf_post_calculation_gpw             1  3.0    0.000    0.000    0.060    0.060
 write_available_results              1  4.0    0.000    0.000    0.059    0.059
 write_mo_free_results                1  5.0    0.002    0.002    0.059    0.059
 mp_irecv_im2                    108704  8.3    0.007    0.057    0.007    0.057
 transfer_pw2rs_170                  35 12.0    0.027    0.029    0.054    0.056
 calculate_first_density_matrix       1  5.0    0.000    0.000    0.035    0.055
 calculate_atomic_block_dm            1  6.0    0.001    0.001    0.034    0.054
 topology_control                     1  2.0    0.000    0.000    0.052    0.054
 dbcsr_distribution_new           55406  8.6    0.044    0.053    0.044    0.053
 cp_cfm_scale_and_add_fm           4628  6.9    0.049    0.050    0.049    0.050
 dbcsr_get_data_size_used        129320  9.8    0.045    0.049    0.045    0.049
 qs_init_subsys                       1  2.0    0.002    0.002    0.047    0.047
 pw_integral_ab_c1d_c1d_gs           35  9.0    0.043    0.044    0.045    0.045
 qs_env_setup                         1  3.0    0.000    0.000    0.044    0.045
 qs_env_rebuild_pw_env                2  3.5    0.000    0.000    0.044    0.044
 pw_env_rebuild                       1  5.0    0.000    0.000    0.044    0.044
 pw_grid_setup                        4  6.0    0.000    0.000    0.042    0.043
 pw_grid_setup_internal               4  7.0    0.001    0.001    0.042    0.043
 dbcsr_make_dbcsr_index          151134 10.9    0.040    0.042    0.040    0.042
 pw_gather_p                        285 11.8    0.040    0.042    0.040    0.042
 build_overlap_matrix_low             1  5.0    0.007    0.011    0.021    0.040
 read_cell_cif                        2  4.5    0.002    0.006    0.036    0.038
 mp_isend_im2                     61220  8.3    0.009    0.037    0.009    0.037
 build_kinetic_matrix_low             1  5.0    0.006    0.009    0.019    0.037
 mp_irecv_dv                      54944  8.3    0.032    0.034    0.032    0.034
 restraint_control                    1  2.0    0.000    0.000    0.016    0.032
 mp_sum_i                             4  2.8    0.016    0.032    0.016    0.032
 coordinate_control                   1  3.0    0.000    0.002    0.031    0.032
 calculate_ecore_overlap              1  4.0    0.000    0.000    0.019    0.032
 coordinate_control_READ_COORDI       1  4.0    0.000    0.000    0.031    0.032
 read_coordinate_cif                  1  5.0    0.002    0.002    0.031    0.032
 qs_env_rebuild_rho                   1  5.0    0.000    0.000    0.015    0.030
 qs_rho_rebuild                       1  6.0    0.001    0.002    0.015    0.030
 pw_grid_sort                         4  8.0    0.019    0.020    0.028    0.029
 build_core_ppnl                      1  5.0    0.017    0.028    0.017    0.028
 hirshfeld_integration                1  6.0    0.008    0.022    0.028    0.028
 mp_sum_iv                           24  5.3    0.016    0.027    0.016    0.027
 qs_scf_ensure_work_matrices          1  3.0    0.000    0.000    0.016    0.027
 mixing_init                          1  5.0    0.023    0.026    0.026    0.026
 calculate_hirshfeld_normalizat       1  6.0    0.007    0.018    0.025    0.025
 build_core_ppl                       1  5.0    0.009    0.025    0.009    0.025
 pw_copy                            525 10.5    0.022    0.022    0.022    0.022
 cp_cfm_to_cfm_columns             1157  7.9    0.021    0.022    0.021    0.022
 mp_recv_dv                        3156  7.0    0.003    0.022    0.003    0.022
 pw_derive                          315 11.3    0.020    0.020    0.020    0.020
 cp_cfm_to_fm                      1157  6.9    0.020    0.020    0.020    0.020
 fft_wrap_pw1pw2_60                  71 10.5    0.001    0.001    0.019    0.019
 mp_sum_dm                           34  7.0    0.009    0.019    0.009    0.019
 transfer_rs2pw_60                   36  9.0    0.005    0.005    0.016    0.018
 get_fft_scratch                    636 13.0    0.004    0.016    0.004    0.016
 pw_poisson_set                      36  8.9    0.000    0.001    0.014    0.015
 transfer_pw2rs_60                   35 12.0    0.005    0.005    0.013    0.014
 pw_copy_from_array                 350 12.2    0.012    0.014    0.012    0.014
 fft3d_s                              1  2.0    0.000    0.000    0.002    0.014
 mp_comm_size                     37947  9.0    0.010    0.013    0.010    0.013
 mp_sum_l                           429  2.1    0.009    0.013    0.009    0.013
 mp_bcast_iv_src                    155  7.2    0.003    0.013    0.003    0.013
 -------------------------------------------------------------------------------

 The number of warnings for this run is : 1
 
 -------------------------------------------------------------------------------
  **** **** ******  **  PROGRAM ENDED AT                 2025-08-04 02:50:41.805
 ***** ** ***  *** **   PROGRAM RAN ON                              i04r11c03s06
 **    ****   ******    PROGRAM RAN BY                                   di38fab
 ***** **    ** ** **   PROGRAM PROCESS ID                               4128464
  **** **  *******  **  PROGRAM STOPPED IN /hppfs/scratch/04/di38fab/09_GTH/Delt
                                           a_Set/Te/TZV2P-MOLOPT-PBE-GTH/8x8x8
