 DBCSR| CPU Multiplication driver                                           BLAS (U)
 DBCSR| Multrec recursion limit                                              512 (U)
 DBCSR| Multiplication stack size                                           1000 (D)
 DBCSR| Maximum elements for images                                    UNLIMITED (U)
 DBCSR| Multiplicative factor virtual images                                   1 (U)
 DBCSR| Use multiplication densification                                       T (D)
 DBCSR| Multiplication size stacks                                             3 (U)
 DBCSR| Use memory pool for CPU allocation                                     F (U)
 DBCSR| Number of 3D layers                                               SINGLE (U)
 DBCSR| Use MPI memory allocation                                              F (U)
 DBCSR| Use RMA algorithm                                                      F (U)
 DBCSR| Use Communication thread                                               T (U)
 DBCSR| Communication thread load                                             45 (D)
 DBCSR| MPI: My process id                                                     0
 DBCSR| MPI: Number of processes                                               8
 DBCSR| OMP: Current number of threads                                        12
 DBCSR| OMP: Max number of threads                                            12
 DBCSR| Split modifier for TAS multiplication algorithm                  1.0E+00 (U)


  **** **** ******  **  PROGRAM STARTED AT               2025-08-05 04:43:11.863
 ***** ** ***  *** **   PROGRAM STARTED ON                          i04r08c01s08
 **    ****   ******    PROGRAM STARTED BY                               di38fab
 ***** **    ** ** **   PROGRAM PROCESS ID                               1552484
  **** **  *******  **  PROGRAM STARTED IN /hppfs/scratch/04/di38fab/09_GTH/Delt
                                           a_Set/Cs/aug-DZVP-MOLOPT-GTH-tier-2-S
                                           R/8x8x8

 CP2K| version string:                 CP2K version 2025.1 (Development Version)
 CP2K| source code revision number:                                  git:3130539
 CP2K| cp2kflags: omp libint fftw3 libxc parallel scalapack max_contr=4         
 CP2K| is freely available from                            https://www.cp2k.org/
 CP2K| Program compiled at                         Tue Jun  3 16:14:32 CEST 2025
 CP2K| Program compiled on                                               login01
 CP2K| Program compiled for                                        Supermuc-foss
 CP2K| Data directory path                  /hppfs/work/pn36zo/di38fab/cp2k/data
 CP2K| Input file name                                                    GW.inp

 GLOBAL| Force Environment number                                              1
 GLOBAL| Basis set file name            /hppfs/scratch/04/di38fab/09_GTH/BASIS_A
 GLOBAL| Potential file name            /hppfs/work/pn36zo/di38fab/cp2k/data/GTH
 GLOBAL| MM Potential file name                                     MM_POTENTIAL
 GLOBAL| Coordinate file name                                             Cs.cif
 GLOBAL| Method name                                                        CP2K
 GLOBAL| Project name                                                       WSe2
 GLOBAL| Run type                                                         ENERGY
 GLOBAL| FFT library                                                       FFTW3
 GLOBAL| Diagonalization library                                       ScaLAPACK
 GLOBAL| Cholesky decomposition library                                ScaLAPACK
 GLOBAL| DGEMM library                                                      BLAS
 GLOBAL| Orthonormality check for eigenvectors                          DISABLED
 GLOBAL| Matrix multiplication library                                 ScaLAPACK
 GLOBAL| All-to-all communication in single precision                          F
 GLOBAL| FFTs using library dependent lengths                                  F
 GLOBAL| Grid backend                                                       AUTO
 GLOBAL| Global print level                                               MEDIUM
 GLOBAL| MPI I/O enabled                                                       T
 GLOBAL| Total number of message passing processes                             8
 GLOBAL| Number of threads for this process                                   12
 GLOBAL| This output is from process                                           0
 GLOBAL| OpenMP stack size per thread (OMP_STACKSIZE)                    default
 GLOBAL| CPU model name             Intel(R) Xeon(R) Platinum 8174 CPU @ 3.10GHz

 MEMORY| system memory details [Kb]
 MEMORY|                        rank 0           min           max       average
 MEMORY| MemTotal             98436664      98436664      98436664      98436664
 MEMORY| MemFree              84598164      84529556      84598164      84563860
 MEMORY| Buffers                     0             0             0             0
 MEMORY| Cached                2373608       2373608       2379524       2376566
 MEMORY| Slab                  1275160       1275160       1288284       1281722
 MEMORY| SReclaimable           271740        271740        273056        272398
 MEMORY| MemLikelyFree        87243512      87182136      87243512      87212824


 *** Fundamental physical constants (SI units) ***

 *** Literature: B. J. Mohr and B. N. Taylor,
 ***             CODATA recommended values of the fundamental physical
 ***             constants: 2006, Web Version 5.1
 ***             http://physics.nist.gov/constants

 Speed of light in vacuum [m/s]                             2.99792458000000E+08
 Magnetic constant or permeability of vacuum [N/A**2]       1.25663706143592E-06
 Electric constant or permittivity of vacuum [F/m]          8.85418781762039E-12
 Planck constant (h) [J*s]                                  6.62606896000000E-34
 Planck constant (h-bar) [J*s]                              1.05457162825177E-34
 Elementary charge [C]                                      1.60217648700000E-19
 Electron mass [kg]                                         9.10938215000000E-31
 Electron g factor [ ]                                     -2.00231930436220E+00
 Proton mass [kg]                                           1.67262163700000E-27
 Fine-structure constant                                    7.29735253760000E-03
 Rydberg constant [1/m]                                     1.09737315685270E+07
 Avogadro constant [1/mol]                                  6.02214179000000E+23
 Boltzmann constant [J/K]                                   1.38065040000000E-23
 Atomic mass unit [kg]                                      1.66053878200000E-27
 Bohr radius [m]                                            5.29177208590000E-11

 *** Conversion factors ***

 [u] -> [a.u.]                                              1.82288848426455E+03
 [Angstrom] -> [Bohr] = [a.u.]                              1.88972613288564E+00
 [a.u.] = [Bohr] -> [Angstrom]                              5.29177208590000E-01
 [a.u.] -> [s]                                              2.41888432650478E-17
 [a.u.] -> [fs]                                             2.41888432650478E-02
 [a.u.] -> [J]                                              4.35974393937059E-18
 [a.u.] -> [N]                                              8.23872205491840E-08
 [a.u.] -> [K]                                              3.15774647902944E+05
 [a.u.] -> [kJ/mol]                                         2.62549961709828E+03
 [a.u.] -> [kcal/mol]                                       6.27509468713739E+02
 [a.u.] -> [Pa]                                             2.94210107994716E+13
 [a.u.] -> [bar]                                            2.94210107994716E+08
 [a.u.] -> [atm]                                            2.90362800883016E+08
 [a.u.] -> [eV]                                             2.72113838565563E+01
 [a.u.] -> [Hz]                                             6.57968392072181E+15
 [a.u.] -> [1/cm] (wave numbers)                            2.19474631370540E+05
 [a.u./Bohr**2] -> [1/cm]                                   5.14048714338585E+03
 

 CELL_TOP| Volume [angstrom^3]:                                       233.919110
 CELL_TOP| Vector a [angstrom     6.162     0.000     0.000   |a| =     6.161530
 CELL_TOP| Vector b [angstrom     0.000     6.162     0.000   |b| =     6.161530
 CELL_TOP| Vector c [angstrom     0.000     0.000     6.162   |c| =     6.161530
 CELL_TOP| Angle (b,c), alpha [degree]:                                90.000000
 CELL_TOP| Angle (a,c), beta  [degree]:                                90.000000
 CELL_TOP| Angle (a,b), gamma [degree]:                                90.000000
 CELL_TOP| Numerically orthorhombic:                                         YES
 CELL_TOP| Periodicity                                                       XYZ

 CELL_CIF| Volume [angstrom^3]:                                       233.919110
 CELL_CIF| Vector a [angstrom     6.162     0.000     0.000   |a| =     6.161530
 CELL_CIF| Vector b [angstrom     0.000     6.162     0.000   |b| =     6.161530
 CELL_CIF| Vector c [angstrom     0.000     0.000     6.162   |c| =     6.161530
 CELL_CIF| Angle (b,c), alpha [degree]:                                90.000000
 CELL_CIF| Angle (a,c), beta  [degree]:                                90.000000
 CELL_CIF| Angle (a,b), gamma [degree]:                                90.000000
 CELL_CIF| Numerically orthorhombic:                                         YES
 CELL_CIF| Periodicity                                                       XYZ

 GENERATE|  Preliminary Number of Bonds generated:                             0
 GENERATE|  Achieved consistency in connectivity generation.

 CELL| Volume [angstrom^3]:                                           233.919110
 CELL| Vector a [angstrom]:       6.162     0.000     0.000   |a| =     6.161530
 CELL| Vector b [angstrom]:       0.000     6.162     0.000   |b| =     6.161530
 CELL| Vector c [angstrom]:       0.000     0.000     6.162   |c| =     6.161530
 CELL| Angle (b,c), alpha [degree]:                                    90.000000
 CELL| Angle (a,c), beta  [degree]:                                    90.000000
 CELL| Angle (a,b), gamma [degree]:                                    90.000000
 CELL| Numerically orthorhombic:                                             YES
 CELL| Periodicity                                                           XYZ

 CELL_REF| Volume [angstrom^3]:                                       233.919110
 CELL_REF| Vector a [angstrom     6.162     0.000     0.000   |a| =     6.161530
 CELL_REF| Vector b [angstrom     0.000     6.162     0.000   |b| =     6.161530
 CELL_REF| Vector c [angstrom     0.000     0.000     6.162   |c| =     6.161530
 CELL_REF| Angle (b,c), alpha [degree]:                                90.000000
 CELL_REF| Angle (a,c), beta  [degree]:                                90.000000
 CELL_REF| Angle (a,b), gamma [degree]:                                90.000000
 CELL_REF| Numerically orthorhombic:                                         YES
 CELL_REF| Periodicity                                                       XYZ

 *** WARNING in cryssym.F:180 :: Symmetry library SPGLIB not available ***


 *******************************************************************************
                                    Kpoints
 *******************************************************************************
 BRILLOUIN| K-point scheme                                        Monkhorst-Pack
 BRILLOUIN| K-Point grid                                             8    8    8
 BRILLOUIN| Accuracy in Symmetry determination                      0.100000E-05
 BRILLOUIN| K-Point point group symmetrization                               OFF
 BRILLOUIN| Wavefunction type                                            COMPLEX
 BRILLOUIN| List of Kpoints [2 Pi/Bohr]                                      256
 BRILLOUIN| Number           Weight            X              Y              Z
 BRILLOUIN|     1           0.00391       -0.43750       -0.43750       -0.43750
 BRILLOUIN|     2           0.00391       -0.43750       -0.43750       -0.31250
 BRILLOUIN|     3           0.00391       -0.43750       -0.43750       -0.18750
 BRILLOUIN|     4           0.00391       -0.43750       -0.43750       -0.06250
 BRILLOUIN|     5           0.00391       -0.43750       -0.43750        0.06250
 BRILLOUIN|     6           0.00391       -0.43750       -0.43750        0.18750
 BRILLOUIN|     7           0.00391       -0.43750       -0.43750        0.31250
 BRILLOUIN|     8           0.00391       -0.43750       -0.43750        0.43750
 BRILLOUIN|     9           0.00391       -0.43750       -0.31250       -0.43750
 BRILLOUIN|    10           0.00391       -0.43750       -0.31250       -0.31250
 BRILLOUIN|    11           0.00391       -0.43750       -0.31250       -0.18750
 BRILLOUIN|    12           0.00391       -0.43750       -0.31250       -0.06250
 BRILLOUIN|    13           0.00391       -0.43750       -0.31250        0.06250
 BRILLOUIN|    14           0.00391       -0.43750       -0.31250        0.18750
 BRILLOUIN|    15           0.00391       -0.43750       -0.31250        0.31250
 BRILLOUIN|    16           0.00391       -0.43750       -0.31250        0.43750
 BRILLOUIN|    17           0.00391       -0.43750       -0.18750       -0.43750
 BRILLOUIN|    18           0.00391       -0.43750       -0.18750       -0.31250
 BRILLOUIN|    19           0.00391       -0.43750       -0.18750       -0.18750
 BRILLOUIN|    20           0.00391       -0.43750       -0.18750       -0.06250
 BRILLOUIN|    21           0.00391       -0.43750       -0.18750        0.06250
 BRILLOUIN|    22           0.00391       -0.43750       -0.18750        0.18750
 BRILLOUIN|    23           0.00391       -0.43750       -0.18750        0.31250
 BRILLOUIN|    24           0.00391       -0.43750       -0.18750        0.43750
 BRILLOUIN|    25           0.00391       -0.43750       -0.06250       -0.43750
 BRILLOUIN|    26           0.00391       -0.43750       -0.06250       -0.31250
 BRILLOUIN|    27           0.00391       -0.43750       -0.06250       -0.18750
 BRILLOUIN|    28           0.00391       -0.43750       -0.06250       -0.06250
 BRILLOUIN|    29           0.00391       -0.43750       -0.06250        0.06250
 BRILLOUIN|    30           0.00391       -0.43750       -0.06250        0.18750
 BRILLOUIN|    31           0.00391       -0.43750       -0.06250        0.31250
 BRILLOUIN|    32           0.00391       -0.43750       -0.06250        0.43750
 BRILLOUIN|    33           0.00391       -0.43750        0.06250       -0.43750
 BRILLOUIN|    34           0.00391       -0.43750        0.06250       -0.31250
 BRILLOUIN|    35           0.00391       -0.43750        0.06250       -0.18750
 BRILLOUIN|    36           0.00391       -0.43750        0.06250       -0.06250
 BRILLOUIN|    37           0.00391       -0.43750        0.06250        0.06250
 BRILLOUIN|    38           0.00391       -0.43750        0.06250        0.18750
 BRILLOUIN|    39           0.00391       -0.43750        0.06250        0.31250
 BRILLOUIN|    40           0.00391       -0.43750        0.06250        0.43750
 BRILLOUIN|    41           0.00391       -0.43750        0.18750       -0.43750
 BRILLOUIN|    42           0.00391       -0.43750        0.18750       -0.31250
 BRILLOUIN|    43           0.00391       -0.43750        0.18750       -0.18750
 BRILLOUIN|    44           0.00391       -0.43750        0.18750       -0.06250
 BRILLOUIN|    45           0.00391       -0.43750        0.18750        0.06250
 BRILLOUIN|    46           0.00391       -0.43750        0.18750        0.18750
 BRILLOUIN|    47           0.00391       -0.43750        0.18750        0.31250
 BRILLOUIN|    48           0.00391       -0.43750        0.18750        0.43750
 BRILLOUIN|    49           0.00391       -0.43750        0.31250       -0.43750
 BRILLOUIN|    50           0.00391       -0.43750        0.31250       -0.31250
 BRILLOUIN|    51           0.00391       -0.43750        0.31250       -0.18750
 BRILLOUIN|    52           0.00391       -0.43750        0.31250       -0.06250
 BRILLOUIN|    53           0.00391       -0.43750        0.31250        0.06250
 BRILLOUIN|    54           0.00391       -0.43750        0.31250        0.18750
 BRILLOUIN|    55           0.00391       -0.43750        0.31250        0.31250
 BRILLOUIN|    56           0.00391       -0.43750        0.31250        0.43750
 BRILLOUIN|    57           0.00391       -0.43750        0.43750       -0.43750
 BRILLOUIN|    58           0.00391       -0.43750        0.43750       -0.31250
 BRILLOUIN|    59           0.00391       -0.43750        0.43750       -0.18750
 BRILLOUIN|    60           0.00391       -0.43750        0.43750       -0.06250
 BRILLOUIN|    61           0.00391       -0.43750        0.43750        0.06250
 BRILLOUIN|    62           0.00391       -0.43750        0.43750        0.18750
 BRILLOUIN|    63           0.00391       -0.43750        0.43750        0.31250
 BRILLOUIN|    64           0.00391       -0.43750        0.43750        0.43750
 BRILLOUIN|    65           0.00391       -0.31250       -0.43750       -0.43750
 BRILLOUIN|    66           0.00391       -0.31250       -0.43750       -0.31250
 BRILLOUIN|    67           0.00391       -0.31250       -0.43750       -0.18750
 BRILLOUIN|    68           0.00391       -0.31250       -0.43750       -0.06250
 BRILLOUIN|    69           0.00391       -0.31250       -0.43750        0.06250
 BRILLOUIN|    70           0.00391       -0.31250       -0.43750        0.18750
 BRILLOUIN|    71           0.00391       -0.31250       -0.43750        0.31250
 BRILLOUIN|    72           0.00391       -0.31250       -0.43750        0.43750
 BRILLOUIN|    73           0.00391       -0.31250       -0.31250       -0.43750
 BRILLOUIN|    74           0.00391       -0.31250       -0.31250       -0.31250
 BRILLOUIN|    75           0.00391       -0.31250       -0.31250       -0.18750
 BRILLOUIN|    76           0.00391       -0.31250       -0.31250       -0.06250
 BRILLOUIN|    77           0.00391       -0.31250       -0.31250        0.06250
 BRILLOUIN|    78           0.00391       -0.31250       -0.31250        0.18750
 BRILLOUIN|    79           0.00391       -0.31250       -0.31250        0.31250
 BRILLOUIN|    80           0.00391       -0.31250       -0.31250        0.43750
 BRILLOUIN|    81           0.00391       -0.31250       -0.18750       -0.43750
 BRILLOUIN|    82           0.00391       -0.31250       -0.18750       -0.31250
 BRILLOUIN|    83           0.00391       -0.31250       -0.18750       -0.18750
 BRILLOUIN|    84           0.00391       -0.31250       -0.18750       -0.06250
 BRILLOUIN|    85           0.00391       -0.31250       -0.18750        0.06250
 BRILLOUIN|    86           0.00391       -0.31250       -0.18750        0.18750
 BRILLOUIN|    87           0.00391       -0.31250       -0.18750        0.31250
 BRILLOUIN|    88           0.00391       -0.31250       -0.18750        0.43750
 BRILLOUIN|    89           0.00391       -0.31250       -0.06250       -0.43750
 BRILLOUIN|    90           0.00391       -0.31250       -0.06250       -0.31250
 BRILLOUIN|    91           0.00391       -0.31250       -0.06250       -0.18750
 BRILLOUIN|    92           0.00391       -0.31250       -0.06250       -0.06250
 BRILLOUIN|    93           0.00391       -0.31250       -0.06250        0.06250
 BRILLOUIN|    94           0.00391       -0.31250       -0.06250        0.18750
 BRILLOUIN|    95           0.00391       -0.31250       -0.06250        0.31250
 BRILLOUIN|    96           0.00391       -0.31250       -0.06250        0.43750
 BRILLOUIN|    97           0.00391       -0.31250        0.06250       -0.43750
 BRILLOUIN|    98           0.00391       -0.31250        0.06250       -0.31250
 BRILLOUIN|    99           0.00391       -0.31250        0.06250       -0.18750
 BRILLOUIN|   100           0.00391       -0.31250        0.06250       -0.06250
 BRILLOUIN|   101           0.00391       -0.31250        0.06250        0.06250
 BRILLOUIN|   102           0.00391       -0.31250        0.06250        0.18750
 BRILLOUIN|   103           0.00391       -0.31250        0.06250        0.31250
 BRILLOUIN|   104           0.00391       -0.31250        0.06250        0.43750
 BRILLOUIN|   105           0.00391       -0.31250        0.18750       -0.43750
 BRILLOUIN|   106           0.00391       -0.31250        0.18750       -0.31250
 BRILLOUIN|   107           0.00391       -0.31250        0.18750       -0.18750
 BRILLOUIN|   108           0.00391       -0.31250        0.18750       -0.06250
 BRILLOUIN|   109           0.00391       -0.31250        0.18750        0.06250
 BRILLOUIN|   110           0.00391       -0.31250        0.18750        0.18750
 BRILLOUIN|   111           0.00391       -0.31250        0.18750        0.31250
 BRILLOUIN|   112           0.00391       -0.31250        0.18750        0.43750
 BRILLOUIN|   113           0.00391       -0.31250        0.31250       -0.43750
 BRILLOUIN|   114           0.00391       -0.31250        0.31250       -0.31250
 BRILLOUIN|   115           0.00391       -0.31250        0.31250       -0.18750
 BRILLOUIN|   116           0.00391       -0.31250        0.31250       -0.06250
 BRILLOUIN|   117           0.00391       -0.31250        0.31250        0.06250
 BRILLOUIN|   118           0.00391       -0.31250        0.31250        0.18750
 BRILLOUIN|   119           0.00391       -0.31250        0.31250        0.31250
 BRILLOUIN|   120           0.00391       -0.31250        0.31250        0.43750
 BRILLOUIN|   121           0.00391       -0.31250        0.43750       -0.43750
 BRILLOUIN|   122           0.00391       -0.31250        0.43750       -0.31250
 BRILLOUIN|   123           0.00391       -0.31250        0.43750       -0.18750
 BRILLOUIN|   124           0.00391       -0.31250        0.43750       -0.06250
 BRILLOUIN|   125           0.00391       -0.31250        0.43750        0.06250
 BRILLOUIN|   126           0.00391       -0.31250        0.43750        0.18750
 BRILLOUIN|   127           0.00391       -0.31250        0.43750        0.31250
 BRILLOUIN|   128           0.00391       -0.31250        0.43750        0.43750
 BRILLOUIN|   129           0.00391       -0.18750       -0.43750       -0.43750
 BRILLOUIN|   130           0.00391       -0.18750       -0.43750       -0.31250
 BRILLOUIN|   131           0.00391       -0.18750       -0.43750       -0.18750
 BRILLOUIN|   132           0.00391       -0.18750       -0.43750       -0.06250
 BRILLOUIN|   133           0.00391       -0.18750       -0.43750        0.06250
 BRILLOUIN|   134           0.00391       -0.18750       -0.43750        0.18750
 BRILLOUIN|   135           0.00391       -0.18750       -0.43750        0.31250
 BRILLOUIN|   136           0.00391       -0.18750       -0.43750        0.43750
 BRILLOUIN|   137           0.00391       -0.18750       -0.31250       -0.43750
 BRILLOUIN|   138           0.00391       -0.18750       -0.31250       -0.31250
 BRILLOUIN|   139           0.00391       -0.18750       -0.31250       -0.18750
 BRILLOUIN|   140           0.00391       -0.18750       -0.31250       -0.06250
 BRILLOUIN|   141           0.00391       -0.18750       -0.31250        0.06250
 BRILLOUIN|   142           0.00391       -0.18750       -0.31250        0.18750
 BRILLOUIN|   143           0.00391       -0.18750       -0.31250        0.31250
 BRILLOUIN|   144           0.00391       -0.18750       -0.31250        0.43750
 BRILLOUIN|   145           0.00391       -0.18750       -0.18750       -0.43750
 BRILLOUIN|   146           0.00391       -0.18750       -0.18750       -0.31250
 BRILLOUIN|   147           0.00391       -0.18750       -0.18750       -0.18750
 BRILLOUIN|   148           0.00391       -0.18750       -0.18750       -0.06250
 BRILLOUIN|   149           0.00391       -0.18750       -0.18750        0.06250
 BRILLOUIN|   150           0.00391       -0.18750       -0.18750        0.18750
 BRILLOUIN|   151           0.00391       -0.18750       -0.18750        0.31250
 BRILLOUIN|   152           0.00391       -0.18750       -0.18750        0.43750
 BRILLOUIN|   153           0.00391       -0.18750       -0.06250       -0.43750
 BRILLOUIN|   154           0.00391       -0.18750       -0.06250       -0.31250
 BRILLOUIN|   155           0.00391       -0.18750       -0.06250       -0.18750
 BRILLOUIN|   156           0.00391       -0.18750       -0.06250       -0.06250
 BRILLOUIN|   157           0.00391       -0.18750       -0.06250        0.06250
 BRILLOUIN|   158           0.00391       -0.18750       -0.06250        0.18750
 BRILLOUIN|   159           0.00391       -0.18750       -0.06250        0.31250
 BRILLOUIN|   160           0.00391       -0.18750       -0.06250        0.43750
 BRILLOUIN|   161           0.00391       -0.18750        0.06250       -0.43750
 BRILLOUIN|   162           0.00391       -0.18750        0.06250       -0.31250
 BRILLOUIN|   163           0.00391       -0.18750        0.06250       -0.18750
 BRILLOUIN|   164           0.00391       -0.18750        0.06250       -0.06250
 BRILLOUIN|   165           0.00391       -0.18750        0.06250        0.06250
 BRILLOUIN|   166           0.00391       -0.18750        0.06250        0.18750
 BRILLOUIN|   167           0.00391       -0.18750        0.06250        0.31250
 BRILLOUIN|   168           0.00391       -0.18750        0.06250        0.43750
 BRILLOUIN|   169           0.00391       -0.18750        0.18750       -0.43750
 BRILLOUIN|   170           0.00391       -0.18750        0.18750       -0.31250
 BRILLOUIN|   171           0.00391       -0.18750        0.18750       -0.18750
 BRILLOUIN|   172           0.00391       -0.18750        0.18750       -0.06250
 BRILLOUIN|   173           0.00391       -0.18750        0.18750        0.06250
 BRILLOUIN|   174           0.00391       -0.18750        0.18750        0.18750
 BRILLOUIN|   175           0.00391       -0.18750        0.18750        0.31250
 BRILLOUIN|   176           0.00391       -0.18750        0.18750        0.43750
 BRILLOUIN|   177           0.00391       -0.18750        0.31250       -0.43750
 BRILLOUIN|   178           0.00391       -0.18750        0.31250       -0.31250
 BRILLOUIN|   179           0.00391       -0.18750        0.31250       -0.18750
 BRILLOUIN|   180           0.00391       -0.18750        0.31250       -0.06250
 BRILLOUIN|   181           0.00391       -0.18750        0.31250        0.06250
 BRILLOUIN|   182           0.00391       -0.18750        0.31250        0.18750
 BRILLOUIN|   183           0.00391       -0.18750        0.31250        0.31250
 BRILLOUIN|   184           0.00391       -0.18750        0.31250        0.43750
 BRILLOUIN|   185           0.00391       -0.18750        0.43750       -0.43750
 BRILLOUIN|   186           0.00391       -0.18750        0.43750       -0.31250
 BRILLOUIN|   187           0.00391       -0.18750        0.43750       -0.18750
 BRILLOUIN|   188           0.00391       -0.18750        0.43750       -0.06250
 BRILLOUIN|   189           0.00391       -0.18750        0.43750        0.06250
 BRILLOUIN|   190           0.00391       -0.18750        0.43750        0.18750
 BRILLOUIN|   191           0.00391       -0.18750        0.43750        0.31250
 BRILLOUIN|   192           0.00391       -0.18750        0.43750        0.43750
 BRILLOUIN|   193           0.00391       -0.06250       -0.43750       -0.43750
 BRILLOUIN|   194           0.00391       -0.06250       -0.43750       -0.31250
 BRILLOUIN|   195           0.00391       -0.06250       -0.43750       -0.18750
 BRILLOUIN|   196           0.00391       -0.06250       -0.43750       -0.06250
 BRILLOUIN|   197           0.00391       -0.06250       -0.43750        0.06250
 BRILLOUIN|   198           0.00391       -0.06250       -0.43750        0.18750
 BRILLOUIN|   199           0.00391       -0.06250       -0.43750        0.31250
 BRILLOUIN|   200           0.00391       -0.06250       -0.43750        0.43750
 BRILLOUIN|   201           0.00391       -0.06250       -0.31250       -0.43750
 BRILLOUIN|   202           0.00391       -0.06250       -0.31250       -0.31250
 BRILLOUIN|   203           0.00391       -0.06250       -0.31250       -0.18750
 BRILLOUIN|   204           0.00391       -0.06250       -0.31250       -0.06250
 BRILLOUIN|   205           0.00391       -0.06250       -0.31250        0.06250
 BRILLOUIN|   206           0.00391       -0.06250       -0.31250        0.18750
 BRILLOUIN|   207           0.00391       -0.06250       -0.31250        0.31250
 BRILLOUIN|   208           0.00391       -0.06250       -0.31250        0.43750
 BRILLOUIN|   209           0.00391       -0.06250       -0.18750       -0.43750
 BRILLOUIN|   210           0.00391       -0.06250       -0.18750       -0.31250
 BRILLOUIN|   211           0.00391       -0.06250       -0.18750       -0.18750
 BRILLOUIN|   212           0.00391       -0.06250       -0.18750       -0.06250
 BRILLOUIN|   213           0.00391       -0.06250       -0.18750        0.06250
 BRILLOUIN|   214           0.00391       -0.06250       -0.18750        0.18750
 BRILLOUIN|   215           0.00391       -0.06250       -0.18750        0.31250
 BRILLOUIN|   216           0.00391       -0.06250       -0.18750        0.43750
 BRILLOUIN|   217           0.00391       -0.06250       -0.06250       -0.43750
 BRILLOUIN|   218           0.00391       -0.06250       -0.06250       -0.31250
 BRILLOUIN|   219           0.00391       -0.06250       -0.06250       -0.18750
 BRILLOUIN|   220           0.00391       -0.06250       -0.06250       -0.06250
 BRILLOUIN|   221           0.00391       -0.06250       -0.06250        0.06250
 BRILLOUIN|   222           0.00391       -0.06250       -0.06250        0.18750
 BRILLOUIN|   223           0.00391       -0.06250       -0.06250        0.31250
 BRILLOUIN|   224           0.00391       -0.06250       -0.06250        0.43750
 BRILLOUIN|   225           0.00391       -0.06250        0.06250       -0.43750
 BRILLOUIN|   226           0.00391       -0.06250        0.06250       -0.31250
 BRILLOUIN|   227           0.00391       -0.06250        0.06250       -0.18750
 BRILLOUIN|   228           0.00391       -0.06250        0.06250       -0.06250
 BRILLOUIN|   229           0.00391       -0.06250        0.06250        0.06250
 BRILLOUIN|   230           0.00391       -0.06250        0.06250        0.18750
 BRILLOUIN|   231           0.00391       -0.06250        0.06250        0.31250
 BRILLOUIN|   232           0.00391       -0.06250        0.06250        0.43750
 BRILLOUIN|   233           0.00391       -0.06250        0.18750       -0.43750
 BRILLOUIN|   234           0.00391       -0.06250        0.18750       -0.31250
 BRILLOUIN|   235           0.00391       -0.06250        0.18750       -0.18750
 BRILLOUIN|   236           0.00391       -0.06250        0.18750       -0.06250
 BRILLOUIN|   237           0.00391       -0.06250        0.18750        0.06250
 BRILLOUIN|   238           0.00391       -0.06250        0.18750        0.18750
 BRILLOUIN|   239           0.00391       -0.06250        0.18750        0.31250
 BRILLOUIN|   240           0.00391       -0.06250        0.18750        0.43750
 BRILLOUIN|   241           0.00391       -0.06250        0.31250       -0.43750
 BRILLOUIN|   242           0.00391       -0.06250        0.31250       -0.31250
 BRILLOUIN|   243           0.00391       -0.06250        0.31250       -0.18750
 BRILLOUIN|   244           0.00391       -0.06250        0.31250       -0.06250
 BRILLOUIN|   245           0.00391       -0.06250        0.31250        0.06250
 BRILLOUIN|   246           0.00391       -0.06250        0.31250        0.18750
 BRILLOUIN|   247           0.00391       -0.06250        0.31250        0.31250
 BRILLOUIN|   248           0.00391       -0.06250        0.31250        0.43750
 BRILLOUIN|   249           0.00391       -0.06250        0.43750       -0.43750
 BRILLOUIN|   250           0.00391       -0.06250        0.43750       -0.31250
 BRILLOUIN|   251           0.00391       -0.06250        0.43750       -0.18750
 BRILLOUIN|   252           0.00391       -0.06250        0.43750       -0.06250
 BRILLOUIN|   253           0.00391       -0.06250        0.43750        0.06250
 BRILLOUIN|   254           0.00391       -0.06250        0.43750        0.18750
 BRILLOUIN|   255           0.00391       -0.06250        0.43750        0.31250
 BRILLOUIN|   256           0.00391       -0.06250        0.43750        0.43750
 *******************************************************************************

 *******************************************************************************
 *******************************************************************************
 **                                                                           **
 **     #####                         ##              ##                      **
 **    ##   ##            ##          ##              ##                      **
 **   ##     ##                       ##            ######                    **
 **   ##     ##  ##   ##  ##   #####  ##  ##   ####   ##    #####    #####    **
 **   ##     ##  ##   ##  ##  ##      ## ##   ##      ##   ##   ##  ##   ##   **
 **   ##  ## ##  ##   ##  ##  ##      ####     ###    ##   ######   ######    **
 **    ##  ###   ##   ##  ##  ##      ## ##      ##   ##   ##       ##        **
 **     #######   #####   ##   #####  ##  ##  ####    ##    #####   ##        **
 **           ##                                                    ##        **
 **                                                                           **
 **                                                ... make the atoms dance   **
 **                                                                           **
 **            Copyright (C) by CP2K developers group (2000-2025)             **
 **                      J. Chem. Phys. 152, 194103 (2020)                    **
 **                                                                           **
 *******************************************************************************

 DFT| Spin restricted Kohn-Sham (RKS) calculation                            RKS
 DFT| Multiplicity                                                             1
 DFT| Number of spin states                                                    1
 DFT| Charge                                                                   0
 DFT| Self-interaction correction (SIC)                                       NO
 DFT| Cutoffs: density                                              1.000000E-10
 DFT|          gradient                                             1.000000E-10
 DFT|          tau                                                  1.000000E-10
 DFT|          cutoff_smoothing_range                               0.000000E+00
 DFT| XC density smoothing                                                  NONE
 DFT| XC derivatives                                                          PW

 FUNCTIONAL| PBE:
 FUNCTIONAL| J.P.Perdew, K.Burke, M.Ernzerhof, Phys. Rev. Letter, vol. 77, n 18,
 FUNCTIONAL|  pp. 3865-3868, (1996) {spin unpolarized}                          


 QS| Method:                                                                 GPW
 QS| Density plane wave grid type                        NON-SPHERICAL FULLSPACE
 QS| Number of grid levels:                                                    4
 QS| Density cutoff [a.u.]:                                                500.0
 QS| Multi grid cutoff [a.u.]: 1) grid level                               500.0
 QS|                           2) grid level                               166.7
 QS|                           3) grid level                                55.6
 QS|                           4) grid level                                18.5
 QS| Grid level progression factor:                                          3.0
 QS| Relative density cutoff [a.u.]:                                        50.0
 QS| Interaction thresholds: eps_pgf_orb:                                1.0E-16
 QS|                         eps_filter_matrix:                          0.0E+00
 QS|                         eps_core_charge:                            1.0E-18
 QS|                         eps_rho_gspace:                             1.0E-16
 QS|                         eps_rho_rspace:                             1.0E-16
 QS|                         eps_gvg_rspace:                             1.0E-08
 QS|                         eps_ppl:                                    1.0E-02
 QS|                         eps_ppnl:                                   1.0E-10


 ATOMIC KIND INFORMATION

  1. Atomic kind: Cs                                    Number of atoms:       2

     Orbital Basis Set                             aug-DZVP-MOLOPT-GTH-tier-2-SR

       Number of orbital shell sets:                                           1
       Number of orbital shells:                                              10
       Number of primitive Cartesian functions:                                7
       Number of Cartesian basis functions:                                   35
       Number of spherical basis functions:                                   30
       Norm type:                                                              2

       Normalised Cartesian orbitals:

                        Set   Shell   Orbital            Exponent    Coefficient

                          1       1    2s                0.026691       0.024754
                                                         0.063240       0.000000
                                                         0.149837      -0.045594
                                                         0.332486      -0.299606
                                                         0.666654      -0.482233
                                                         0.913482       0.447213
                                                         1.000866       0.374651

                          1       2    3s                0.026691       0.050045
                                                         0.063240       0.000000
                                                         0.149837       0.012155
                                                         0.332486      -0.135928
                                                         0.666654       0.056265
                                                         0.913482      -0.059302
                                                         1.000866       0.063458

                          1       3    4s                0.026691       0.047785
                                                         0.063240       0.000000
                                                         0.149837      -0.509540
                                                         0.332486       0.818327
                                                         0.666654      -0.298798
                                                         0.913482       0.189431
                                                         1.000866       0.019138

                          1       4    5s                0.026691      -0.013412
                                                         0.063240      -0.079434
                                                         0.149837       0.017265
                                                         0.332486       0.017494
                                                         0.666654       0.021711
                                                         0.913482       0.046889
                                                         1.000866       0.040027

                          1       5    3px               0.026691       0.000225
                                                         0.063240       0.000000
                                                         0.149837       0.056305
                                                         0.332486       0.148959
                                                         0.666654       0.528297
                                                         0.913482      -0.025434
                                                         1.000866      -0.632251
                          1       5    3py               0.026691       0.000225
                                                         0.063240       0.000000
                                                         0.149837       0.056305
                                                         0.332486       0.148959
                                                         0.666654       0.528297
                                                         0.913482      -0.025434
                                                         1.000866      -0.632251
                          1       5    3pz               0.026691       0.000225
                                                         0.063240       0.000000
                                                         0.149837       0.056305
                                                         0.332486       0.148959
                                                         0.666654       0.528297
                                                         0.913482      -0.025434
                                                         1.000866      -0.632251

                          1       6    4px               0.026691       0.015912
                                                         0.063240       0.000000
                                                         0.149837      -0.009508
                                                         0.332486      -0.012146
                                                         0.666654      -0.106148
                                                         0.913482       0.100874
                                                         1.000866       0.003116
                          1       6    4py               0.026691       0.015912
                                                         0.063240       0.000000
                                                         0.149837      -0.009508
                                                         0.332486      -0.012146
                                                         0.666654      -0.106148
                                                         0.913482       0.100874
                                                         1.000866       0.003116
                          1       6    4pz               0.026691       0.015912
                                                         0.063240       0.000000
                                                         0.149837      -0.009508
                                                         0.332486      -0.012146
                                                         0.666654      -0.106148
                                                         0.913482       0.100874
                                                         1.000866       0.003116

                          1       7    5px               0.026691      -0.000490
                                                         0.063240       0.041439
                                                         0.149837       0.027622
                                                         0.332486      -0.049272
                                                         0.666654       0.005041
                                                         0.913482       0.006190
                                                         1.000866       0.008455
                          1       7    5py               0.026691      -0.000490
                                                         0.063240       0.041439
                                                         0.149837       0.027622
                                                         0.332486      -0.049272
                                                         0.666654       0.005041
                                                         0.913482       0.006190
                                                         1.000866       0.008455
                          1       7    5pz               0.026691      -0.000490
                                                         0.063240       0.041439
                                                         0.149837       0.027622
                                                         0.332486      -0.049272
                                                         0.666654       0.005041
                                                         0.913482       0.006190
                                                         1.000866       0.008455

                          1       8    4dx2              0.026691       0.000970
                                                         0.063240       0.000000
                                                         0.149837      -0.034232
                                                         0.332486      -0.110461
                                                         0.666654      -0.167559
                                                         0.913482       0.087006
                                                         1.000866       0.209581
                          1       8    4dxy              0.026691       0.001680
                                                         0.063240       0.000000
                                                         0.149837      -0.059291
                                                         0.332486      -0.191325
                                                         0.666654      -0.290221
                                                         0.913482       0.150699
                                                         1.000866       0.363005
                          1       8    4dxz              0.026691       0.001680
                                                         0.063240       0.000000
                                                         0.149837      -0.059291
                                                         0.332486      -0.191325
                                                         0.666654      -0.290221
                                                         0.913482       0.150699
                                                         1.000866       0.363005
                          1       8    4dy2              0.026691       0.000970
                                                         0.063240       0.000000
                                                         0.149837      -0.034232
                                                         0.332486      -0.110461
                                                         0.666654      -0.167559
                                                         0.913482       0.087006
                                                         1.000866       0.209581
                          1       8    4dyz              0.026691       0.001680
                                                         0.063240       0.000000
                                                         0.149837      -0.059291
                                                         0.332486      -0.191325
                                                         0.666654      -0.290221
                                                         0.913482       0.150699
                                                         1.000866       0.363005
                          1       8    4dz2              0.026691       0.000970
                                                         0.063240       0.000000
                                                         0.149837      -0.034232
                                                         0.332486      -0.110461
                                                         0.666654      -0.167559
                                                         0.913482       0.087006
                                                         1.000866       0.209581

                          1       9    5dx2              0.026691      -0.001795
                                                         0.063240      -0.005686
                                                         0.149837       0.000139
                                                         0.332486      -0.020666
                                                         0.666654       0.005310
                                                         0.913482       0.003280
                                                         1.000866       0.003849
                          1       9    5dxy              0.026691      -0.003110
                                                         0.063240      -0.009849
                                                         0.149837       0.000240
                                                         0.332486      -0.035795
                                                         0.666654       0.009197
                                                         0.913482       0.005682
                                                         1.000866       0.006667
                          1       9    5dxz              0.026691      -0.003110
                                                         0.063240      -0.009849
                                                         0.149837       0.000240
                                                         0.332486      -0.035795
                                                         0.666654       0.009197
                                                         0.913482       0.005682
                                                         1.000866       0.006667
                          1       9    5dy2              0.026691      -0.001795
                                                         0.063240      -0.005686
                                                         0.149837       0.000139
                                                         0.332486      -0.020666
                                                         0.666654       0.005310
                                                         0.913482       0.003280
                                                         1.000866       0.003849
                          1       9    5dyz              0.026691      -0.003110
                                                         0.063240      -0.009849
                                                         0.149837       0.000240
                                                         0.332486      -0.035795
                                                         0.666654       0.009197
                                                         0.913482       0.005682
                                                         1.000866       0.006667
                          1       9    5dz2              0.026691      -0.001795
                                                         0.063240      -0.005686
                                                         0.149837       0.000139
                                                         0.332486      -0.020666
                                                         0.666654       0.005310
                                                         0.913482       0.003280
                                                         1.000866       0.003849

                          1      10    5fx3              0.026691      -0.000039
                                                         0.063240       0.000021
                                                         0.149837       0.019033
                                                         0.332486       0.013964
                                                         0.666654       0.000338
                                                         0.913482       0.005921
                                                         1.000866       0.007179
                          1      10    5fx2y             0.026691      -0.000086
                                                         0.063240       0.000047
                                                         0.149837       0.042558
                                                         0.332486       0.031224
                                                         0.666654       0.000756
                                                         0.913482       0.013239
                                                         1.000866       0.016053
                          1      10    5fx2z             0.026691      -0.000086
                                                         0.063240       0.000047
                                                         0.149837       0.042558
                                                         0.332486       0.031224
                                                         0.666654       0.000756
                                                         0.913482       0.013239
                                                         1.000866       0.016053
                          1      10    5fxy2             0.026691      -0.000086
                                                         0.063240       0.000047
                                                         0.149837       0.042558
                                                         0.332486       0.031224
                                                         0.666654       0.000756
                                                         0.913482       0.013239
                                                         1.000866       0.016053
                          1      10    5fxyz             0.026691      -0.000150
                                                         0.063240       0.000081
                                                         0.149837       0.073713
                                                         0.332486       0.054081
                                                         0.666654       0.001309
                                                         0.913482       0.022931
                                                         1.000866       0.027804
                          1      10    5fxz2             0.026691      -0.000086
                                                         0.063240       0.000047
                                                         0.149837       0.042558
                                                         0.332486       0.031224
                                                         0.666654       0.000756
                                                         0.913482       0.013239
                                                         1.000866       0.016053
                          1      10    5fy3              0.026691      -0.000039
                                                         0.063240       0.000021
                                                         0.149837       0.019033
                                                         0.332486       0.013964
                                                         0.666654       0.000338
                                                         0.913482       0.005921
                                                         1.000866       0.007179
                          1      10    5fy2z             0.026691      -0.000086
                                                         0.063240       0.000047
                                                         0.149837       0.042558
                                                         0.332486       0.031224
                                                         0.666654       0.000756
                                                         0.913482       0.013239
                                                         1.000866       0.016053
                          1      10    5fyz2             0.026691      -0.000086
                                                         0.063240       0.000047
                                                         0.149837       0.042558
                                                         0.332486       0.031224
                                                         0.666654       0.000756
                                                         0.913482       0.013239
                                                         1.000866       0.016053
                          1      10    5fz3              0.026691      -0.000039
                                                         0.063240       0.000021
                                                         0.149837       0.019033
                                                         0.332486       0.013964
                                                         0.666654       0.000338
                                                         0.913482       0.005921
                                                         1.000866       0.007179

       Atomic covalent radius [Angstrom]:                                  2.350

       Atomic van der Waals radius [Angstrom]:                             3.430

     GTH Potential information for                                       GTH-PBE

       Description:                       Goedecker-Teter-Hutter pseudopotential
                                           Goedecker et al., PRB 54, 1703 (1996)
                                          Hartwigsen et al., PRB 58, 3641 (1998)
                                                      Krack, TCA 114, 145 (2005)

       Gaussian exponent of the core charge distribution:               1.714678
       Electronic configuration (s p d ...):                               3   6

       Parameters of the local part of the GTH pseudopotential:

                          rloc        C1          C2          C3          C4
                        0.540000   33.313317   -2.921217

       Parameters of the non-local part of the GTH (SOC) pseudopotential:

                   l      r(l)      h(i,j,l)
                                    k(i,j,l)
                   0    0.461896   -3.322927    2.455653
                                    2.455653   -3.170235
                   1    0.366359   -4.950764    0.840390    0.000000
                                    0.840390   -0.994363    0.000000
                                    0.000000    0.000000    0.000000
                                    1.479015   -4.820068    0.716375
                                   -4.820068    6.895837   -1.695253
                                    0.716375   -1.695253    1.204825
                   2    0.761502    0.198407
                                    0.010605
                   3    0.597015   -1.550567
                                    0.003222


 MOLECULE KIND INFORMATION


 All atoms are their own molecule, skipping detailed information


 TOTAL NUMBERS AND MAXIMUM NUMBERS

  Total number of            - Atomic kinds:                                   1
                             - Atoms:                                          2
                             - Shell sets:                                     2
                             - Shells:                                        20
                             - Primitive Cartesian functions:                 14
                             - Cartesian basis functions:                     70
                             - Spherical basis functions:                     60

  Maximum angular momentum of- Orbital basis functions:                        3
                             - Local part of the GTH pseudopotential:          2
                             - Non-local part of the GTH pseudopotential:      5


 MODULE QUICKSTEP: ATOMIC COORDINATES IN ANGSTROM

   Atom Kind Element         X             Y             Z       Z(eff)     Mass
      1    1 Cs   55      0.000000      0.000000      0.000000   9.0000 132.9055
      2    1 Cs   55      3.080765      3.080765      3.080765   9.0000 132.9055



 SCF PARAMETERS         Density guess:                                    ATOMIC
                        --------------------------------------------------------
                        max_scf:                                             500
                        max_scf_history:                                       0
                        max_diis:                                              4
                        --------------------------------------------------------
                        eps_scf:                                        1.00E-09
                        eps_scf_history:                                0.00E+00
                        eps_diis:                                       1.00E-01
                        eps_eigval:                                     1.00E-05
                        --------------------------------------------------------
                        level_shift [a.u.]:                             0.000000
                        added MOs                                        51    0
                        --------------------------------------------------------
                        Mixing method:                            BROYDEN_MIXING
                                                charge density mixing in g-space
                        --------------------------------------------------------
                        Smear method:                                FERMI_DIRAC
                        Electronic temperature [K]:                        300.0
                        Electronic temperature [a.u.]:                  9.50E-04
                        Accuracy threshold:                             1.00E-10
                        --------------------------------------------------------
                        No outer SCF

 PW_GRID| Information for grid number                                          1
 PW_GRID| Grid distributed over                                     8 processors
 PW_GRID| Real space group dimensions                                     8    1
 PW_GRID| the grid is blocked:                                                NO
 PW_GRID| Cutoff [a.u.]                                                    500.0
 PW_GRID| spherical cutoff:                                                   NO
 PW_GRID|   Bounds   1            -60      59                Points:         120
 PW_GRID|   Bounds   2            -60      59                Points:         120
 PW_GRID|   Bounds   3            -60      59                Points:         120
 PW_GRID| Volume element (a.u.^3)  0.9135E-03     Volume (a.u.^3)      1578.5644
 PW_GRID| Grid span                                                    FULLSPACE
 PW_GRID|   Distribution                         Average         Max         Min
 PW_GRID|   G-Vectors                           216000.0      216000      216000
 PW_GRID|   G-Rays                                1800.0        1800        1800
 PW_GRID|   Real Space Points                   216000.0      216000      216000

 PW_GRID| Information for grid number                                          2
 PW_GRID| Number of the reference grid                                         1
 PW_GRID| Grid distributed over                                     8 processors
 PW_GRID| Real space group dimensions                                     8    1
 PW_GRID| the grid is blocked:                                                NO
 PW_GRID| Cutoff [a.u.]                                                    166.7
 PW_GRID| spherical cutoff:                                                   NO
 PW_GRID|   Bounds   1            -36      35                Points:          72
 PW_GRID|   Bounds   2            -36      35                Points:          72
 PW_GRID|   Bounds   3            -36      35                Points:          72
 PW_GRID| Volume element (a.u.^3)  0.4229E-02     Volume (a.u.^3)      1578.5644
 PW_GRID| Grid span                                                    FULLSPACE
 PW_GRID|   Distribution                         Average         Max         Min
 PW_GRID|   G-Vectors                            46656.0       46872       46512
 PW_GRID|   G-Rays                                 648.0         651         646
 PW_GRID|   Real Space Points                    46656.0       46656       46656

 PW_GRID| Information for grid number                                          3
 PW_GRID| Number of the reference grid                                         1
 PW_GRID| Grid distributed over                                     8 processors
 PW_GRID| Real space group dimensions                                     8    1
 PW_GRID| the grid is blocked:                                                NO
 PW_GRID| Cutoff [a.u.]                                                     55.6
 PW_GRID| spherical cutoff:                                                   NO
 PW_GRID|   Bounds   1            -20      19                Points:          40
 PW_GRID|   Bounds   2            -20      19                Points:          40
 PW_GRID|   Bounds   3            -20      19                Points:          40
 PW_GRID| Volume element (a.u.^3)  0.2467E-01     Volume (a.u.^3)      1578.5644
 PW_GRID| Grid span                                                    FULLSPACE
 PW_GRID|   Distribution                         Average         Max         Min
 PW_GRID|   G-Vectors                             8000.0        8120        7920
 PW_GRID|   G-Rays                                 200.0         203         198
 PW_GRID|   Real Space Points                     8000.0        8000        8000

 PW_GRID| Information for grid number                                          4
 PW_GRID| Number of the reference grid                                         1
 PW_GRID| Grid distributed over                                     8 processors
 PW_GRID| Real space group dimensions                                     8    1
 PW_GRID| the grid is blocked:                                                NO
 PW_GRID| Cutoff [a.u.]                                                     18.5
 PW_GRID| spherical cutoff:                                                   NO
 PW_GRID|   Bounds   1            -12      11                Points:          24
 PW_GRID|   Bounds   2            -12      11                Points:          24
 PW_GRID|   Bounds   3            -12      11                Points:          24
 PW_GRID| Volume element (a.u.^3)  0.1142         Volume (a.u.^3)      1578.5644
 PW_GRID| Grid span                                                    FULLSPACE
 PW_GRID|   Distribution                         Average         Max         Min
 PW_GRID|   G-Vectors                             1728.0        1800        1680
 PW_GRID|   G-Rays                                  72.0          75          70
 PW_GRID|   Real Space Points                     1728.0        1728        1728

 POISSON| Solver                                                        PERIODIC
 POISSON| Periodicity                                                        XYZ

 RS_GRID| Information for grid number                                          1
 RS_GRID|   Bounds   1            -60      59                Points:         120
 RS_GRID|   Bounds   2            -60      59                Points:         120
 RS_GRID|   Bounds   3            -60      59                Points:         120
 RS_GRID| Real space fully replicated
 RS_GRID| Group size                                                           1

 RS_GRID| Information for grid number                                          2
 RS_GRID|   Bounds   1            -36      35                Points:          72
 RS_GRID|   Bounds   2            -36      35                Points:          72
 RS_GRID|   Bounds   3            -36      35                Points:          72
 RS_GRID| Real space fully replicated
 RS_GRID| Group size                                                           1

 RS_GRID| Information for grid number                                          3
 RS_GRID|   Bounds   1            -20      19                Points:          40
 RS_GRID|   Bounds   2            -20      19                Points:          40
 RS_GRID|   Bounds   3            -20      19                Points:          40
 RS_GRID| Real space fully replicated
 RS_GRID| Group size                                                           1

 RS_GRID| Information for grid number                                          4
 RS_GRID|   Bounds   1            -12      11                Points:          24
 RS_GRID|   Bounds   2            -12      11                Points:          24
 RS_GRID|   Bounds   3            -12      11                Points:          24
 RS_GRID| Real space fully replicated
 RS_GRID| Group size                                                           1

 Number of electrons:                                                         18
 Number of occupied orbitals:                                                  9
 Number of molecular orbitals:                                                60

 Number of orbital functions:                                                 60
 Number of independent orbital functions:                                     60

 Extrapolation method: initial_guess

 Atomic guess: The first density matrix is obtained in terms of atomic orbitals
               and electronic configurations assigned to each atomic kind

 Guess for atomic kind: Cs

 Electronic structure
    Total number of core electrons                                         46.00
    Total number of valence electrons                                       9.00
    Total number of electrons                                              55.00
    Multiplicity                                                   not specified
    S   [  2.00  2.00  2.00  2.00] 2.00  1.00
    P   [  6.00  6.00  6.00] 6.00
    D   [ 10.00 10.00]


 *******************************************************************************
                  Iteration          Convergence                     Energy [au]
 *******************************************************************************
                          1        0.481720                     -19.874781393687
                          2        0.278475                     -19.966788511111
                          3        0.931007E-03                 -19.993903853384
                          4        0.609358E-03                 -19.993913099385
                          5        0.830966E-05                 -19.993913245739
                          6        0.118045E-07                 -19.993913245767

 Energy components [Hartree]           Total Energy ::          -19.993913245767
                                        Band Energy ::           -4.872488224731
                                     Kinetic Energy ::            5.161392556662
                                   Potential Energy ::          -25.155305802429
                                      Virial (-V/T) ::            4.873743960815
                                        Core Energy ::          -33.009199771404
                                          XC Energy ::           -3.036820043123
                                     Coulomb Energy ::           16.052106568760
                       Total Pseudopotential Energy ::          -38.210787892176
                       Local Pseudopotential Energy ::          -37.126668282625
                    Nonlocal Pseudopotential Energy ::           -1.084119609551
                                        Confinement ::            0.401955641095

 Orbital energies  State     L     Occupation   Energy[a.u.]          Energy[eV]

                       1     0          2.000      -0.964173          -26.236486
                       2     0          1.000      -0.056781           -1.545094

                       1     1          6.000      -0.481227          -13.094847


 Total Electron Density at R=0:                                         0.001323
 Re-scaling the density matrix to get the right number of electrons
                  # Electrons              Trace(P)               Scaling factor
                           18                18.000                        1.000


 SCF WAVEFUNCTION OPTIMIZATION

  Step     Update method      Time    Convergence         Total energy    Change
  ------------------------------------------------------------------------------
     1 NoMix/Diag. 0.10E+00    9.0     0.45189220       -40.2899500732 -4.03E+01
     2 Broy./Diag. 0.10E+00    9.5     0.00462987       -40.1377465761  1.52E-01
     3 Broy./Diag. 0.10E+00    9.4     0.07978029       -40.2239911059 -8.62E-02
     4 Broy./Diag. 0.10E+00    9.5     0.00118898       -40.2620883166 -3.81E-02
     5 Broy./Diag. 0.10E+00    9.5     0.00968345       -40.2895562540 -2.75E-02
     6 Broy./Diag. 0.10E+00    9.5     0.00076588       -40.2900171586 -4.61E-04
     7 Broy./Diag. 0.10E+00    9.5     0.00860229       -40.2808359599  9.18E-03
     8 Broy./Diag. 0.10E+00    9.5     0.00023718       -40.2775284115  3.31E-03
     9 Broy./Diag. 0.10E+00    9.5     0.00110724       -40.2754416522  2.09E-03
    10 Broy./Diag. 0.10E+00    9.5     0.00010457       -40.2744245153  1.02E-03
    11 Broy./Diag. 0.10E+00    9.5     0.00093546       -40.2749823008 -5.58E-04
    12 Broy./Diag. 0.10E+00    9.5     0.00001889       -40.2746569599  3.25E-04
    13 Broy./Diag. 0.10E+00    9.5     0.00023719       -40.2746036285  5.33E-05
    14 Broy./Diag. 0.10E+00    9.5     0.00000417       -40.2745286625  7.50E-05
    15 Broy./Diag. 0.10E+00    9.5     0.00001444       -40.2744560306  7.26E-05
    16 Broy./Diag. 0.10E+00    9.5     0.00000860       -40.2744463424  9.69E-06
    17 Broy./Diag. 0.10E+00    9.5     0.00001106       -40.2744506660 -4.32E-06
    18 Broy./Diag. 0.10E+00    9.5     0.00000129       -40.2744439913  6.67E-06
    19 Broy./Diag. 0.10E+00    9.5     0.00000683       -40.2744532442 -9.25E-06
    20 Broy./Diag. 0.10E+00    9.5     0.00000204       -40.2744610258 -7.78E-06
    21 Broy./Diag. 0.10E+00    9.5     0.00000107       -40.2744590663  1.96E-06
    22 Broy./Diag. 0.10E+00    9.5     0.00000065       -40.2744590226  4.37E-08
    23 Broy./Diag. 0.10E+00    9.5     0.00000532       -40.2744599945 -9.72E-07
    24 Broy./Diag. 0.10E+00    9.5     0.00000016       -40.2744597576  2.37E-07
    25 Broy./Diag. 0.10E+00    9.5     0.00000014       -40.2744607534 -9.96E-07
    26 Broy./Diag. 0.10E+00    9.5     0.00000034       -40.2744600192  7.34E-07
    27 Broy./Diag. 0.10E+00    9.5     0.00000045       -40.2744589148  1.10E-06
    28 Broy./Diag. 0.10E+00    9.4     0.00000006       -40.2744586484  2.66E-07
    29 Broy./Diag. 0.10E+00    9.5     0.00000010       -40.2744585515  9.69E-08
    30 Broy./Diag. 0.10E+00    9.5     0.00000009       -40.2744582980  2.53E-07
    31 Broy./Diag. 0.10E+00    9.5     0.00000004       -40.2744582829  1.52E-08
    32 Broy./Diag. 0.10E+00    9.5     0.00000009       -40.2744584157 -1.33E-07
    33 Broy./Diag. 0.10E+00    9.5     0.00000002       -40.2744584595 -4.38E-08
    34 Broy./Diag. 0.10E+00    9.5     9.2413E-09       -40.2744584615 -2.01E-09
    35 Broy./Diag. 0.10E+00    9.5     0.00000004       -40.2744584492  1.24E-08
    36 Broy./Diag. 0.10E+00    9.5     9.3226E-09       -40.2744584616 -1.24E-08
    37 Broy./Diag. 0.10E+00    9.5     6.2231E-09       -40.2744584756 -1.41E-08
    38 Broy./Diag. 0.10E+00    9.5     4.1645E-10       -40.2744584747  9.66E-10

  *** SCF run converged in    38 steps ***


  Electronic density on regular grids:        -18.0000000000       -0.0000000000
  Core density on regular grids:               18.0000000000        0.0000000000
  Total charge density on r-space grids:       -0.0000000000
  Total charge density g-space grids:          -0.0000000000

  Overlap energy of the core charge distribution:               0.00000000000000
  Self energy of the core charge distribution:                -84.62843753216346
  Core Hamiltonian energy:                                     16.38723043817620
  Hartree energy:                                              34.25840587939255
  Exchange-correlation energy:                                 -6.29146550699302
  Electronic entropic energy:                                  -0.00019175307440
  Fermi energy:                                                 0.06177883193970

  Total energy:                                               -40.27445847466198

 !-----------------------------------------------------------------------------!
                     Mulliken Population Analysis

 #  Atom  Element  Kind  Atomic population                           Net charge
       1     Cs       1          9.000000                             -0.000000
       2     Cs       1          9.000000                              0.000000
 # Total charge                             18.000000                  0.000000

 !-----------------------------------------------------------------------------!

 !-----------------------------------------------------------------------------!
                           Hirshfeld Charges

  #Atom  Element  Kind  Ref Charge     Population                    Net charge
      1       Cs     1       9.000          9.000                        -0.000
      2       Cs     1       9.000          9.000                         0.000

  Total Charge                                                            0.000
 !-----------------------------------------------------------------------------!

 KPOINTS| Band Structure Calculation
 KPOINTS| Number of k-point sets                                               1
 KPOINTS| Number of added MOs/bands                                           -1
 KPOINTS| Number of k-points in set    1                                     148
 KPOINTS| In units of b-vector [2pi/Bohr]
 KPOINTS| Special point     1 not specifi     0.000000     0.000000     0.000000
 KPOINTS| Special point     2 not specifi     0.500000    -0.500000     0.500000
 KPOINTS| Special point     3 not specifi     0.000000     0.000000     0.500000
 KPOINTS| Special point     4 not specifi     0.000000     0.000000     0.000000
 KPOINTS| Time for k-point line                                            3.441

 ENERGY| Total FORCE_EVAL ( QS ) energy [hartree]            -40.274458474661984

 -------------------------------------------------------------------------------
 -                                                                             -
 -                                DBCSR STATISTICS                             -
 -                                                                             -
 -------------------------------------------------------------------------------
 COUNTER                                    TOTAL       BLAS       SMM       ACC
 flops inhomo. stacks                           0       0.0%      0.0%      0.0%
 flops total                         0.000000E+00       0.0%      0.0%      0.0%
 flops max/rank                      0.000000E+00       0.0%      0.0%      0.0%
[...]
 -------------------------------------------------------------------------------

 MEMORY| Estimated peak process memory [MiB]                                 761

 -------------------------------------------------------------------------------
 ----                             MULTIGRID INFO                            ----
 -------------------------------------------------------------------------------
 count for grid        1:              0          cutoff [a.u.]          500.00
 count for grid        2:          48578          cutoff [a.u.]          166.67
 count for grid        3:          82546          cutoff [a.u.]           55.56
 count for grid        4:          52594          cutoff [a.u.]           18.52
 total gridlevel count  :         183718

 -------------------------------------------------------------------------------
 -                                                                             -
 -                         MESSAGE PASSING PERFORMANCE                         -
 -                                                                             -
 -------------------------------------------------------------------------------

 ROUTINE             CALLS      AVE VOLUME [Bytes]
 MP_Group                6
 MP_Bcast           353980                   1614.
 MP_Allreduce       168665                     38.
 MP_Sync                 4
 MP_Alltoall           689                9593988.
 MP_SendRecv          1106                 559746.
 MP_ISendRecv         1071                 552502.
 MP_Wait            244355
 MP_comm_split           4
 MP_ISend           258764                    832.
 MP_IRecv           413312                    523.
 -------------------------------------------------------------------------------


 -------------------------------------------------------------------------------
 -                                                                             -
 -                           R E F E R E N C E S                               -
 -                                                                             -
 -------------------------------------------------------------------------------
 
 CP2K version 2025.1 (Development Version), the CP2K developers group (2025).
 CP2K is freely available from https://www.cp2k.org/ .
 
 T. D. Kuehne, M. Iannuzzi, M. Del Ben, V. V. Rybkin, P. Seewald, F. Stein, T. 
 Laino, R. Z. Khaliullin, O. Schuett, F. Schiffmann, D. Golze, J. Wilhelm, S. 
 Chulkov, M. H. Bani-Hashemian, V. Weber, U. Borstnik, M. Taillefumier, A. S. 
 Jakobovits, A. Lazzaro, H. Pabst, T. Mueller, R. Schade, M. Guidon, S. 
 Andermatt, N. Holmberg, G. K. Schenter, A. Hehn, A. Bussy, F. Belleflamme, G. 
 Tabacchi, A. Gloess, M. Lass, I. Bethune, C. J. Mundy, C. Plessl, M. Watkins, 
 J. VandeVondele, M. Krack, J. Hutter.
 J. Chem. Phys. 152, 194103 (2020).
 CP2K: An electronic structure and molecular dynamics software package - 
 Quickstep: Efficient and accurate electronic structure calculations.
 https://doi.org/10.1063/5.0007045

 O. Schuett, P. Messmer, J. Hutter, J. VandeVondele.
 Electronic Structure Calculations on Graphics Processing Units, 173-190 (2016).
 GPU-Accelerated Sparse Matrix-Matrix Multiplication for Linear Scaling Density 
 Functional Theory.
 https://doi.org/10.1002/9781118670712.ch8

 J. Hutter, M. Iannuzzi, F. Schiffmann, J. VandeVondele.
 WIREs Comput Mol Sci. 4, 15-25 (2014).
 CP2K: atomistic simulations of condensed matter systems.
 https://doi.org/10.1002/wcms.1159

 U. Borstnik, J. VandeVondele, V. Weber, J. Hutter.
 Parallel Comput. 40, 47-58 (2014).
 Sparse matrix multiplication: The distributed block-compressed sparse row 
 library.
 https://doi.org/10.1016/j.parco.2014.03.012

 J. VandeVondele, J. Hutter.
 J. Chem. Phys. 127, 114105 (2007).
 Gaussian basis sets for accurate calculations on molecular systems in gas and 
 condensed phases.
 https://doi.org/10.1063/1.2770708

 J. VandeVondele, M. Krack, F. Mohamed, M. Parrinello, T. Chassaing, J. Hutter.
 Comput. Phys. Commun. 167, 103-128 (2005).
 QUICKSTEP: Fast and accurate density functional calculations using a mixed 
 Gaussian and plane waves approach.
 https://doi.org/10.1016/j.cpc.2004.12.014

 M. Krack.
 Theor. Chem. Acc. 114, 145-152 (2005).
 Pseudopotentials for H to Kr optimized for gradient-corrected 
 exchange-correlation functionals.
 https://doi.org/10.1007/s00214-005-0655-y

 M. Frigo, S. G. Johnson.
 Proc. IEEE 93, 216-231 (2005).
 The design and implementation of FFTW3.
 https://doi.org/10.1109/JPROC.2004.840301

 C. Hartwigsen, S. Goedecker, J. Hutter.
 Phys. Rev. B 58, 3641-3662 (1998).
 Relativistic separable dual-space Gaussian pseudopotentials from H to Rn.
 https://doi.org/10.1103/PhysRevB.58.3641

 G. Lippert, J. Hutter, M. Parrinello.
 Mol. Phys. 92, 477-487 (1997).
 A hybrid Gaussian and plane wave density functional scheme.
 https://doi.org/10.1080/002689797170220

 S. Goedecker, M. Teter, J. Hutter.
 Phys. Rev. B 54, 1703-1710 (1996).
 Separable dual-space Gaussian pseudopotentials.
 https://doi.org/10.1103/PhysRevB.54.1703

 J. P. Perdew, K. Burke, M. Ernzerhof.
 Phys. Rev. Lett. 77, 3865-3868 (1996).
 Generalized gradient approximation made simple.
 https://doi.org/10.1103/PhysRevLett.77.3865


 -------------------------------------------------------------------------------
 -                                                                             -
 -                                T I M I N G                                  -
 -                                                                             -
 -------------------------------------------------------------------------------
 SUBROUTINE                       CALLS  ASD         SELF TIME        TOTAL TIME
                                MAXIMUM       AVERAGE  MAXIMUM  AVERAGE  MAXIMUM
 CP2K                                 1  1.0    0.025    0.028  368.611  368.611
 qs_energies                          1  2.0    0.008    0.028  368.320  368.333
 scf_env_do_scf                       1  3.0    0.000    0.000  362.180  362.180
 scf_env_do_scf_inner_loop           38  4.0    0.048    0.051  362.180  362.180
 do_general_diag_kp                  39  5.9    0.210    0.248  331.887  336.946
 qs_scf_new_mos_kp                   38  5.0    0.000    0.000  328.497  333.542
 mp_alltoall_i22                 143844  8.8  245.616  301.881  245.616  301.881
 dbcsr_desymmetrize_deep          81946  7.4    1.217    1.471  182.295  222.238
 rskp_transform                   19752  7.0   34.573  186.496   34.573  186.496
 dbcsr_complete_redistribute      61898  8.2    1.960    2.265   86.931  103.100
 kpoint_density_transform            38  7.0    0.101    0.119   93.034   93.305
 copy_fm_to_dbcsr                 19456  8.0    0.110    0.122   74.631   90.570
 transform_dmat                    9728  8.0   15.983   85.454   15.983   85.454
 qs_ks_update_qs_env                 38  5.0    0.000    0.000    9.924   31.880
 rebuild_ks_matrix                   38  6.0    0.000    0.000    8.207   30.163
 qs_ks_build_kohn_sham_matrix        38  7.0    0.092    0.096    8.206   30.162
 sum_up_and_integrate                38  8.0    0.000    0.000    5.860   27.775
 integrate_v_rspace                  38  9.0    0.048    0.250    5.857   27.771
 grid_integrate_task_list            38 10.0    5.061   26.815    5.061   26.815
 copy_dbcsr_to_fm                 42442  6.9    0.410    0.463   20.046   20.300
 qs_rho_update_rho_low               39  5.0    0.000    0.000   18.945   18.962
 calculate_rho_elec                  39  6.0    0.069    0.106   18.945   18.961
 transfer_rs2pw                     158  8.0    0.002    0.002   15.333   18.776
 transfer_rs2pw_500                  41  8.9    0.231    0.259   15.185   18.636
 mp_sendrecv_dv                    1106 10.0   15.044   18.491   15.044   18.491
 density_rs2pw                       39  7.0    0.002    0.002   15.012   18.271
 grid_collocate_task_list            39  7.0    3.858   17.700    3.858   17.700
 cp_fm_start_copy_general         58960  7.3    0.877    1.259    5.257    5.321
 dbcsr_finalize                  167808  8.4    0.697    0.733    4.945    5.164
 mp_alltoall_d11v                431532  9.4    4.355    4.618    4.355    4.618
 mp_cart_sub                      84886  8.9    3.452    3.476    3.452    3.476
 hybrid_alltoall_any              81946  8.4    0.322    0.350    2.942    3.120
 dbcsr_merge_all                  61898 10.2    1.661    1.893    2.851    3.067
 cp_cfm_geeig_canon                1253  6.9    0.008    0.008    2.516    2.549
 mp_alltoall_i11v                267640  9.0    2.428    2.498    2.428    2.498
 mp_allgather_i                  117920  8.3    2.301    2.443    2.301    2.443
 cp_cfm_heevd                      2506  7.9    0.003    0.003    2.302    2.332
 cp_cfm_heevd_base                 2506  8.9    2.299    2.329    2.299    2.329
 fft_wrap_pw1pw2                    689 10.0    0.007    0.008    2.188    2.207
 write_kpoints_restart               38  5.0    0.011    0.015    2.146    2.147
 dbcsr_dot                       111645  8.0    0.496    0.840    2.039    2.125
 fft_wrap_pw1pw2_500                458 11.3    0.167    0.169    2.031    2.053
 mp_cart_create                   42449  8.9    1.909    1.986    1.909    1.986
 fft3d_ps                           689 12.0    0.717    0.729    1.721    1.748
 evaluate_core_matrix_traces         38  6.0    0.000    0.000    1.717    1.717
 calculate_ptrace_kp                 76  7.0    0.082    0.084    1.717    1.717
 mp_sum_d                        112367  9.0    1.436    1.656    1.436    1.656
 mp_bcast_iv                     235867  8.3    1.389    1.582    1.389    1.582
 qs_vxc_create                       38  8.0    0.001    0.001    1.545    1.548
 xc_vxc_pw_create                    38  9.0    0.063    0.063    1.545    1.548
 cp_dbcsr_alloc_block_from_nbl    10513  5.1    0.257    1.301    0.295    1.454
 dbcsr_work_create               143844  8.8    0.829    0.872    1.339    1.452
 dbcsr_create_new                327939  8.0    1.116    1.199    1.340    1.449
 gspace_mixing                       37  5.0    0.057    0.057    1.440    1.440
 dbcsr_copy                      132569  6.9    0.625    0.695    1.073    1.337
 self_consistency_check              38  5.0    0.078    0.082    1.258    1.322
 qs_energies_init_hamiltonians        1  3.0    0.000    0.000    1.260    1.260
 broyden_mixing                      37  6.0    1.178    1.193    1.205    1.209
 dbcsr_iterator_start            560374  8.8    1.005    1.020    1.153    1.180
 cp_sm_mix                        55822  6.0    0.167    0.355    1.091    1.174
 init_scf_run                         1  3.0    0.000    0.000    0.952    1.037
 scf_env_initial_rho_setup            1  4.0    0.000    0.000    0.952    1.036
 dbcsr_work_destroy_all          143844  9.8    0.676    0.686    1.013    1.025
 xc_pw_derive                       228 11.0    0.001    0.001    0.988    0.997
 dbcsr_data_new                 1556250  9.7    0.869    0.996    0.869    0.996
 tree_to_linear_d                 61898 11.2    0.951    0.983    0.951    0.983
 build_core_hamiltonian_matrix        1  4.0    0.005    0.005    0.255    0.980
 kpoint_set_mo_occupation            38  7.0    0.872    0.917    0.911    0.977
 qs_env_update_s_mstruct              1  4.0    0.000    0.000    0.811    0.950
 calculate_rho_core                   1  5.0    0.002    0.003    0.755    0.936
 copy_dbcsr_to_fm_bc              42442  7.9    0.412    0.429    0.910    0.927
 copy_fm_to_dbcsr_bc              19456  9.0    0.245    0.272    0.843    0.922
 mp_max_d                         55824  7.0    0.791    0.918    0.791    0.918
 mp_alltoall_z22v                   689 14.0    0.885    0.904    0.885    0.904
 xc_rho_set_and_dset_create          38 10.0    0.032    0.040    0.840    0.848
 dbcsr_data_release             2280516 10.1    0.784    0.836    0.784    0.836
 cp_fm_write_unformatted           2938  6.0    0.572    0.777    0.579    0.810
 dbcsr_iterator_stop             560374  8.8    0.652    0.661    0.771    0.786
 potential_pw2rs                     38 10.0    0.004    0.004    0.747    0.764
 dbcsr_destroy                   216295  8.0    0.346    0.372    0.645    0.704
 xc_pw_divergence                    38 10.0    0.001    0.001    0.634    0.641
 x_to_yz                            380 13.2    0.071    0.072    0.567    0.577
 mp_waitall_1                    244355  8.3    0.330    0.565    0.330    0.565
 dbcsr_set                       222013  7.5    0.195    0.204    0.310    0.523
 mixing_allocate                      1  3.0    0.008    0.008    0.115    0.518
 calculate_first_density_matrix       1  5.0    0.001    0.001    0.412    0.496
 transfer_pw2rs                     153 11.0    0.001    0.001    0.494    0.495
 mp_bcast_im                     117920  8.3    0.429    0.495    0.429    0.495
 calculate_atomic_block_dm            1  6.0    0.001    0.001    0.409    0.493
 quick_finalize                   81946  9.4    0.204    0.268    0.338    0.456
 yz_to_x                            309 12.8    0.042    0.043    0.431    0.449
 dbcsr_copy_into_existing         20925  9.7    0.154    0.327    0.270    0.448
 cp_fm_finish_copy_general        24468  7.8    0.306    0.338    0.338    0.387
 transfer_pw2rs_500                  39 11.9    0.196    0.202    0.367    0.377
 kpoint_density_matrices             38  7.0    0.018    0.018    0.320    0.327
 dbcsr_zero                      222013  8.5    0.115    0.320    0.115    0.320
 mp_comm_free                    127369  8.9    0.286    0.318    0.286    0.318
 parallel_gemm_fm                  4864  8.0    0.004    0.005    0.296    0.303
 parallel_gemm_fm_gemm             4864  9.0    0.004    0.005    0.291    0.299
 cp_fm_gemm                        4864 10.0    0.287    0.294    0.287    0.294
 xc_functional_eval                  38 11.0    0.000    0.000    0.284    0.292
 pbe_lda_eval                        38 12.0    0.284    0.292    0.284    0.292
 dbcsr_reserve_blocks             29969  9.3    0.115    0.235    0.136    0.265
 build_overlap_matrix_low             1  5.0    0.017    0.052    0.063    0.254
 build_kinetic_matrix_low             1  5.0    0.017    0.049    0.060    0.238
 calculate_ecore_overlap              1  4.0    0.000    0.000    0.181    0.223
 qs_env_rebuild_rho                   1  5.0    0.000    0.000    0.048    0.196
 qs_rho_rebuild                       1  6.0    0.004    0.004    0.048    0.196
 cp_cfm_gemm                       3759  7.9    0.189    0.191    0.189    0.191
 mp_sum_iv                           24  5.3    0.150    0.184    0.150    0.184
 qs_scf_ensure_work_matrices          1  3.0    0.000    0.000    0.149    0.184
 dbcsr_iterator_seek             560374  9.8    0.147    0.181    0.147    0.181
 dbcsr_sort_indices              173813 11.0    0.097    0.179    0.097    0.179
 scf_post_calculation_gpw             1  3.0    0.000    0.000    0.175    0.175
 write_available_results              1  4.0    0.000    0.000    0.175    0.175
 write_mo_free_results                1  5.0    0.002    0.002    0.175    0.175
 pw_scatter_p                       380 12.2    0.162    0.166    0.162    0.166
 dbcsr_make_index_exist          327939  9.0    0.147    0.165    0.147    0.165
 dbcsr_reserve_all_blocks         19456 10.0    0.028    0.035    0.130    0.152
 build_core_ppnl                      1  5.0    0.037    0.139    0.037    0.139
 transfer_rs2pw_170                  39  9.0    0.046    0.048    0.112    0.129
 pw_poisson_solve                    38  8.0    0.000    0.000    0.128    0.129
 merge_index                      61898 11.2    0.124    0.129    0.124    0.129
 build_core_ppl                       1  5.0    0.024    0.118    0.024    0.118
 mp_irecv_iv                     235840  8.3    0.015    0.116    0.015    0.116
 mp_sum_dv                          333  3.4    0.089    0.116    0.089    0.116
 mp_isend_dv                      59552  8.3    0.104    0.114    0.104    0.114
 fft_wrap_pw1pw2_170                 77 10.5    0.007    0.008    0.111    0.114
 transfer_pw2rs_170                  38 12.0    0.049    0.053    0.098    0.108
 dbcsr_switch_data_area           81946 10.4    0.074    0.076    0.096    0.098
 mp_isendrecv_dv                   1071 13.0    0.046    0.095    0.046    0.095
 parser_read_line                  7549  4.0    0.003    0.003    0.091    0.093
 qs_init_subsys                       1  2.0    0.002    0.002    0.092    0.092
 cp_fm_cleanup_copy_general       41936  7.0    0.055    0.059    0.084    0.092
 parser_read_line_low                26  6.1    0.009    0.036    0.088    0.090
 qs_env_setup                         1  3.0    0.000    0.000    0.089    0.090
 qs_env_rebuild_pw_env                2  3.5    0.000    0.000    0.089    0.089
 pw_env_rebuild                       1  5.0    0.000    0.001    0.089    0.089
 hirshfeld_integration                1  6.0    0.020    0.080    0.089    0.089
 broadcast_input_information         26  7.1    0.028    0.031    0.079    0.085
 pw_integral_ab_c1d_c1d_gs           38  9.0    0.081    0.082    0.084    0.085
 mp_isend_iv                     132808  8.3    0.021    0.079    0.021    0.079
 dbcsr_data_copy_aa2              61898 11.0    0.032    0.076    0.032    0.076
 mp_sum_dm3                          38  8.0    0.039    0.074    0.039    0.074
 create_qs_kind_set                   1  2.0    0.000    0.000    0.073    0.073
 read_qs_kind                         1  3.0    0.037    0.038    0.073    0.073
 pw_gather_p                        309 11.8    0.070    0.072    0.070    0.072
 calculate_hirshfeld_normalizat       1  6.0    0.014    0.056    0.070    0.071
 pw_grid_setup                        4  6.0    0.000    0.000    0.068    0.069
 pw_grid_setup_internal               4  7.0    0.002    0.002    0.068    0.069
 topology_control                     1  2.0    0.000    0.000    0.061    0.061
 mp_irecv_im2                    117920  8.3    0.007    0.056    0.007    0.056
 dbcsr_distribution_new           61900  8.6    0.045    0.055    0.045    0.055
 pw_copy                            570 10.5    0.052    0.054    0.052    0.054
 dbcsr_get_data_size_used        143844  9.8    0.046    0.052    0.046    0.052
 pw_derive                          342 11.3    0.045    0.049    0.045    0.049
 pw_grid_sort                         4  8.0    0.033    0.034    0.047    0.048
 dbcsr_make_dbcsr_index          173813 10.9    0.044    0.045    0.044    0.045
 read_cell_cif                        2  4.5    0.002    0.004    0.041    0.042
 qs_create_task_list                  1  5.0    0.000    0.000    0.007    0.041
 generate_qs_task_list                1  6.0    0.006    0.034    0.007    0.041
 pw_copy_from_array                 380 12.2    0.034    0.039    0.034    0.039
 coordinate_control                   1  3.0    0.001    0.001    0.037    0.037
 coordinate_control_READ_COORDI       1  4.0    0.000    0.000    0.036    0.037
 read_coordinate_cif                  1  5.0    0.002    0.002    0.036    0.037
 -------------------------------------------------------------------------------

 The number of warnings for this run is : 1
 
 -------------------------------------------------------------------------------
  **** **** ******  **  PROGRAM ENDED AT                 2025-08-05 04:49:20.795
 ***** ** ***  *** **   PROGRAM RAN ON                              i04r08c01s08
 **    ****   ******    PROGRAM RAN BY                                   di38fab
 ***** **    ** ** **   PROGRAM PROCESS ID                               1552484
  **** **  *******  **  PROGRAM STOPPED IN /hppfs/scratch/04/di38fab/09_GTH/Delt
                                           a_Set/Cs/aug-DZVP-MOLOPT-GTH-tier-2-S
                                           R/8x8x8
