Tc                                      
   1.00000000000000     
     2.761870    0.000000    0.000000
     1.380935    2.391850    0.000000
     0.000000    0.000000    4.419050
   Tc
     2
Direct
  0.000000  0.000000  0.000000
  0.333333  0.333333  0.500000
 
   28   28   40
  150.67      155.45      165.25      169.94      161.17      137.80      105.73      73.445      47.358      29.841    
  19.887      14.856      12.189      10.841      10.431      10.841      12.189      14.856      19.887      29.841    
  47.358      73.445      105.73      137.80      161.17      169.94      165.25      155.45      155.45      162.64    
  169.41      166.34      148.88      119.92      87.101      57.966      36.689      23.628      16.724      13.202    
  11.307      10.479      10.479      11.307      13.202      16.724      23.628      36.689      57.966      87.101    
  119.92      148.88      166.34      169.41      162.64      155.45      165.25      169.41      167.59      153.96    
  128.62      97.198      66.997      43.241      27.570      18.759      14.269      11.832      10.601      10.228    
  10.601      11.832      14.269      18.759      27.571      43.241      66.996      97.198      128.62      153.96    
  167.59      169.41      165.25      162.71      169.94      166.34      153.96      131.52      102.51      73.026    
  48.391      31.088      20.740      15.289      12.365      10.771      10.076      10.076      10.771      12.365    
  15.289      20.740      31.088      48.391      73.026      102.51      131.52      153.96      166.34      169.94    
  169.61      169.61      161.17      148.88      128.62      102.51      75.138      51.221      33.527      22.338    
  16.162      12.841      10.954      9.9994      9.7100      9.9994      10.954      12.841      16.162      22.338    
  33.527      51.222      75.139      102.51      128.62      148.88      161.17      166.64      168.02      166.65    
  137.80      119.92      97.198      73.026      51.221      34.399      23.234      16.762      13.199      11.113    
  9.9712      9.4732      9.4732      9.9712      11.113      13.199      16.762      23.234      34.399      51.221    
  73.026      97.199      119.92      137.80      149.25      154.56      154.56      149.25      105.73      87.101    
  66.997      48.391      33.527      23.234      16.976      13.391      11.220      9.9662      9.3319      9.1397    
  9.3319      9.9662      11.220      13.391      16.976      23.234      33.526      48.391      66.996      87.102    
  105.73      120.29      129.29      132.30      129.29      120.29      73.445      57.966      43.241      31.088    
  22.338      16.762      13.391      11.257      9.9677      9.2588      8.9494      8.9494      9.2587      9.9677    
  11.257      13.391      16.762      22.338      31.088      43.240      57.965      73.445      87.401      97.796    
  103.29      103.29      97.795      87.400      47.358      36.689      27.570      20.740      16.162      13.199    
  11.220      9.9677      9.2364      8.8644      8.7516      8.8643      9.2362      9.9675      11.220      13.199    
  16.163      20.741      27.570      36.689      47.357      58.171      67.444      73.669      75.857      73.669    
  67.444      58.171      29.841      23.628      18.759      15.289      12.841      11.113      9.9662      9.2588    
  8.8644      8.6912      8.6912      8.8644      9.2586      9.9659      11.112      12.841      15.289      18.759    
  23.629      29.841      36.808      43.521      48.828      51.756      51.757      48.829      43.522      36.809    
  19.887      16.724      14.269      12.365      10.954      9.9712      9.3319      8.9494      8.7516      8.6912    
  8.7518      8.9496      9.3319      9.9709      10.953      12.364      14.269      16.724      19.887      23.689    
  27.720      31.337      33.855      34.758      33.855      31.338      27.720      23.688      14.856      13.202    
  11.832      10.771      9.9994      9.4732      9.1397      8.9494      8.8643      8.8644      8.9496      9.1401    
  9.4735      9.9994      10.771      11.832      13.202      14.856      16.751      18.830      20.863      22.508    
  23.432      23.432      22.508      20.862      18.829      16.751      12.189      11.307      10.601      10.076    
  9.7100      9.4732      9.3319      9.2587      9.2362      9.2586      9.3319      9.4735      9.7105      10.076    
  10.601      11.306      12.188      13.210      14.294      15.338      16.234      16.850      17.070      16.849    
  16.233      15.338      14.294      13.210      10.841      10.479      10.228      10.076      9.9994      9.9712    
  9.9662      9.9677      9.9675      9.9659      9.9709      9.9994      10.076      10.228      10.480      10.841    
  11.301      11.826      12.364      12.847      13.211      13.407      13.407      13.211      12.847      12.364    
  11.827      11.301      10.431      10.479      10.601      10.771      10.954      11.113      11.220      11.257    
  11.220      11.112      10.953      10.771      10.601      10.480      10.432      10.467      10.576      10.735    
  10.909      11.062      11.166      11.203      11.166      11.062      10.909      10.735      10.576      10.466    
  10.841      11.307      11.832      12.365      12.841      13.199      13.391      13.391      13.199      12.841    
  12.364      11.832      11.306      10.841      10.467      10.197      10.022      9.9231      9.8759      9.8579    
  9.8531      9.8533      9.8583      9.8762      9.9231      10.021      10.196      10.466      12.189      13.202    
  14.269      15.289      16.162      16.762      16.976      16.762      16.163      15.289      14.269      13.202    
  12.188      11.301      10.576      10.022      9.6232      9.3551      9.1892      9.1009      9.0734      9.1010    
  9.1892      9.3549      9.6228      10.021      10.576      11.301      14.856      16.724      18.759      20.740    
  22.338      23.234      23.234      22.338      20.741      18.759      16.724      14.856      13.210      11.826    
  10.735      9.9231      9.3551      8.9854      8.7691      8.6707      8.6707      8.7689      8.9851      9.3548    
  9.9231      10.735      11.827      13.210      19.887      23.628      27.571      31.088      33.527      34.399    
  33.526      31.088      27.570      23.629      19.887      16.751      14.294      12.364      10.909      9.8759    
  9.1892      8.7691      8.5475      8.4788      8.5473      8.7690      9.1892      9.8762      10.909      12.364    
  14.294      16.751      29.841      36.689      43.241      48.391      51.222      51.221      48.391      43.240    
  36.689      29.841      23.689      18.830      15.338      12.847      11.062      9.8579      9.1009      8.6707    
  8.4788      8.4788      8.6708      9.1010      9.8582      11.062      12.847      15.338      18.829      23.688    
  47.358      57.966      66.996      73.026      75.139      73.026      66.996      57.965      47.357      36.808    
  27.720      20.863      16.234      13.211      11.166      9.8531      9.0734      8.6707      8.5473      8.6708    
  9.0736      9.8533      11.166      13.211      16.233      20.862      27.720      36.809      73.445      87.101    
  97.198      102.51      102.51      97.199      87.102      73.445      58.171      43.521      31.337      22.508    
  16.850      13.407      11.203      9.8533      9.1010      8.7689      8.7690      9.1010      9.8533      11.203    
  13.406      16.850      22.508      31.338      43.521      58.172      105.73      119.92      128.62      131.52    
  128.62      119.92      105.73      87.401      67.444      48.828      33.855      23.432      17.070      13.407    
  11.166      9.8583      9.1892      8.9851      9.1892      9.8582      11.166      13.406      17.070      23.432    
  33.855      48.829      67.444      87.401      137.80      148.88      153.96      153.96      148.88      137.80    
  120.29      97.796      73.669      51.756      34.758      23.432      16.849      13.211      11.062      9.8762    
  9.3549      9.3548      9.8762      11.062      13.211      16.850      23.432      34.758      51.756      73.669    
  97.795      120.29      161.17      166.34      167.59      166.34      161.17      149.25      129.29      103.29    
  75.857      51.757      33.855      22.508      16.233      12.847      10.909      9.9231      9.6228      9.9231    
  10.909      12.847      16.233      22.508      33.855      51.756      75.857      103.29      129.29      149.25    
  169.94      169.41      169.41      169.94      166.64      154.56      132.30      103.29      73.669      48.829    
  31.338      20.862      15.338      12.364      10.735      10.021      10.021      10.735      12.364      15.338    
  20.862      31.338      48.829      73.669      103.29      132.30      154.56      166.65      165.25      162.64    
  165.25      169.61      168.02      154.56      129.29      97.795      67.444      43.522      27.720      18.829    
  14.294      11.827      10.576      10.196      10.576      11.827      14.294      18.829      27.720      43.521    
  67.444      97.795      129.29      154.56      168.02      169.61      155.45      155.45      162.71      169.61    
  166.65      149.25      120.29      87.400      58.171      36.809      23.688      16.751      13.210      11.301    
  10.466      10.466      11.301      13.210      16.751      23.688      36.809      58.172      87.401      120.29    
  149.25      166.65      169.61      162.71      156.47      160.26      167.56      169.34      158.37      134.07    
  102.20      70.753      45.628      28.880      19.403      14.599      12.025      10.723      10.327      10.722    
  12.025      14.600      19.403      28.879      45.628      70.753      102.20      134.07      158.37      169.34    
  167.56      160.26      160.26      165.71      169.83      164.30      145.41      116.23      84.028      55.842    
  35.434      22.977      16.402      13.013      11.181      10.381      10.381      11.181      13.013      16.402    
  22.977      35.434      55.842      84.028      116.23      145.41      164.30      169.83      165.71      160.26    
  167.56      169.83      165.87      150.73      124.91      93.898      64.569      41.721      26.746      18.353    
  14.052      11.697      10.506      10.144      10.505      11.697      14.052      18.353      26.746      41.722    
  64.569      93.897      124.91      150.73      165.87      169.83      167.56      165.78      169.34      164.30    
  150.73      127.82      99.111      70.414      46.675      30.113      20.249      15.043      12.217      10.674    
  10.000      10.000      10.674      12.217      15.043      20.249      30.113      46.675      70.414      99.111    
  127.82      150.73      164.30      169.34      169.99      169.99      158.37      145.41      124.91      99.111    
  72.465      49.401      32.450      21.778      15.886      12.682      10.853      9.9281      9.6471      9.9279    
  10.853      12.682      15.886      21.777      32.450      49.402      72.465      99.111      124.91      145.41    
  158.37      164.56      166.23      164.56      134.07      116.23      93.898      70.414      49.401      33.286    
  22.634      16.463      13.031      11.009      9.9005      9.4165      9.4164      9.9004      11.009      13.031    
  16.462      22.634      33.286      49.401      70.414      93.898      116.23      134.07      145.72      151.23    
  151.23      145.72      102.20      84.028      64.569      46.675      32.450      22.634      16.668      13.219    
  11.113      9.8947      9.2774      9.0901      9.2773      9.8948      11.113      13.219      16.668      22.634    
  32.449      46.674      64.569      84.028      102.20      116.52      125.45      128.45      125.45      116.52    
  70.753      55.842      41.721      30.113      21.778      16.463      13.219      11.149      9.8954      9.2045    
  8.9025      8.9024      9.2044      9.8955      11.150      13.219      16.463      21.778      30.112      41.721    
  55.841      70.753      84.262      94.372      99.736      99.735      94.371      84.261      45.628      35.434    
  26.746      20.249      15.886      13.031      11.113      9.8954      9.1820      8.8181      8.7074      8.8179    
  9.1819      9.8954      11.113      13.032      15.886      20.250      26.746      35.434      45.627      55.992    
  64.905      70.904      73.015      70.904      64.905      55.992      28.880      22.977      18.353      15.043    
  12.682      11.009      9.8947      9.2045      8.8181      8.6477      8.6476      8.8180      9.2044      9.8945    
  11.008      12.682      15.044      18.354      22.978      28.880      35.510      41.910      46.980      49.780    
  49.781      46.980      41.911      35.510      19.403      16.402      14.052      12.217      10.853      9.9005    
  9.2774      8.9025      8.7074      8.6476      8.7075      8.9026      9.2774      9.9002      10.853      12.217    
  14.052      16.402      19.404      23.005      26.824      30.256      32.646      33.504      32.647      30.256    
  26.825      23.004      14.599      13.013      11.697      10.674      9.9281      9.4165      9.0901      8.9024    
  8.8179      8.8180      8.9026      9.0905      9.4167      9.9279      10.674      11.696      13.013      14.599    
  16.404      18.369      20.289      21.841      22.714      22.714      21.841      20.288      18.369      16.403    
  12.025      11.181      10.506      10.000      9.6471      9.4164      9.2773      9.2044      9.1819      9.2044    
  9.2774      9.4167      9.6476      10.001      10.505      11.181      12.024      13.000      14.035      15.027    
  15.873      16.454      16.661      16.453      15.873      15.027      14.035      13.000      10.723      10.381    
  10.144      10.000      9.9279      9.9004      9.8948      9.8955      9.8954      9.8945      9.9002      9.9279    
  10.001      10.144      10.382      10.723      11.157      11.654      12.162      12.619      12.963      13.148    
  13.148      12.963      12.619      12.163      11.655      11.158      10.327      10.381      10.505      10.674    
  10.853      11.009      11.113      11.150      11.113      11.008      10.853      10.674      10.505      10.382    
  10.328      10.353      10.448      10.592      10.751      10.891      10.986      11.020      10.986      10.891    
  10.751      10.592      10.449      10.352      10.722      11.181      11.697      12.217      12.682      13.031    
  13.219      13.219      13.032      12.682      12.217      11.696      11.181      10.723      10.353      10.082    
  9.9043      9.8002      9.7471      9.7240      9.7162      9.7164      9.7244      9.7475      9.8003      9.9040    
  10.082      10.352      12.025      13.013      14.052      15.043      15.886      16.462      16.668      16.463    
  15.886      15.044      14.052      13.013      12.024      11.157      10.448      9.9043      9.5111      9.2449    
  9.0787      8.9895      8.9616      8.9896      9.0788      9.2447      9.5107      9.9039      10.448      11.158    
  14.600      16.402      18.353      20.249      21.777      22.634      22.634      21.778      20.250      18.354    
  16.402      14.599      13.000      11.654      10.592      9.8002      9.2449      8.8821      8.6690      8.5717    
  8.5716      8.6688      8.8818      9.2446      9.8001      10.592      11.655      13.000      19.403      22.977    
  26.746      30.113      32.450      33.286      32.449      30.112      26.746      22.978      19.404      16.404    
  14.035      12.162      10.751      9.7471      9.0787      8.6690      8.4523      8.3851      8.4521      8.6688    
  9.0787      9.7473      10.751      12.163      14.035      16.403      28.879      35.434      41.722      46.675    
  49.402      49.401      46.674      41.721      35.434      28.880      23.005      18.369      15.027      12.619    
  10.891      9.7240      8.9895      8.5717      8.3851      8.3850      8.5716      8.9896      9.7243      10.891    
  12.619      15.027      18.369      23.004      45.628      55.842      64.569      70.414      72.465      70.414    
  64.569      55.841      45.627      35.510      26.824      20.289      15.873      12.963      10.986      9.7162    
  8.9616      8.5716      8.4521      8.5716      8.9618      9.7165      10.986      12.963      15.873      20.288    
  26.824      35.510      70.753      84.028      93.897      99.111      99.111      93.898      84.028      70.753    
  55.992      41.910      30.256      21.841      16.454      13.148      11.020      9.7164      8.9896      8.6688    
  8.6688      8.9896      9.7165      11.020      13.148      16.453      21.841      30.256      41.911      55.992    
  102.20      116.23      124.91      127.82      124.91      116.23      102.20      84.262      64.905      46.980    
  32.646      22.714      16.661      13.148      10.986      9.7244      9.0788      8.8818      9.0787      9.7243    
  10.986      13.148      16.661      22.714      32.647      46.980      64.906      84.262      134.07      145.41    
  150.73      150.73      145.41      134.07      116.52      94.372      70.904      49.780      33.504      22.714    
  16.453      12.963      10.891      9.7475      9.2447      9.2446      9.7473      10.891      12.963      16.453    
  22.714      33.505      49.780      70.904      94.371      116.52      158.37      164.30      165.87      164.30    
  158.37      145.72      125.45      99.736      73.015      49.781      32.647      21.841      15.873      12.619    
  10.751      9.8003      9.5107      9.8001      10.751      12.619      15.873      21.841      32.647      49.780    
  73.015      99.735      125.45      145.72      169.34      169.83      169.83      169.34      164.56      151.23    
  128.45      99.735      70.904      46.980      30.256      20.288      15.027      12.163      10.592      9.9040    
  9.9039      10.592      12.163      15.027      20.288      30.256      46.980      70.904      99.735      128.45    
  151.23      164.56      167.56      165.71      167.56      169.99      166.23      151.23      125.45      94.371    
  64.905      41.911      26.825      18.369      14.035      11.655      10.449      10.082      10.448      11.655    
  14.035      18.369      26.824      41.911      64.906      94.371      125.45      151.23      166.23      169.99    
  160.26      160.26      165.78      169.99      164.56      145.72      116.52      84.261      55.992      35.510    
  23.004      16.403      13.000      11.158      10.352      10.352      11.158      13.000      16.403      23.004    
  35.510      55.992      84.262      116.52      145.72      164.56      169.99      165.77      167.09      168.47    
  169.76      164.71      148.82      122.81      92.066      63.227      40.870      26.263      18.091      13.886    
  11.569      10.396      10.039      10.395      11.569      13.887      18.091      26.262      40.870      63.228    
  92.067      122.81      148.82      164.71      169.76      168.47      168.47      169.75      167.55      156.40    
  134.55      105.43      75.345      49.959      32.004      21.213      15.522      12.490      10.837      10.114    
  10.114      10.837      12.490      15.522      21.212      32.004      49.959      75.345      105.43      134.55    
  156.40      167.55      169.75      168.47      169.76      167.55      158.68      140.32      113.90      84.488    
  57.804      37.550      24.506      17.254      13.456      11.327      10.249      9.9212      10.249      11.327    
  13.457      17.254      24.506      37.550      57.804      84.487      113.90      140.32      158.69      167.55    
  169.76      169.78      164.71      156.40      140.32      116.78      89.369      63.099      41.946      27.458    
  18.923      14.374      11.820      10.420      9.8083      9.8080      10.420      11.820      14.374      18.923    
  27.458      41.946      63.100      89.369      116.78      140.32      156.40      164.71      167.64      167.64    
  148.82      134.55      113.90      89.369      64.966      44.376      29.513      20.264      15.142      12.257    
  10.597      9.7545      9.4985      9.7541      10.597      12.258      15.141      20.264      29.513      44.376    
  64.967      89.369      113.90      134.55      148.82      156.53      158.86      156.53      122.81      105.43    
  84.488      63.099      44.376      30.250      21.016      15.660      12.586      10.747      9.7365      9.2944    
  9.2942      9.7363      10.747      12.586      15.660      21.015      30.250      44.376      63.100      84.488    
  105.43      122.81      134.69      140.55      140.55      134.69      92.066      75.345      57.804      41.946    
  29.513      21.016      15.845      12.761      10.847      9.7348      9.1697      8.9979      9.1695      9.7349    
  10.847      12.761      15.844      21.016      29.513      41.946      57.803      75.346      92.067      105.54    
  114.13      117.05      114.13      105.54      63.227      49.959      37.550      27.458      20.264      15.660    
  12.761      10.882      9.7367      9.1033      8.8256      8.8254      9.1032      9.7370      10.882      12.761    
  15.660      20.264      27.458      37.549      49.958      63.228      75.410      84.639      89.582      89.581    
  84.639      75.409      40.870      32.004      24.506      18.923      15.142      12.586      10.847      9.7367    
  9.0827      8.7475      8.6452      8.7472      9.0825      9.7368      10.847      12.586      15.142      18.923    
  24.506      32.003      40.869      49.963      57.848      63.189      65.076      63.189      57.847      49.963    
  26.263      21.213      17.254      14.374      12.257      10.747      9.7348      9.1033      8.7475      8.5896    
  8.5895      8.7472      9.1032      9.7346      10.747      12.257      14.375      17.255      21.213      26.263    
  31.962      37.496      41.900      44.342      44.342      41.901      37.496      31.962      18.091      15.522    
  13.456      11.820      10.597      9.7365      9.1697      8.8256      8.6452      8.5895      8.6451      8.8257    
  9.1696      9.7362      10.596      11.819      13.456      15.522      18.092      21.148      24.392      27.313    
  29.354      30.088      29.355      27.314      24.392      21.148      13.886      12.490      11.327      10.420    
  9.7545      9.2944      8.9979      8.8254      8.7472      8.7472      8.8257      8.9983      9.2946      9.7543    
  10.420      11.327      12.490      13.887      15.450      17.117      18.731      20.035      20.767      20.767    
  20.035      18.731      17.116      15.450      11.569      10.837      10.249      9.8083      9.4985      9.2942    
  9.1695      9.1032      9.0825      9.1032      9.1696      9.2946      9.4989      9.8084      10.249      10.836    
  11.569      12.414      13.311      14.167      14.885      15.371      15.544      15.371      14.884      14.167    
  13.311      12.415      10.396      10.114      9.9212      9.8080      9.7541      9.7363      9.7349      9.7370    
  9.7368      9.7346      9.7362      9.7543      9.8084      9.9217      10.114      10.395      10.758      11.174    
  11.601      11.984      12.273      12.428      12.428      12.273      11.984      11.601      11.175      10.758    
  10.039      10.114      10.249      10.420      10.597      10.747      10.847      10.882      10.847      10.747    
  10.596      10.420      10.249      10.114      10.039      10.034      10.091      10.191      10.308      10.413    
  10.484      10.510      10.484      10.413      10.308      10.192      10.091      10.033      10.395      10.837    
  11.327      11.820      12.258      12.586      12.761      12.761      12.586      12.257      11.819      11.327    
  10.836      10.395      10.034      9.7617      9.5741      9.4550      9.3852      9.3480      9.3322      9.3324    
  9.3484      9.3856      9.4552      9.5739      9.7613      10.033      11.569      12.490      13.457      14.374    
  15.141      15.660      15.844      15.660      15.142      14.375      13.456      12.490      11.569      10.758    
  10.091      9.5741      9.1956      8.9342      8.7672      8.6755      8.6465      8.6757      8.7674      8.9341    
  9.1952      9.5737      10.091      10.758      13.887      15.522      17.254      18.923      20.264      21.015    
  21.016      20.264      18.923      17.255      15.522      13.887      12.414      11.174      10.191      9.4550    
  8.9342      8.5903      8.3858      8.2916      8.2915      8.3857      8.5900      8.9339      9.4548      10.192    
  11.175      12.415      18.091      21.212      24.506      27.458      29.513      30.250      29.513      27.458    
  24.506      21.213      18.092      15.450      13.311      11.601      10.308      9.3852      8.7672      8.3858    
  8.1828      8.1195      8.1826      8.3856      8.7672      9.3853      10.308      11.601      13.311      15.450    
  26.262      32.004      37.550      41.946      44.376      44.376      41.946      37.549      32.003      26.263    
  21.148      17.117      14.167      11.984      10.413      9.3480      8.6755      8.2916      8.1195      8.1194    
  8.2914      8.6756      9.3484      10.413      11.984      14.167      17.116      21.147      40.870      49.959    
  57.804      63.100      64.967      63.100      57.803      49.958      40.869      31.962      24.392      18.731    
  14.885      12.273      10.484      9.3322      8.6465      8.2915      8.1826      8.2914      8.6466      9.3326    
  10.484      12.273      14.884      18.731      24.391      31.962      63.228      75.345      84.487      89.369    
  89.369      84.488      75.346      63.228      49.963      37.496      27.313      20.035      15.371      12.428    
  10.510      9.3324      8.6757      8.3857      8.3856      8.6756      9.3326      10.510      12.428      15.370    
  20.035      27.314      37.496      49.963      92.067      105.43      113.90      116.78      113.90      105.43    
  92.067      75.410      57.848      41.900      29.354      20.767      15.544      12.428      10.484      9.3484    
  8.7674      8.5900      8.7672      9.3484      10.484      12.428      15.543      20.767      29.355      41.901    
  57.848      75.410      122.81      134.55      140.32      140.32      134.55      122.81      105.54      84.639    
  63.189      44.342      30.088      20.767      15.371      12.273      10.413      9.3856      8.9341      8.9339    
  9.3853      10.413      12.273      15.370      20.767      30.089      44.342      63.189      84.639      105.54    
  148.82      156.40      158.69      156.40      148.82      134.69      114.13      89.582      65.076      44.342    
  29.355      20.035      14.884      11.984      10.308      9.4552      9.1952      9.4548      10.308      11.984    
  14.884      20.035      29.355      44.342      65.076      89.581      114.13      134.69      164.71      167.55    
  167.55      164.71      156.53      140.55      117.05      89.581      63.189      41.901      27.314      18.731    
  14.167      11.601      10.192      9.5739      9.5737      10.192      11.601      14.167      18.731      27.314    
  41.901      63.189      89.581      117.05      140.55      156.53      169.76      169.75      169.76      167.64    
  158.86      140.55      114.13      84.639      57.847      37.496      24.392      17.116      13.311      11.175    
  10.091      9.7613      10.091      11.175      13.311      17.116      24.391      37.496      57.848      84.639    
  114.13      140.55      158.86      167.64      168.47      168.47      169.78      167.64      156.53      134.69    
  105.54      75.409      49.963      31.962      21.148      15.450      12.415      10.758      10.033      10.033    
  10.758      12.415      15.450      21.147      31.962      49.963      75.410      105.54      134.69      156.53    
  167.64      169.78      168.40      167.27      162.37      150.70      130.79      104.63      76.876      52.431    
  34.238      22.684      16.292      12.866      10.917      9.9284      9.6275      9.9278      10.917      12.866    
  16.292      22.684      34.238      52.431      76.876      104.63      130.79      150.70      162.37      167.26    
  167.27      164.23      155.77      139.60      116.07      88.773      62.659      41.654      27.277      18.810    
  14.291      11.746      10.350      9.7393      9.7389      10.350      11.746      14.292      18.809      27.276    
  41.654      62.659      88.772      116.07      139.60      155.77      164.23      167.27      162.37      155.77    
  142.47      121.95      96.533      70.525      48.144      31.754      21.452      15.750      12.612      10.812    
  9.8984      9.6203      9.8978      10.812      12.613      15.751      21.452      31.754      48.145      70.525    
  96.532      121.95      142.47      155.77      162.37      164.22      150.70      139.60      121.95      99.216    
  74.784      52.574      35.332      23.825      17.124      13.434      11.271      10.083      9.5627      9.5623    