Tc                                      
   1.00000000000000     
     2.761870    0.000000    0.000000
     1.380935    2.391850    0.000000
     0.000000    0.000000    4.419050
   Tc
     2
Direct
  0.000000  0.000000  0.000000
  0.333333  0.333333  0.500000
 
   28   28   40
 0.15067199508E+03 0.15544992584E+03 0.16525400925E+03 0.16994095488E+03 0.16116737450E+03
 0.13780049217E+03 0.10573320704E+03 0.73444968672E+02 0.47357660675E+02 0.29841403136E+02
 0.19886738098E+02 0.14856020484E+02 0.12188800409E+02 0.10840541467E+02 0.10431162778E+02
 0.10840529436E+02 0.12188795770E+02 0.14856031153E+02 0.19886747161E+02 0.29841394727E+02
 0.47357645663E+02 0.73444970064E+02 0.10573322615E+03 0.13780050598E+03 0.16116736772E+03
 0.16994093900E+03 0.16525400278E+03 0.15544992864E+03 0.15544992584E+03 0.16263997143E+03
 0.16941379777E+03 0.16634037737E+03 0.14888105030E+03 0.11992353396E+03 0.87101284411E+02
 0.57965785435E+02 0.36689232698E+02 0.23628086656E+02 0.16723768882E+02 0.13202252313E+02
 0.11306822192E+02 0.10479282757E+02 0.10479286190E+02 0.11306827842E+02 0.13202269427E+02
 0.16723836108E+02 0.23628211133E+02 0.36689307849E+02 0.57965627752E+02 0.87100820719E+02
 0.11992296841E+03 0.14888079747E+03 0.16634075346E+03 0.16941471718E+03 0.16264093202E+03
 0.15545033338E+03 0.16525400925E+03 0.16941379777E+03 0.16759316779E+03 0.15396081436E+03
 0.12862450021E+03 0.97198261937E+02 0.66996504707E+02 0.43240906595E+02 0.27570368930E+02
 0.18758833611E+02 0.14268706916E+02 0.11832328351E+02 0.10601232404E+02 0.10227644524E+02
 0.10601233195E+02 0.11832313725E+02 0.14268705661E+02 0.18758916815E+02 0.27570537763E+02
 0.43241009861E+02 0.66996342162E+02 0.97197815228E+02 0.12862404300E+03 0.15396073790E+03
 0.16759364540E+03 0.16941459186E+03 0.16525461065E+03 0.16271494548E+03 0.16994095488E+03
 0.16634037737E+03 0.15396081436E+03 0.13151786205E+03 0.10250886252E+03 0.73025914238E+02
 0.48390975877E+02 0.31088232980E+02 0.20740489657E+02 0.15288996323E+02 0.12364721796E+02
 0.10771156910E+02 0.10075538742E+02 0.10075531607E+02 0.10771129477E+02 0.12364668172E+02
 0.15288936027E+02 0.20740477810E+02 0.31088331462E+02 0.48391195181E+02 0.73026174710E+02
 0.10250902213E+03 0.13151780370E+03 0.15396052850E+03 0.16633997648E+03 0.16994061353E+03
 0.16960618594E+03 0.16960631882E+03 0.16116737450E+03 0.14888105030E+03 0.12862450021E+03
 0.10250886252E+03 0.75138422849E+02 0.51221359301E+02 0.33526724732E+02 0.22338394405E+02
 0.16162213904E+02 0.12840829135E+02 0.10953600539E+02 0.99994117540E+01 0.97100253686E+01
 0.99994188066E+01 0.10953596014E+02 0.12840764681E+02 0.16162054231E+02 0.22338210255E+02
 0.33526713189E+02 0.51221695038E+02 0.75139036779E+02 0.10250938378E+03 0.12862448662E+03
 0.14888035410E+03 0.16116632761E+03 0.16664488489E+03 0.16801620527E+03 0.16664565397E+03
 0.13780049217E+03 0.11992353396E+03 0.97198261937E+02 0.73025914238E+02 0.51221359301E+02
 0.34399094150E+02 0.23233809416E+02 0.16761716807E+02 0.13198988707E+02 0.11112667971E+02
 0.99711689418E+01 0.94731834679E+01 0.94732057907E+01 0.99712311257E+01 0.11112734569E+02
 0.13198977002E+02 0.16761554134E+02 0.23233537805E+02 0.34398897299E+02 0.51221431259E+02
 0.73026261087E+02 0.97198640848E+02 0.11992363339E+03 0.13780021482E+03 0.14924998341E+03
 0.15456164679E+03 0.15456184709E+03 0.14925040701E+03 0.10573320704E+03 0.87101284411E+02
 0.66996504707E+02 0.48390975877E+02 0.33526724732E+02 0.23233809416E+02 0.16976112086E+02
 0.13391060681E+02 0.11219707300E+02 0.99661702022E+01 0.93318896599E+01 0.91397335113E+01
 0.93319054661E+01 0.99662456283E+01 0.11219860073E+02 0.13391216955E+02 0.16976125623E+02
 0.23233571857E+02 0.33526281704E+02 0.48390541320E+02 0.66996342569E+02 0.87101537671E+02
 0.10573379784E+03 0.12028813106E+03 0.12928712195E+03 0.13229529146E+03 0.12928668861E+03
 0.12028746500E+03 0.73444968672E+02 0.57965785435E+02 0.43240906595E+02 0.31088232980E+02
 0.22338394405E+02 0.16761716807E+02 0.13391060681E+02 0.11257275646E+02 0.99676547288E+01
 0.92587788264E+01 0.89494246699E+01 0.89493854022E+01 0.92587077639E+01 0.99676601282E+01
 0.11257443270E+02 0.13391360105E+02 0.16761970305E+02 0.22338368535E+02 0.31087827670E+02
 0.43240303040E+02 0.57965389950E+02 0.73445131058E+02 0.87400739726E+02 0.97795695844E+02
 0.10329214866E+03 0.10329179369E+03 0.97794885529E+02 0.87400035124E+02 0.47357660675E+02
 0.36689232698E+02 0.27570368930E+02 0.20740489657E+02 0.16162213904E+02 0.13198988707E+02
 0.11219707300E+02 0.99676547288E+01 0.92363791199E+01 0.88644397113E+01 0.87516064395E+01
 0.88643481907E+01 0.92362120490E+01 0.99674958102E+01 0.11219706590E+02 0.13199247230E+02
 0.16162647093E+02 0.20740835267E+02 0.27570381662E+02 0.36688901622E+02 0.47357229432E+02
 0.58171218552E+02 0.67443733920E+02 0.73669302526E+02 0.75857276136E+02 0.73669200425E+02
 0.67443724845E+02 0.58171467216E+02 0.29841403136E+02 0.23628086656E+02 0.18758833611E+02
 0.15288996323E+02 0.12840829135E+02 0.11112667971E+02 0.99661702022E+01 0.92587788264E+01
 0.88644397113E+01 0.86911673654E+01 0.86911831656E+01 0.88644208151E+01 0.92586134990E+01
 0.99658650392E+01 0.11112403564E+02 0.12840835725E+02 0.15289359168E+02 0.18759399268E+02
 0.23628543377E+02 0.29841469730E+02 0.36808348583E+02 0.43520875235E+02 0.48828115271E+02
 0.51756348341E+02 0.51756608748E+02 0.48828760380E+02 0.43521572723E+02 0.36808752221E+02
 0.19886738098E+02 0.16723768882E+02 0.14268706916E+02 0.12364721796E+02 0.10953600539E+02
 0.99711689418E+01 0.93318896599E+01 0.89494246699E+01 0.87516064395E+01 0.86911831656E+01
 0.87517678292E+01 0.89496061024E+01 0.93318994883E+01 0.99709042874E+01 0.10953152538E+02
 0.12364358221E+02 0.14268704788E+02 0.16724190171E+02 0.19887330321E+02 0.23688681563E+02
 0.27719907470E+02 0.31337107727E+02 0.33855028236E+02 0.34758059743E+02 0.33855480748E+02
 0.31337630304E+02 0.27720062070E+02 0.23688334388E+02 0.14856020484E+02 0.13202252313E+02
 0.11832328351E+02 0.10771156910E+02 0.99994117540E+01 0.94731834679E+01 0.91397335113E+01
 0.89493854022E+01 0.88643481907E+01 0.88644208151E+01 0.89496061024E+01 0.91400581362E+01
 0.94734513723E+01 0.99994055316E+01 0.10770788320E+02 0.11831767934E+02 0.13201838999E+02
 0.14856004978E+02 0.16751443715E+02 0.18829596352E+02 0.20862596453E+02 0.22507827158E+02
 0.23432009003E+02 0.23431976749E+02 0.22507674623E+02 0.20862247612E+02 0.18829120389E+02
 0.16751087906E+02 0.12188800409E+02 0.11306822192E+02 0.10601232404E+02 0.10075538742E+02
 0.97100253686E+01 0.94732057907E+01 0.93319054661E+01 0.92587077639E+01 0.92362120490E+01
 0.92586134990E+01 0.93318994883E+01 0.94734513723E+01 0.97104668215E+01 0.10075903974E+02
 0.10601240192E+02 0.11306411224E+02 0.12188191909E+02 0.13209560175E+02 0.14294454871E+02
 0.15338049672E+02 0.16233822212E+02 0.16849816146E+02 0.17070156827E+02 0.16849379840E+02
 0.16233207927E+02 0.15337621628E+02 0.14294467414E+02 0.13210004791E+02 0.10840541467E+02
 0.10479282757E+02 0.10227644524E+02 0.10075531607E+02 0.99994188066E+01 0.99712311257E+01
 0.99662456283E+01 0.99676601282E+01 0.99674958102E+01 0.99658650392E+01 0.99709042874E+01
 0.99994055316E+01 0.10075903974E+02 0.10228213792E+02 0.10479700983E+02 0.10840535328E+02
 0.11300588805E+02 0.11826333911E+02 0.12363603662E+02 0.12846619226E+02 0.13211026717E+02
 0.13406673655E+02 0.13406529853E+02 0.13210753112E+02 0.12846540573E+02 0.12363904601E+02
 0.11826875945E+02 0.11301011219E+02 0.10431162778E+02 0.10479286190E+02 0.10601233195E+02
 0.10771129477E+02 0.10953596014E+02 0.11112734569E+02 0.11219860073E+02 0.11257443270E+02
 0.11219706590E+02 0.11112403564E+02 0.10953152538E+02 0.10770788320E+02 0.10601240192E+02
 0.10479700983E+02 0.10431762478E+02 0.10466891403E+02 0.10576205798E+02 0.10734907879E+02
 0.10908664541E+02 0.11062053491E+02 0.11166151040E+02 0.11202904593E+02 0.11166318549E+02
 0.11062401118E+02 0.10909114815E+02 0.10735242675E+02 0.10576185852E+02 0.10466466923E+02
 0.10840529436E+02 0.11306827842E+02 0.11832313725E+02 0.12364668172E+02 0.12840764681E+02
 0.13198977002E+02 0.13391216955E+02 0.13391360105E+02 0.13199247230E+02 0.12840835725E+02
 0.12364358221E+02 0.11831767934E+02 0.11306411224E+02 0.10840535328E+02 0.10466891403E+02
 0.10196500947E+02 0.10021806302E+02 0.99230736845E+01 0.98759083868E+01 0.98579368408E+01
 0.98531028238E+01 0.98532659479E+01 0.98583164581E+01 0.98762390441E+01 0.99230959168E+01
 0.10021442084E+02 0.10195931734E+02 0.10466463841E+02 0.12188795770E+02 0.13202269427E+02
 0.14268705661E+02 0.15288936027E+02 0.16162054231E+02 0.16761554134E+02 0.16976125623E+02
 0.16761970305E+02 0.16162647093E+02 0.15289359168E+02 0.14268704788E+02 0.13201838999E+02
 0.12188191909E+02 0.11300588805E+02 0.10576205798E+02 0.10021806302E+02 0.96232253362E+01
 0.93551160007E+01 0.91892360770E+01 0.91008875878E+01 0.90734386039E+01 0.91009732092E+01
 0.91892314866E+01 0.93548649540E+01 0.96227859362E+01 0.10021449023E+02 0.10576208002E+02
 0.11301005593E+02 0.14856031153E+02 0.16723836108E+02 0.18758916815E+02 0.20740477810E+02
 0.22338210255E+02 0.23233537805E+02 0.23233571857E+02 0.22338368535E+02 0.20740835267E+02
 0.18759399268E+02 0.16724190171E+02 0.14856004978E+02 0.13209560175E+02 0.11826333911E+02
 0.10734907879E+02 0.99230736845E+01 0.93551160007E+01 0.89854384263E+01 0.87691488753E+01
 0.86707447540E+01 0.86706743954E+01 0.87689323115E+01 0.89851142289E+01 0.93548417779E+01
 0.99230702947E+01 0.10735271580E+02 0.11826899583E+02 0.13209986002E+02 0.19886747161E+02
 0.23628211133E+02 0.27570537763E+02 0.31088331462E+02 0.33526713189E+02 0.34398897299E+02
 0.33526281704E+02 0.31087827670E+02 0.27570381662E+02 0.23628543377E+02 0.19887330321E+02
 0.16751443715E+02 0.14294454871E+02 0.12363603662E+02 0.10908664541E+02 0.98759083868E+01
 0.91892360770E+01 0.87691488753E+01 0.85474782568E+01 0.84788052336E+01 0.85473231774E+01
 0.87689731358E+01 0.91892275023E+01 0.98761727847E+01 0.10909112516E+02 0.12363963528E+02
 0.14294448565E+02 0.16751018297E+02 0.29841394727E+02 0.36689307849E+02 0.43241009861E+02
 0.48391195181E+02 0.51221695038E+02 0.51221431259E+02 0.48390541320E+02 0.43240303040E+02
 0.36688901622E+02 0.29841469730E+02 0.23688681563E+02 0.18829596352E+02 0.15338049672E+02
 0.12846619226E+02 0.11062053491E+02 0.98579368408E+01 0.91008875878E+01 0.86707447540E+01
 0.84788052336E+01 0.84787874097E+01 0.86707588510E+01 0.91010492440E+01 0.98582442535E+01
 0.11062326870E+02 0.12846621969E+02 0.15337687406E+02 0.18829019809E+02 0.23688209836E+02
 0.47357645663E+02 0.57965627752E+02 0.66996342162E+02 0.73026174710E+02 0.75139036779E+02
 0.73026261087E+02 0.66996342569E+02 0.57965389950E+02 0.47357229432E+02 0.36808348583E+02
 0.27719907470E+02 0.20862596453E+02 0.16233822212E+02 0.13211026717E+02 0.11166151040E+02
 0.98531028238E+01 0.90734386039E+01 0.86706743954E+01 0.85473231774E+01 0.86707588510E+01
 0.90736031889E+01 0.98532671564E+01 0.11166153689E+02 0.13210759717E+02 0.16233381448E+02
 0.20862257629E+02 0.27719908734E+02 0.36808680815E+02 0.73444970064E+02 0.87100820719E+02
 0.97197815228E+02 0.10250902213E+03 0.10250938378E+03 0.97198640848E+02 0.87101537671E+02
 0.73445131058E+02 0.58171218552E+02 0.43520875235E+02 0.31337107727E+02 0.22507827158E+02
 0.16849816146E+02 0.13406673655E+02 0.11202904593E+02 0.98532659479E+01 0.91009732092E+01
 0.87689323115E+01 0.87689731358E+01 0.91010492440E+01 0.98532671564E+01 0.11202738948E+02
 0.13406366125E+02 0.16849548253E+02 0.22507844861E+02 0.31337520498E+02 0.43521497734E+02
 0.58171629970E+02 0.10573322615E+03 0.11992296841E+03 0.12862404300E+03 0.13151780370E+03
 0.12862448662E+03 0.11992363339E+03 0.10573379784E+03 0.87400739726E+02 0.67443733920E+02
 0.48828115271E+02 0.33855028236E+02 0.23432009003E+02 0.17070156827E+02 0.13406529853E+02
 0.11166318549E+02 0.98583164581E+01 0.91892314866E+01 0.89851142289E+01 0.91892275023E+01
 0.98582442535E+01 0.11166153689E+02 0.13406366125E+02 0.17070156225E+02 0.23432264398E+02
 0.33855468093E+02 0.48828528390E+02 0.67443885441E+02 0.87400500682E+02 0.13780050598E+03
 0.14888079747E+03 0.15396073790E+03 0.15396052850E+03 0.14888035410E+03 0.13780021482E+03
 0.12028813106E+03 0.97795695844E+02 0.73669302526E+02 0.51756348341E+02 0.34758059743E+02
 0.23431976749E+02 0.16849379840E+02 0.13210753112E+02 0.11062401118E+02 0.98762390441E+01
 0.93548649540E+01 0.93548417779E+01 0.98761727847E+01 0.11062326870E+02 0.13210759717E+02
 0.16849548253E+02 0.23432264398E+02 0.34758270313E+02 0.51756274255E+02 0.73668937595E+02
 0.97795297643E+02 0.12028802733E+03 0.16116736772E+03 0.16634075346E+03 0.16759364540E+03
 0.16633997648E+03 0.16116632761E+03 0.14924998341E+03 0.12928712195E+03 0.10329214866E+03
 0.75857276136E+02 0.51756608748E+02 0.33855480748E+02 0.22507674623E+02 0.16233207927E+02
 0.12846540573E+02 0.10909114815E+02 0.99230959168E+01 0.96227859362E+01 0.99230702947E+01
 0.10909112516E+02 0.12846621969E+02 0.16233381448E+02 0.22507844861E+02 0.33855468093E+02
 0.51756274255E+02 0.75856689826E+02 0.10329164514E+03 0.12928712147E+03 0.14925065458E+03
 0.16994093900E+03 0.16941471718E+03 0.16941459186E+03 0.16994061353E+03 0.16664488489E+03
 0.15456164679E+03 0.13229529146E+03 0.10329179369E+03 0.73669200425E+02 0.48828760380E+02
 0.31337630304E+02 0.20862247612E+02 0.15337621628E+02 0.12363904601E+02 0.10735242675E+02
 0.10021442084E+02 0.10021449023E+02 0.10735271580E+02 0.12363963528E+02 0.15337687406E+02
 0.20862257629E+02 0.31337520498E+02 0.48828528390E+02 0.73668937595E+02 0.10329164514E+03
 0.13229536457E+03 0.15456193738E+03 0.16664527581E+03 0.16525400278E+03 0.16264093202E+03
 0.16525461065E+03 0.16960618594E+03 0.16801620527E+03 0.15456184709E+03 0.12928668861E+03
 0.97794885529E+02 0.67443724845E+02 0.43521572723E+02 0.27720062070E+02 0.18829120389E+02
 0.14294467414E+02 0.11826875945E+02 0.10576185852E+02 0.10195931734E+02 0.10576208002E+02
 0.11826899583E+02 0.14294448565E+02 0.18829019809E+02 0.27719908734E+02 0.43521497734E+02
 0.67443885441E+02 0.97795297643E+02 0.12928712147E+03 0.15456193738E+03 0.16801575734E+03
 0.16960540276E+03 0.15544992864E+03 0.15545033338E+03 0.16271494548E+03 0.16960631882E+03
 0.16664565397E+03 0.14925040701E+03 0.12028746500E+03 0.87400035124E+02 0.58171467216E+02
 0.36808752221E+02 0.23688334388E+02 0.16751087906E+02 0.13210004791E+02 0.11301011219E+02
 0.10466466923E+02 0.10466463841E+02 0.11301005593E+02 0.13209986002E+02 0.16751018297E+02
 0.23688209836E+02 0.36808680815E+02 0.58171629970E+02 0.87400500682E+02 0.12028802733E+03
 0.14925065458E+03 0.16664527581E+03 0.16960540276E+03 0.16271399068E+03 0.15647385889E+03
 0.16025983949E+03 0.16755796254E+03 0.16934176571E+03 0.15837272298E+03 0.13406652582E+03
 0.10220058410E+03 0.70752734265E+02 0.45627634338E+02 0.28879725402E+02 0.19403497648E+02
 0.14599303833E+02 0.12024724283E+02 0.10722642545E+02 0.10327059308E+02 0.10722407827E+02
 0.12024719666E+02 0.14599524152E+02 0.19403467323E+02 0.28879448601E+02 0.45627619720E+02
 0.70753039861E+02 0.10220073926E+03 0.13406642714E+03 0.15837271636E+03 0.16934183367E+03
 0.16755774043E+03 0.16025945730E+03 0.16025983949E+03 0.16571197162E+03 0.16982624481E+03
 0.16430101495E+03 0.14541277264E+03 0.11622668117E+03 0.84027784677E+02 0.55841774006E+02
 0.35434245572E+02 0.22977354194E+02 0.16401620370E+02 0.13013020118E+02 0.11181472011E+02
 0.10381430271E+02 0.10381281570E+02 0.11181335278E+02 0.13013209589E+02 0.16401839425E+02
 0.22977287610E+02 0.35434127157E+02 0.55841775380E+02 0.84027532411E+02 0.11622603553E+03
 0.14541240913E+03 0.16430152237E+03 0.16982722529E+03 0.16571266430E+03 0.16026004091E+03
 0.16755796254E+03 0.16982624481E+03 0.16587132053E+03 0.15072922179E+03 0.12491147502E+03
 0.93897753794E+02 0.64569245257E+02 0.41721480500E+02 0.26745774087E+02 0.18353116745E+02
 0.14052160393E+02 0.11696591182E+02 0.10505569567E+02 0.10143891492E+02 0.10505359844E+02
 0.11696594253E+02 0.14052403463E+02 0.18353224225E+02 0.26745730141E+02 0.41721554797E+02
 0.64569235636E+02 0.93897227746E+02 0.12491074954E+03 0.15072916474E+03 0.16587211005E+03
 0.16982716391E+03 0.16755843361E+03 0.16577537406E+03 0.16934176571E+03 0.16430101495E+03
 0.15072922179E+03 0.12781793450E+03 0.99110809268E+02 0.70413576169E+02 0.46674731810E+02
 0.30112877799E+02 0.20249294043E+02 0.15043326791E+02 0.12217173988E+02 0.10674304637E+02
 0.10000345907E+02 0.10000186510E+02 0.10674119249E+02 0.12217266129E+02 0.15043440256E+02
 0.20249187667E+02 0.30112869279E+02 0.46675073724E+02 0.70413878767E+02 0.99110686748E+02
 0.12781765693E+03 0.15072914341E+03 0.16430093967E+03 0.16934147102E+03 0.16998838721E+03
 0.16998858384E+03 0.15837272298E+03 0.14541277264E+03 0.12491147502E+03 0.99110809268E+02
 0.72464708228E+02 0.49401089998E+02 0.32449563175E+02 0.21777601652E+02 0.15886011774E+02
 0.12681992739E+02 0.10853460019E+02 0.99280675366E+01 0.96471407194E+01 0.99278634933E+01
 0.10853422068E+02 0.12682093049E+02 0.15885859361E+02 0.21777273790E+02 0.32449611595E+02
 0.49401647139E+02 0.72465301707E+02 0.99111085979E+02 0.12491141657E+03 0.14541226277E+03
 0.15837170741E+03 0.16455576470E+03 0.16622591888E+03 0.16455669250E+03 0.13406652582E+03
 0.11622668117E+03 0.93897753794E+02 0.70413576169E+02 0.49401089998E+02 0.33286057536E+02
 0.22634081857E+02 0.16462566088E+02 0.13031335599E+02 0.11008693222E+02 0.99004964273E+01
 0.94165085757E+01 0.94164097640E+01 0.99004286621E+01 0.11008850942E+02 0.13031399972E+02
 0.16462248495E+02 0.22633696398E+02 0.33286045643E+02 0.49401389857E+02 0.70413902049E+02
 0.93898039053E+02 0.11622682077E+03 0.13406621066E+03 0.14571776153E+03 0.15122778070E+03
 0.15122816475E+03 0.14571845937E+03 0.10220058410E+03 0.84027784677E+02 0.64569245257E+02
 0.46674731810E+02 0.32449563175E+02 0.22634081857E+02 0.16668473543E+02 0.13218589584E+02
 0.11112779701E+02 0.98947014121E+01 0.92773868578E+01 0.90901090769E+01 0.92772825394E+01
 0.98948056528E+01 0.11113078724E+02 0.13218700664E+02 0.16668268223E+02 0.22633795108E+02
 0.32449291920E+02 0.46674400667E+02 0.64569053705E+02 0.84028077325E+02 0.10220124086E+03
 0.11652227783E+03 0.12545224867E+03 0.12845386045E+03 0.12545207994E+03 0.11652176399E+03
 0.70752734265E+02 0.55841774006E+02 0.41721480500E+02 0.30112877799E+02 0.21777601652E+02
 0.16462566088E+02 0.13218589584E+02 0.11149250259E+02 0.98953739107E+01 0.92045405380E+01
 0.89024679717E+01 0.89023588850E+01 0.92044266405E+01 0.98955184920E+01 0.11149538815E+02
 0.13218790177E+02 0.16462665487E+02 0.21777569971E+02 0.30112497068E+02 0.41720793810E+02
 0.55841348467E+02 0.70753053557E+02 0.84262223472E+02 0.94371546166E+02 0.99735712235E+02
 0.99735433523E+02 0.94370790471E+02 0.84261377268E+02 0.45627634338E+02 0.35434245572E+02
 0.26745774087E+02 0.20249294043E+02 0.15886011774E+02 0.13031335599E+02 0.11112779701E+02
 0.98953739107E+01 0.91820411346E+01 0.88181267391E+01 0.87074448767E+01 0.88179326213E+01
 0.91818812876E+01 0.98953513560E+01 0.11112844331E+02 0.13031547473E+02 0.15886431962E+02
 0.20249648098E+02 0.26745663744E+02 0.35433730933E+02 0.45627212511E+02 0.55991931297E+02
 0.64905450854E+02 0.70904240993E+02 0.73015378758E+02 0.70904111697E+02 0.64905272362E+02
 0.55991966404E+02 0.28879725402E+02 0.22977354194E+02 0.18353116745E+02 0.15043326791E+02
 0.12681992739E+02 0.11008693222E+02 0.98947014121E+01 0.92045405380E+01 0.88181267391E+01
 0.86476688978E+01 0.86476080804E+01 0.88179974309E+01 0.92043763256E+01 0.98944506517E+01
 0.11008446806E+02 0.12682047242E+02 0.15043803986E+02 0.18353712869E+02 0.22977665792E+02
 0.28879640677E+02 0.35509571444E+02 0.41910275161E+02 0.46979814591E+02 0.49780248171E+02
 0.49780516436E+02 0.46980420166E+02 0.41910865794E+02 0.35509956279E+02 0.19403497648E+02
 0.16401620370E+02 0.14052160393E+02 0.12217173988E+02 0.10853460019E+02 0.99004964273E+01
 0.92773868578E+01 0.89024679717E+01 0.87074448767E+01 0.86476080804E+01 0.87075207962E+01
 0.89025863383E+01 0.92773757678E+01 0.99001877615E+01 0.10852981205E+02 0.12216897978E+02
 0.14052320147E+02 0.16402112596E+02 0.19404033806E+02 0.23004513051E+02 0.26824392177E+02
 0.30255540867E+02 0.32646242351E+02 0.33504173785E+02 0.32646797336E+02 0.30256152228E+02
 0.26824594760E+02 0.23004236746E+02 0.14599303833E+02 0.13013020118E+02 0.11696591182E+02
 0.10674304637E+02 0.99280675366E+01 0.94165085757E+01 0.90901090769E+01 0.89023588850E+01
 0.88179326213E+01 0.88179974309E+01 0.89025863383E+01 0.90904615902E+01 0.94167477520E+01
 0.99279469926E+01 0.10673847441E+02 0.11696070455E+02 0.13012724597E+02 0.14599380412E+02
 0.16403594918E+02 0.18369400507E+02 0.20288664323E+02 0.21841371461E+02 0.22713755905E+02
 0.22713806594E+02 0.21841375790E+02 0.20288405442E+02 0.18368926954E+02 0.16403195167E+02
 0.12024724283E+02 0.11181472011E+02 0.10505569567E+02 0.10000345907E+02 0.96471407194E+01
 0.94164097640E+01 0.92772825394E+01 0.92044266405E+01 0.91818812876E+01 0.92043763256E+01
 0.92773757678E+01 0.94167477520E+01 0.96475684693E+01 0.10000592740E+02 0.10505460189E+02
 0.11181017089E+02 0.12024134032E+02 0.12999501232E+02 0.14034605607E+02 0.15027102951E+02
 0.15873449403E+02 0.16453614634E+02 0.16660919072E+02 0.16453239812E+02 0.15872855653E+02
 0.15026607979E+02 0.14034523672E+02 0.12999883654E+02 0.10722642545E+02 0.10381430271E+02
 0.10143891492E+02 0.10000186510E+02 0.99278634933E+01 0.99004286621E+01 0.98948056528E+01
 0.98955184920E+01 0.98953513560E+01 0.98944506517E+01 0.99001877615E+01 0.99279469926E+01
 0.10000592740E+02 0.10144422189E+02 0.10381770410E+02 0.10722540571E+02 0.11157331243E+02
 0.11654421783E+02 0.12162417453E+02 0.12618961018E+02 0.12963230508E+02 0.13147989592E+02
 0.13147829305E+02 0.12962889273E+02 0.12618765622E+02 0.12162626048E+02 0.11654965912E+02
 0.11157833441E+02 0.10327059308E+02 0.10381281570E+02 0.10505359844E+02 0.10674119249E+02
 0.10853422068E+02 0.11008850942E+02 0.11113078724E+02 0.11149538815E+02 0.11112844331E+02
 0.11008446806E+02 0.10852981205E+02 0.10673847441E+02 0.10505460189E+02 0.10381770410E+02
 0.10327663504E+02 0.10352608623E+02 0.10448487960E+02 0.10591938690E+02 0.10750541768E+02
 0.10891005042E+02 0.10986387801E+02 0.11020047328E+02 0.10986499471E+02 0.10891269007E+02
 0.10750950054E+02 0.10592330665E+02 0.10448590658E+02 0.10352272297E+02 0.10722407827E+02
 0.11181335278E+02 0.11696594253E+02 0.12217266129E+02 0.12682093049E+02 0.13031399972E+02
 0.13218700664E+02 0.13218790177E+02 0.13031547473E+02 0.12682047242E+02 0.12216897978E+02
 0.11696070455E+02 0.11181017089E+02 0.10722540571E+02 0.10352608623E+02 0.10082178077E+02
 0.99042712606E+01 0.98002337216E+01 0.97470836194E+01 0.97239769863E+01 0.97161868858E+01
 0.97163512878E+01 0.97243656515E+01 0.97474500933E+01 0.98003338836E+01 0.99039961031E+01
 0.10081636286E+02 0.10352108450E+02 0.12024719666E+02 0.13013209589E+02 0.14052403463E+02
 0.15043440256E+02 0.15885859361E+02 0.16462248495E+02 0.16668268223E+02 0.16462665487E+02
 0.15886431962E+02 0.15043803986E+02 0.14052320147E+02 0.13012724597E+02 0.12024134032E+02
 0.11157331243E+02 0.10448487960E+02 0.99042712606E+01 0.95111317865E+01 0.92448703292E+01
 0.90787169554E+01 0.89894629235E+01 0.89615932492E+01 0.89895992916E+01 0.90787890575E+01
 0.92446831860E+01 0.95107060328E+01 0.99038602993E+01 0.10448391444E+02 0.11157662420E+02
 0.14599524152E+02 0.16401839425E+02 0.18353224225E+02 0.20249187667E+02 0.21777273790E+02
 0.22633696398E+02 0.22633795108E+02 0.21777569971E+02 0.20249648098E+02 0.18353712869E+02
 0.16402112596E+02 0.14599380412E+02 0.12999501232E+02 0.11654421783E+02 0.10591938690E+02
 0.98002337216E+01 0.92448703292E+01 0.88820853168E+01 0.86689699296E+01 0.85716875004E+01
 0.85716329618E+01 0.86687907724E+01 0.88817833507E+01 0.92445566728E+01 0.98001312306E+01
 0.10592214685E+02 0.11654984676E+02 0.13000013175E+02 0.19403467323E+02 0.22977287610E+02
 0.26745730141E+02 0.30112869279E+02 0.32449611595E+02 0.33286045643E+02 0.32449291920E+02
 0.30112497068E+02 0.26745663744E+02 0.22977665792E+02 0.19404033806E+02 0.16403594918E+02
 0.14034605607E+02 0.12162417453E+02 0.10750541768E+02 0.97470836194E+01 0.90787169554E+01
 0.86689699296E+01 0.84523100765E+01 0.83850832369E+01 0.84521228020E+01 0.86687630254E+01
 0.90786714785E+01 0.97472816299E+01 0.10750942244E+02 0.12162829039E+02 0.14034731532E+02
 0.16403273598E+02 0.28879448601E+02 0.35434127157E+02 0.41721554797E+02 0.46675073724E+02
 0.49401647139E+02 0.49401389857E+02 0.46674400667E+02 0.41720793810E+02 0.35433730933E+02
 0.28879640677E+02 0.23004513051E+02 0.18369400507E+02 0.15027102951E+02 0.12618961018E+02
 0.10891005042E+02 0.97239769863E+01 0.89894629235E+01 0.85716875004E+01 0.83850832369E+01
 0.83850161581E+01 0.85716281892E+01 0.89896174679E+01 0.97243102088E+01 0.10891290590E+02
 0.12619011977E+02 0.15026840710E+02 0.18368861015E+02 0.23003944571E+02 0.45627619720E+02
 0.55841775380E+02 0.64569235636E+02 0.70413878767E+02 0.72465301707E+02 0.70413902049E+02
 0.64569053705E+02 0.55841348467E+02 0.45627212511E+02 0.35509571444E+02 0.26824392177E+02
 0.20288664323E+02 0.15873449403E+02 0.12963230508E+02 0.10986387801E+02 0.97161868858E+01
 0.89615932492E+01 0.85716329618E+01 0.84521228020E+01 0.85716281892E+01 0.89617505553E+01
 0.97164549447E+01 0.10986461160E+02 0.12962961627E+02 0.15873021869E+02 0.20288323969E+02
 0.26824261466E+02 0.35509720401E+02 0.70753039861E+02 0.84027532411E+02 0.93897227746E+02
 0.99110686748E+02 0.99111085979E+02 0.93898039053E+02 0.84028077325E+02 0.70753053557E+02
 0.55991931297E+02 0.41910275161E+02 0.30255540867E+02 0.21841371461E+02 0.16453614634E+02
 0.13147989592E+02 0.11020047328E+02 0.97163512878E+01 0.89895992916E+01 0.86687907724E+01
 0.86687630254E+01 0.89896174679E+01 0.97164549447E+01 0.11019992917E+02 0.13147629671E+02
 0.16453244459E+02 0.21841382860E+02 0.30255940945E+02 0.41910783572E+02 0.55992292571E+02
 0.10220073926E+03 0.11622603553E+03 0.12491074954E+03 0.12781765693E+03 0.12491141657E+03
 0.11622682077E+03 0.10220124086E+03 0.84262223472E+02 0.64905450854E+02 0.46979814591E+02
 0.32646242351E+02 0.22713755905E+02 0.16660919072E+02 0.13147829305E+02 0.10986499471E+02
 0.97243656515E+01 0.90787890575E+01 0.88817833507E+01 0.90786714785E+01 0.97243102088E+01
 0.10986461160E+02 0.13147629671E+02 0.16660728149E+02 0.22713962537E+02 0.32646822334E+02
 0.46980309807E+02 0.64905575148E+02 0.84262025631E+02 0.13406642714E+03 0.14541240913E+03
 0.15072916474E+03 0.15072914341E+03 0.14541226277E+03 0.13406621066E+03 0.11652227783E+03
 0.94371546166E+02 0.70904240993E+02 0.49780248171E+02 0.33504173785E+02 0.22713806594E+02
 0.16453239812E+02 0.12962889273E+02 0.10891269007E+02 0.97474500933E+01 0.92446831860E+01
 0.92445566728E+01 0.97472816299E+01 0.10891290590E+02 0.12962961627E+02 0.16453244459E+02
 0.22713962537E+02 0.33504542059E+02 0.49780400832E+02 0.70903895078E+02 0.94371090778E+02
 0.11652220431E+03 0.15837271636E+03 0.16430152237E+03 0.16587211005E+03 0.16430093967E+03
 0.15837170741E+03 0.14571776153E+03 0.12545224867E+03 0.99735712235E+02 0.73015378758E+02
 0.49780516436E+02 0.32646797336E+02 0.21841375790E+02 0.15872855653E+02 0.12618765622E+02
 0.10750950054E+02 0.98003338836E+01 0.95107060328E+01 0.98001312306E+01 0.10750942244E+02
 0.12619011977E+02 0.15873021869E+02 0.21841382860E+02 0.32646822334E+02 0.49780400832E+02
 0.73014812161E+02 0.99735019030E+02 0.12545221379E+03 0.14571857095E+03 0.16934183367E+03
 0.16982722529E+03 0.16982716391E+03 0.16934147102E+03 0.16455576470E+03 0.15122778070E+03
 0.12845386045E+03 0.99735433523E+02 0.70904111697E+02 0.46980420166E+02 0.30256152228E+02
 0.20288405442E+02 0.15026607979E+02 0.12162626048E+02 0.10592330665E+02 0.99039961031E+01
 0.99038602993E+01 0.10592214685E+02 0.12162829039E+02 0.15026840710E+02 0.20288323969E+02
 0.30255940945E+02 0.46980309807E+02 0.70903895078E+02 0.99735019030E+02 0.12845372318E+03
 0.15122826414E+03 0.16455645869E+03 0.16755774043E+03 0.16571266430E+03 0.16755843361E+03
 0.16998838721E+03 0.16622591888E+03 0.15122816475E+03 0.12545207994E+03 0.94370790471E+02
 0.64905272362E+02 0.41910865794E+02 0.26824594760E+02 0.18368926954E+02 0.14034523672E+02
 0.11654965912E+02 0.10448590658E+02 0.10081636286E+02 0.10448391444E+02 0.11654984676E+02
 0.14034731532E+02 0.18368861015E+02 0.26824261466E+02 0.41910783572E+02 0.64905575148E+02
 0.94371090778E+02 0.12545221379E+03 0.15122826414E+03 0.16622580566E+03 0.16998778016E+03
 0.16025945730E+03 0.16026004091E+03 0.16577537406E+03 0.16998858384E+03 0.16455669250E+03
 0.14571845937E+03 0.11652176399E+03 0.84261377268E+02 0.55991966404E+02 0.35509956279E+02
 0.23004236746E+02 0.16403195167E+02 0.12999883654E+02 0.11157833441E+02 0.10352272297E+02
 0.10352108450E+02 0.11157662420E+02 0.13000013175E+02 0.16403273598E+02 0.23003944571E+02
 0.35509720401E+02 0.55992292571E+02 0.84262025631E+02 0.11652220431E+03 0.14571857095E+03
 0.16455645869E+03 0.16998778016E+03 0.16577421208E+03 0.16708839802E+03 0.16847430427E+03
 0.16975644378E+03 0.16470737136E+03 0.14882214536E+03 0.12281185662E+03 0.92066245929E+02
 0.63227494965E+02 0.40869518210E+02 0.26262774079E+02 0.18091063701E+02 0.13886413939E+02
 0.11569087049E+02 0.10395620130E+02 0.10038789390E+02 0.10395184353E+02 0.11569082623E+02
 0.13886824011E+02 0.18090998704E+02 0.26262256204E+02 0.40869504602E+02 0.63228073891E+02
 0.92066520882E+02 0.12281165410E+03 0.14882213922E+03 0.16470751665E+03 0.16975602748E+03
 0.16847357386E+03 0.16847430427E+03 0.16974689350E+03 0.16755222382E+03 0.15640131874E+03
 0.13455392677E+03 0.10542796719E+03 0.75345301732E+02 0.49958632771E+02 0.32003916688E+02
 0.21212628253E+02 0.15521728869E+02 0.12489980761E+02 0.10836880675E+02 0.10113989522E+02
 0.10113704027E+02 0.10836616623E+02 0.12490325225E+02 0.15522078500E+02 0.21212377357E+02
 0.32003616368E+02 0.49958788657E+02 0.75345272169E+02 0.10542728643E+03 0.13455347970E+03
 0.15640192236E+03 0.16755320450E+03 0.16974728698E+03 0.16847429526E+03 0.16975644378E+03
 0.16755222382E+03 0.15868422147E+03 0.14031895505E+03 0.11390210884E+03 0.84487671380E+02