   2   2   0   0
  0.1459607E+02  0.2761870E-09  0.2761870E-09  0.4419050E-09  0.5000000E-15
  1.000000000000000E-004
  CAR 
 Tc                                      
     68.43445449    -31.62424269  301     12.31832518      1.00000000
    -31.624  0.0000E+00  0.0000E+00
    -31.291  0.0000E+00  0.0000E+00
    -30.957  0.0000E+00  0.0000E+00
    -30.624  0.0000E+00  0.0000E+00
    -30.290  0.0000E+00  0.0000E+00
    -29.957  0.0000E+00  0.0000E+00
    -29.623  0.0000E+00  0.0000E+00
    -29.290  0.0000E+00  0.0000E+00
    -28.956  0.0000E+00  0.0000E+00
    -28.622  0.0000E+00  0.0000E+00
    -28.289  0.0000E+00  0.0000E+00
    -27.955  0.0000E+00  0.0000E+00
    -27.622  0.0000E+00  0.0000E+00
    -27.288  0.3689E-11  0.1230E-11
    -26.955  0.7666E+00  0.2557E+00
    -26.621  0.8809E+01  0.3194E+01
    -26.288  0.7936E+01  0.5843E+01
    -25.954  0.1628E+02  0.1128E+02
    -25.621  0.2144E+01  0.1200E+02
    -25.287  0.0000E+00  0.1200E+02
    -24.954  0.0000E+00  0.1200E+02
    -24.620  0.0000E+00  0.1200E+02
    -24.287  0.0000E+00  0.1200E+02
    -23.953  0.0000E+00  0.1200E+02
    -23.620  0.0000E+00  0.1200E+02
    -23.286  0.0000E+00  0.1200E+02
    -22.952  0.0000E+00  0.1200E+02
    -22.619  0.0000E+00  0.1200E+02
    -22.285  0.0000E+00  0.1200E+02
    -21.952  0.0000E+00  0.1200E+02
    -21.618  0.0000E+00  0.1200E+02
    -21.285  0.0000E+00  0.1200E+02
    -20.951  0.0000E+00  0.1200E+02
    -20.618  0.0000E+00  0.1200E+02
    -20.284  0.0000E+00  0.1200E+02
    -19.951  0.0000E+00  0.1200E+02
    -19.617  0.0000E+00  0.1200E+02
    -19.284  0.0000E+00  0.1200E+02
    -18.950  0.0000E+00  0.1200E+02
    -18.617  0.0000E+00  0.1200E+02
    -18.283  0.0000E+00  0.1200E+02
    -17.950  0.0000E+00  0.1200E+02
    -17.616  0.0000E+00  0.1200E+02
    -17.282  0.0000E+00  0.1200E+02
    -16.949  0.0000E+00  0.1200E+02
    -16.615  0.0000E+00  0.1200E+02
    -16.282  0.0000E+00  0.1200E+02
    -15.948  0.0000E+00  0.1200E+02
    -15.615  0.0000E+00  0.1200E+02
    -15.281  0.0000E+00  0.1200E+02
    -14.948  0.0000E+00  0.1200E+02
    -14.614  0.0000E+00  0.1200E+02
    -14.281  0.0000E+00  0.1200E+02
    -13.947  0.0000E+00  0.1200E+02
    -13.614  0.0000E+00  0.1200E+02
    -13.280  0.0000E+00  0.1200E+02
    -12.947  0.0000E+00  0.1200E+02
    -12.613  0.0000E+00  0.1200E+02
    -12.280  0.0000E+00  0.1200E+02
    -11.946  0.0000E+00  0.1200E+02
    -11.613  0.0000E+00  0.1200E+02
    -11.279  0.0000E+00  0.1200E+02
    -10.945  0.0000E+00  0.1200E+02
    -10.612  0.0000E+00  0.1200E+02
    -10.278  0.0000E+00  0.1200E+02
     -9.945  0.0000E+00  0.1200E+02
     -9.611  0.0000E+00  0.1200E+02
     -9.278  0.0000E+00  0.1200E+02
     -8.944  0.0000E+00  0.1200E+02
     -8.611  0.0000E+00  0.1200E+02
     -8.277  0.0000E+00  0.1200E+02
     -7.944  0.0000E+00  0.1200E+02
     -7.610  0.0000E+00  0.1200E+02
     -7.277  0.0000E+00  0.1200E+02
     -6.943  0.0000E+00  0.1200E+02
     -6.610  0.0000E+00  0.1200E+02
     -6.276  0.0000E+00  0.1200E+02
     -5.943  0.0000E+00  0.1200E+02
     -5.609  0.0000E+00  0.1200E+02
     -5.275  0.0000E+00  0.1200E+02
     -4.942  0.0000E+00  0.1200E+02
     -4.608  0.0000E+00  0.1200E+02
     -4.275  0.0000E+00  0.1200E+02
     -3.941  0.0000E+00  0.1200E+02
     -3.608  0.0000E+00  0.1200E+02
     -3.274  0.0000E+00  0.1200E+02
     -2.941  0.0000E+00  0.1200E+02
     -2.607  0.0000E+00  0.1200E+02
     -2.274  0.0000E+00  0.1200E+02
     -1.940  0.0000E+00  0.1200E+02
     -1.607  0.0000E+00  0.1200E+02
     -1.273  0.0000E+00  0.1200E+02
     -0.940  0.0000E+00  0.1200E+02
     -0.606  0.0000E+00  0.1200E+02
     -0.273  0.0000E+00  0.1200E+02
      0.061  0.0000E+00  0.1200E+02
      0.395  0.0000E+00  0.1200E+02
      0.728  0.0000E+00  0.1200E+02
      1.062  0.0000E+00  0.1200E+02
      1.395  0.0000E+00  0.1200E+02
      1.729  0.0000E+00  0.1200E+02
      2.062  0.0000E+00  0.1200E+02
      2.396  0.0000E+00  0.1200E+02
      2.729  0.0000E+00  0.1200E+02
      3.063  0.0000E+00  0.1200E+02
      3.396  0.0000E+00  0.1200E+02
      3.730  0.0000E+00  0.1200E+02
      4.063  0.0000E+00  0.1200E+02
      4.397  0.0000E+00  0.1200E+02
      4.730  0.0000E+00  0.1200E+02
      5.064  0.1314E-02  0.1200E+02
      5.397  0.5234E-01  0.1202E+02
      5.731  0.7151E-01  0.1204E+02
      6.065  0.1516E+00  0.1209E+02
      6.398  0.1602E+00  0.1215E+02
      6.732  0.1976E+00  0.1221E+02
      7.065  0.5962E+00  0.1241E+02
      7.399  0.1791E+01  0.1301E+02
      7.732  0.2626E+01  0.1388E+02
      8.066  0.3292E+01  0.1498E+02
      8.399  0.2134E+01  0.1570E+02
      8.733  0.2121E+01  0.1640E+02
      9.066  0.2823E+01  0.1735E+02
      9.400  0.2428E+01  0.1816E+02
      9.733  0.2612E+01  0.1903E+02
     10.067  0.1696E+01  0.1960E+02
     10.400  0.2064E+01  0.2029E+02
     10.734  0.3392E+01  0.2142E+02
     11.067  0.2867E+01  0.2237E+02
     11.401  0.3089E+01  0.2341E+02
     11.735  0.3210E+01  0.2448E+02
     12.068  0.2844E+01  0.2543E+02
     12.402  0.2142E+01  0.2614E+02
     12.735  0.1967E+01  0.2680E+02
     13.069  0.1755E+01  0.2739E+02
     13.402  0.1480E+01  0.2788E+02
     13.736  0.1301E+01  0.2831E+02
     14.069  0.1816E+01  0.2892E+02
     14.403  0.1899E+01  0.2955E+02
     14.736  0.2343E+01  0.3034E+02
     15.070  0.3182E+01  0.3140E+02
     15.403  0.3684E+01  0.3263E+02
     15.737  0.1609E+01  0.3317E+02
     16.070  0.7548E+00  0.3342E+02
     16.404  0.5175E+00  0.3359E+02
     16.737  0.5127E+00  0.3376E+02
     17.071  0.3057E+00  0.3386E+02
     17.405  0.7982E+00  0.3413E+02
     17.738  0.5393E+00  0.3431E+02
     18.072  0.4385E+00  0.3446E+02
     18.405  0.4235E+00  0.3460E+02
     18.739  0.4788E+00  0.3476E+02
     19.072  0.4183E+00  0.3490E+02
     19.406  0.4846E+00  0.3506E+02
     19.739  0.5203E+00  0.3523E+02
     20.073  0.5094E+00  0.3541E+02
     20.406  0.3289E+00  0.3552E+02
     20.740  0.6591E+00  0.3574E+02
     21.073  0.1779E+00  0.3580E+02
     21.407  0.2426E+00  0.3588E+02
     21.740  0.1963E+00  0.3594E+02
     22.074  0.2222E+00  0.3602E+02
     22.407  0.1825E+00  0.3608E+02
     22.741  0.8901E-01  0.3611E+02
     23.075  0.2671E+00  0.3620E+02
     23.408  0.9410E+00  0.3651E+02
     23.742  0.1428E+01  0.3699E+02
     24.075  0.1121E+01  0.3736E+02
     24.409  0.1337E+01  0.3781E+02
     24.742  0.1109E+01  0.3818E+02
     25.076  0.8495E+00  0.3846E+02
     25.409  0.1227E+01  0.3887E+02
     25.743  0.7041E+00  0.3911E+02
     26.076  0.1072E+01  0.3947E+02
     26.410  0.8236E+00  0.3974E+02
     26.743  0.1291E+01  0.4017E+02
     27.077  0.1146E+01  0.4056E+02
     27.410  0.1459E+01  0.4104E+02
     27.744  0.1600E+01  0.4158E+02
     28.077  0.2249E+01  0.4233E+02
     28.411  0.1151E+01  0.4271E+02
     28.745  0.1000E+01  0.4305E+02
     29.078  0.1583E+01  0.4358E+02
     29.412  0.1638E+01  0.4412E+02
     29.745  0.1530E+01  0.4463E+02
     30.079  0.1564E+01  0.4516E+02
     30.412  0.1334E+01  0.4560E+02
     30.746  0.1374E+01  0.4606E+02
     31.079  0.1398E+01  0.4653E+02
     31.413  0.1361E+01  0.4698E+02
     31.746  0.1092E+01  0.4735E+02
     32.080  0.1149E+01  0.4773E+02
     32.413  0.1345E+01  0.4818E+02
     32.747  0.8827E+00  0.4847E+02
     33.080  0.7576E+00  0.4873E+02
     33.414  0.9879E+00  0.4906E+02
     33.747  0.1308E+01  0.4949E+02
     34.081  0.6193E+00  0.4970E+02
     34.414  0.1139E+01  0.5008E+02
     34.748  0.1124E+01  0.5046E+02
     35.082  0.1070E+01  0.5081E+02
     35.415  0.9329E+00  0.5112E+02
     35.749  0.1025E+01  0.5147E+02
     36.082  0.1002E+01  0.5180E+02
     36.416  0.1033E+01  0.5215E+02
     36.749  0.8463E+00  0.5243E+02
     37.083  0.8462E+00  0.5271E+02
     37.416  0.1389E+01  0.5318E+02
     37.750  0.1430E+01  0.5365E+02
     38.083  0.8099E+00  0.5392E+02
     38.417  0.1325E+01  0.5437E+02
     38.750  0.1515E+01  0.5487E+02
     39.084  0.1633E+01  0.5542E+02
     39.417  0.1330E+02  0.5985E+02
     39.751  0.1418E+01  0.6033E+02
     40.084  0.1411E+01  0.6080E+02
     40.418  0.1890E+01  0.6143E+02
     40.752  0.1606E+01  0.6197E+02
     41.085  0.1648E+01  0.6252E+02
     41.419  0.1316E+01  0.6296E+02
     41.752  0.1656E+01  0.6351E+02
     42.086  0.1837E+01  0.6412E+02
     42.419  0.1130E+01  0.6450E+02
     42.753  0.1919E+01  0.6514E+02
     43.086  0.1350E+01  0.6559E+02
     43.420  0.1060E+01  0.6595E+02
     43.753  0.1326E+01  0.6639E+02
     44.087  0.1357E+01  0.6684E+02
     44.420  0.1131E+01  0.6722E+02
     44.754  0.1014E+01  0.6756E+02
     45.087  0.1107E+01  0.6793E+02
     45.421  0.9729E+00  0.6825E+02
     45.754  0.1180E+01  0.6865E+02
     46.088  0.1598E+01  0.6918E+02
     46.422  0.1092E+01  0.6954E+02
     46.755  0.1918E+01  0.7018E+02
     47.089  0.1566E+01  0.7071E+02
     47.422  0.1795E+01  0.7131E+02
     47.756  0.1688E+01  0.7187E+02
     48.089  0.1078E+01  0.7223E+02
     48.423  0.1778E+01  0.7283E+02
     48.756  0.1069E+01  0.7318E+02
     49.090  0.1573E+01  0.7371E+02
     49.423  0.2209E+01  0.7444E+02
     49.757  0.2180E+01  0.7517E+02
     50.090  0.1466E+01  0.7566E+02
     50.424  0.1762E+01  0.7625E+02
     50.757  0.2073E+01  0.7694E+02
     51.091  0.1198E+01  0.7734E+02
     51.424  0.1760E+01  0.7793E+02
     51.758  0.2133E+01  0.7865E+02
     52.092  0.1622E+01  0.7919E+02
     52.425  0.1366E+01  0.7964E+02
     52.759  0.1119E+01  0.8002E+02
     53.092  0.1189E+01  0.8041E+02
     53.426  0.1231E+01  0.8083E+02
     53.759  0.1663E+01  0.8138E+02
     54.093  0.1194E+01  0.8178E+02
     54.426  0.1881E+01  0.8241E+02
     54.760  0.1215E+01  0.8281E+02
     55.093  0.1512E+01  0.8332E+02
     55.427  0.2222E+01  0.8406E+02
     55.760  0.1608E+01  0.8460E+02
     56.094  0.1275E+01  0.8502E+02
     56.427  0.1270E+01  0.8545E+02
     56.761  0.2065E+01  0.8614E+02
     57.094  0.1359E+01  0.8659E+02
     57.428  0.2130E+01  0.8730E+02
     57.762  0.2177E+01  0.8803E+02
     58.095  0.1309E+01  0.8847E+02
     58.429  0.1599E+01  0.8900E+02
     58.762  0.1977E+01  0.8966E+02
     59.096  0.1730E+01  0.9024E+02
     59.429  0.1943E+01  0.9089E+02
     59.763  0.2257E+01  0.9164E+02
     60.096  0.2493E+01  0.9247E+02
     60.430  0.1407E+01  0.9294E+02
     60.763  0.1689E+01  0.9351E+02
     61.097  0.2050E+01  0.9419E+02
     61.430  0.1867E+01  0.9481E+02
     61.764  0.1229E+01  0.9522E+02
     62.097  0.5718E+00  0.9542E+02
     62.431  0.3805E+00  0.9554E+02
     62.764  0.6285E+00  0.9575E+02
     63.098  0.2778E+00  0.9585E+02
     63.432  0.1720E+00  0.9590E+02
     63.765  0.2051E+00  0.9597E+02
     64.099  0.8304E-01  0.9600E+02
     64.432  0.0000E+00  0.9600E+02
     64.766  0.0000E+00  0.9600E+02
     65.099  0.0000E+00  0.9600E+02
     65.433  0.0000E+00  0.9600E+02
     65.766  0.0000E+00  0.9600E+02
     66.100  0.0000E+00  0.9600E+02
     66.433  0.0000E+00  0.9600E+02
     66.767  0.0000E+00  0.9600E+02
     67.100  0.0000E+00  0.9600E+02
     67.434  0.0000E+00  0.9600E+02
     67.767  0.0000E+00  0.9600E+02
     68.101  0.0000E+00  0.9600E+02
     68.434  0.0000E+00  0.9600E+02
