Zr                                      
   1.00000000000000     
     3.236030    0.000000    0.000000
     1.618015    2.802484    0.000000
     0.000000    0.000000    5.189530
   Zr
     2
Direct
  0.000000  0.000000  0.000000
  0.333333  0.333333  0.500000
 
   28   28   48
  281.93      277.81      263.56      235.93      195.09      146.87      100.28      62.802      37.300      22.298    
  14.386      10.543      8.8019      8.0800      7.8847      8.0798      8.8018      10.543      14.386      22.297    
  37.299      62.802      100.28      146.87      195.09      235.93      263.56      277.81      277.81      268.24    
  246.54      211.41      166.26      118.89      77.614      47.306      28.224      17.637      12.277      9.7584    
  8.6540      8.2434      8.2435      8.6541      9.7584      12.277      17.637      28.224      47.305      77.613    
  118.88      166.26      211.41      246.55      268.24      277.81      263.56      246.54      216.81      176.33    
  131.18      89.195      56.234      34.089      21.095      14.215      10.851      9.3131      8.6720      8.4984    
  8.6722      9.3132      10.850      14.215      21.096      34.089      56.233      89.194      131.18      176.33    
  216.81      246.55      263.56      268.93      235.93      211.41      176.33      135.45      95.515      62.397    
  38.834      24.222      16.108      11.968      9.9986      9.1271      8.8022      8.8021      9.1270      9.9985    
  11.968      16.108      24.222      38.835      62.398      95.515      135.45      176.33      211.41      235.93    
  248.18      248.18      195.09      166.26      131.18      95.515      64.595      41.491      26.417      17.637    
  12.953      10.630      9.5546      9.1052      8.9840      9.1051      9.5545      10.630      12.953      17.637    
  26.417      41.492      64.596      95.516      131.18      166.25      195.09      213.65      219.99      213.65    
  146.87      118.89      89.195      62.397      41.491      27.208      18.495      13.635      11.118      9.9024    
  9.3630      9.1643      9.1644      9.3631      9.9025      11.118      13.634      18.494      27.207      41.491    
  62.398      89.196      118.89      146.87      168.43      180.07      180.07      168.43      100.28      77.614    
  56.234      38.834      26.417      18.495      13.879      11.385      10.129      9.5459      9.3072      9.2446    
  9.3073      9.5460      10.129      11.385      13.879      18.494      26.416      38.834      56.233      77.615    
  100.28      120.43      134.30      139.24      134.30      120.43      62.802      47.306      34.089      24.222    
  17.637      13.635      11.385      10.207      9.6394      9.3956      9.3108      9.3107      9.3954      9.6395    
  10.207      11.386      13.635      17.637      24.221      34.088      47.305      62.803      78.330      90.986    
  98.103      98.102      90.984      78.329      37.300      28.224      21.095      16.108      12.953      11.118    
  10.129      9.6394      9.4250      9.3465      9.3283      9.3464      9.4247      9.6391      10.129      11.119    
  12.954      16.109      21.095      28.223      37.299      47.352      56.691      63.355      65.776      63.355    
  56.691      47.352      22.298      17.637      14.215      11.968      10.630      9.9024      9.5459      9.3956    
  9.3465      9.3366      9.3366      9.3465      9.3952      9.5451      9.9019      10.630      11.969      14.216    
  17.638      22.297      27.887      33.651      38.479      41.247      41.247      38.479      33.652      27.888    
  14.386      12.277      10.851      9.9986      9.5546      9.3630      9.3072      9.3108      9.3283      9.3366    
  9.3286      9.3111      9.3072      9.3623      9.5535      9.9977      10.851      12.278      14.388      17.128    
  20.210      23.113      25.211      25.980      25.212      23.114      20.210      17.127      10.543      9.7584    
  9.3131      9.1271      9.1052      9.1643      9.2446      9.3107      9.3464      9.3465      9.3111      9.2453    
  9.1650      9.1051      9.1261      9.3118      9.7576      10.544      11.692      13.122      14.627      15.902    
  16.638      16.638      15.902      14.626      13.121      11.691      8.8019      8.6540      8.6720      8.8022    
  8.9840      9.1644      9.3073      9.3954      9.4247      9.3952      9.3072      9.1650      8.9851      8.8031    
  8.6720      8.6530      8.8005      9.1447      9.6728      10.315      10.944      11.409      11.580      11.408    
  10.943      10.314      9.6728      9.1457      8.0800      8.2434      8.4984      8.8021      9.1051      9.3631    
  9.5460      9.6395      9.6391      9.5451      9.3623      9.1051      8.8031      8.4998      8.2444      8.0799    
  8.0328      8.1066      8.2783      8.4991      8.7030      8.8251      8.8248      8.7023      8.4988      8.2789    
  8.1079      8.0339      7.8847      8.2435      8.6722      9.1270      9.5545      9.9025      10.129      10.207    
  10.129      9.9019      9.5535      9.1261      8.6720      8.2444      7.8861      7.6226      7.4593      7.3842    
  7.3729      7.3956      7.4233      7.4352      7.4236      7.3963      7.3739      7.3849      7.4593      7.6216    
  8.0798      8.6541      9.3132      9.9985      10.630      11.118      11.385      11.386      11.119      10.630    
  9.9977      9.3118      8.6530      8.0799      7.6226      7.2855      7.0538      6.9036      6.8112      6.7582    
  6.7341      6.7345      6.7590      6.8119      6.9037      7.0530      7.2841      7.6215      8.8018      9.7584    
  10.850      11.968      12.953      13.634      13.879      13.635      12.954      11.969      10.851      9.7576    
  8.8005      8.0328      7.4593      7.0538      6.7774      6.5935      6.4755      6.4087      6.3871      6.4089    
  6.4755      6.5928      6.7764      7.0530      7.4594      8.0338      10.543      12.277      14.215      16.108    
  17.637      18.494      18.494      17.637      16.109      14.216      12.278      10.544      9.1447      8.1066    
  7.3842      6.9036      6.5935      6.3988      6.2845      6.2313      6.2312      6.2841      6.3981      6.5928    
  6.9036      7.3851      8.1080      9.1457      14.386      17.637      21.096      24.222      26.417      27.207    
  26.416      24.221      21.095      17.638      14.388      11.692      9.6728      8.2783      7.3729      6.8112    
  6.4755      6.2845      6.1876      6.1580      6.1873      6.2842      6.4756      6.8118      7.3739      8.2790    
  9.6727      11.691      22.297      28.224      34.089      38.835      41.492      41.491      38.834      34.088    
  28.223      22.297      17.128      13.122      10.315      8.4991      7.3956      6.7582      6.4087      6.2313    
  6.1580      6.1579      6.2313      6.4091      6.7589      7.3962      8.4990      10.314      13.121      17.127    
  37.299      47.305      56.233      62.398      64.596      62.398      56.233      47.305      37.299      27.887    
  20.210      14.627      10.944      8.7030      7.4233      6.7341      6.3871      6.2312      6.1873      6.2313    
  6.3873      6.7344      7.4233      8.7024      10.944      14.626      20.210      27.888      62.802      77.613    
  89.194      95.515      95.516      89.196      77.615      62.803      47.352      33.651      23.113      15.902    
  11.409      8.8251      7.4352      6.7345      6.4089      6.2841      6.2842      6.4091      6.7344      7.4348    
  8.8245      11.408      15.902      23.114      33.652      47.352      100.28      118.88      131.18      135.45    
  131.18      118.89      100.28      78.330      56.691      38.479      25.211      16.638      11.580      8.8248    
  7.4236      6.7590      6.4755      6.3981      6.4756      6.7589      7.4233      8.8245      11.580      16.639    
  25.212      38.479      56.691      78.330      146.87      166.26      176.33      176.33      166.25      146.87    
  120.43      90.986      63.355      41.247      25.980      16.638      11.408      8.7023      7.3963      6.8119    
  6.5928      6.5928      6.8118      7.3962      8.7024      11.408      16.639      25.980      41.246      63.355    
  90.985      120.43      195.09      211.41      216.81      211.41      195.09      168.43      134.30      98.103    
  65.776      41.247      25.212      15.902      10.943      8.4988      7.3739      6.9037      6.7764      6.9036    
  7.3739      8.4990      10.944      15.902      25.212      41.246      65.775      98.102      134.30      168.43    
  235.93      246.55      246.55      235.93      213.65      180.07      139.24      98.102      63.355      38.479    
  23.114      14.626      10.314      8.2789      7.3849      7.0530      7.0530      7.3851      8.2790      10.314    
  14.626      23.114      38.479      63.355      98.102      139.24      180.07      213.65      263.56      268.24    
  263.56      248.18      219.99      180.07      134.30      90.984      56.691      33.652      20.210      13.121    
  9.6728      8.1079      7.4593      7.2841      7.4594      8.1080      9.6727      13.121      20.210      33.652    
  56.691      90.985      134.30      180.07      219.99      248.18      277.81      277.81      268.93      248.18    
  213.65      168.43      120.43      78.329      47.352      27.888      17.127      11.691      9.1457      8.0339    
  7.6216      7.6215      8.0338      9.1457      11.691      17.127      27.888      47.352      78.330      120.43    
  168.43      213.65      248.18      268.93      278.18      273.71      258.68      230.45      189.69      142.29    
  96.963      60.734      36.171      21.743      14.131      10.431      8.7531      8.0576      7.8692      8.0571    
  8.7530      10.431      14.131      21.742      36.171      60.735      96.963      142.29      189.69      230.45    
  258.68      273.71      273.71      263.59      241.25      205.93      161.31      115.05      75.046      45.810    
  27.449      17.266      12.108      9.6820      8.6181      8.2225      8.2224      8.6179      9.6822      12.108    
  17.266      27.449      45.810      75.046      115.05      161.31      205.93      241.25      263.59      273.71    
  258.68      241.25      211.34      171.24      127.03      86.260      54.421      33.098      20.600      13.980    
  10.741      9.2605      8.6431      8.4758      8.6430      9.2606      10.742      13.980      20.600      33.098    
  54.421      86.259      127.03      171.24      211.34      241.25      258.68      264.25      230.45      205.93    
  171.24      131.21      92.389      60.372      37.669      23.613      15.808      11.824      9.9277      9.0887    
  8.7760      8.7757      9.0883      9.9279      11.824      15.808      23.613      37.670      60.372      92.389    
  131.21      171.24      205.93      230.45      242.81      242.81      189.69      161.31      127.03      92.389    
  62.494      40.229      25.727      17.284      12.778      10.542      9.5065      9.0743      8.9576      9.0739    
  9.5064      10.542      12.778      17.284      25.727      40.230      62.496      92.390      127.03      161.31    
  189.69      208.06      214.36      208.06      142.29      115.05      86.260      60.372      40.229      26.489    
  18.112      13.438      11.016      9.8461      9.3274      9.1366      9.1365      9.3273      9.8464      11.017    
  13.438      18.112      26.490      40.230      60.372      86.260      115.05      142.29      163.37      174.79    
  174.79      163.37      96.963      75.046      54.421      37.669      25.727      18.112      13.675      11.276    
  10.067      9.5066      9.2777      9.2176      9.2775      9.5068      10.068      11.276      13.674      18.112    
  25.727      37.668      54.421      75.047      96.964      116.50      129.98      134.79      129.98      116.50    
  60.734      45.810      33.098      23.613      17.284      13.438      11.276      10.143      9.5980      9.3645    
  9.2835      9.2833      9.3643      9.5983      10.144      11.277      13.439      17.284      23.612      33.096    
  45.810      60.735      75.711      87.934      94.815      94.815      87.933      75.709      36.171      27.449    
  20.600      15.808      12.778      11.016      10.067      9.5980      9.3933      9.3189      9.3016      9.3185    
  9.3930      9.5980      10.067      11.017      12.779      15.809      20.599      27.448      36.170      45.837    
  54.824      61.240      63.571      61.239      54.823      45.837      21.743      17.266      13.980      11.824    
  10.542      9.8461      9.5066      9.3645      9.3189      9.3099      9.3098      9.3186      9.3641      9.5059    
  9.8456      10.542      11.825      13.981      17.266      21.742      27.112      32.648      37.285      39.945    
  39.945      37.286      32.649      27.113      14.131      12.108      10.741      9.9277      9.5065      9.3274    
  9.2777      9.2835      9.3016      9.3098      9.3018      9.2838      9.2776      9.3267      9.5054      9.9270    
  10.742      12.109      14.132      16.762      19.722      22.509      24.524      25.262      24.525      22.511    
  19.722      16.761      10.431      9.6820      9.2605      9.0887      9.0743      9.1366      9.2176      9.2833    
  9.3185      9.3186      9.2838      9.2183      9.1372      9.0740      9.0875      9.2592      9.6813      10.431    
  11.530      12.901      14.344      15.568      16.274      16.275      15.568      14.344      12.900      11.529    
  8.7531      8.6181      8.6431      8.7760      8.9576      9.1365      9.2775      9.3643      9.3930      9.3641    
  9.2776      9.1372      8.9587      8.7767      8.6430      8.6170      8.7517      9.0765      9.5791      10.192    
  10.794      11.239      11.403      11.238      10.793      10.191      9.5790      9.0774      8.0576      8.2225    
  8.4758      8.7757      9.0739      9.3273      9.5068      9.5983      9.5980      9.5059      9.3267      9.0740    
  8.7767      8.4772      8.2234      8.0573      8.0048      8.0695      8.2293      8.4374      8.6307      8.7466    
  8.7462      8.6298      8.4370      8.2298      8.0708      8.0061      7.8692      8.2224      8.6430      9.0883    
  9.5064      9.8464      10.068      10.144      10.067      9.8456      9.5054      9.0875      8.6430      8.2234    
  7.8706      7.6095      7.4455      7.3669      7.3508      7.3685      7.3925      7.4029      7.3927      7.3690    
  7.3517      7.3678      7.4456      7.6086      8.0571      8.6179      9.2606      9.9279      10.542      11.017    
  11.276      11.277      11.017      10.542      9.9270      9.2592      8.6170      8.0573      7.6095      7.2779    
  7.0483      6.8979      6.8038      6.7489      6.7237      6.7240      6.7497      6.8046      6.8981      7.0477    
  7.2766      7.6083      8.7530      9.6822      10.742      11.824      12.778      13.438      13.674      13.439    
  12.779      11.825      10.742      9.6813      8.7517      8.0048      7.4455      7.0483      6.7761      6.5934    
  6.4752      6.4077      6.3858      6.4081      6.4753      6.5929      6.7751      7.0475      7.4455      8.0057    
  10.431      12.108      13.980      15.808      17.284      18.112      18.112      17.284      15.809      13.981    
  12.109      10.431      9.0765      8.0695      7.3669      6.8979      6.5934      6.4009      6.2869      6.2336    
  6.2335      6.2866      6.4002      6.5927      6.8977      7.3677      8.0709      9.0776      14.131      17.266    
  20.600      23.613      25.727      26.490      25.727      23.612      20.599      17.266      14.132      11.530    
  9.5791      8.2293      7.3508      6.8038      6.4752      6.2869      6.1907      6.1612      6.1904      6.2865    
  6.4752      6.8043      7.3517      8.2301      9.5791      11.529      21.742      27.449      33.098      37.670    
  40.230      40.230      37.668      33.096      27.448      21.742      16.762      12.901      10.192      8.4374    
  7.3685      6.7489      6.4077      6.2336      6.1612      6.1610      6.2334      6.4081      6.7497      7.3691    
  8.4374      10.191      12.900      16.761      36.171      45.810      54.421      60.372      62.496      60.372    
  54.421      45.810      36.170      27.112      19.722      14.344      10.794      8.6307      7.3925      6.7237    
  6.3858      6.2335      6.1904      6.2334      6.3861      6.7241      7.3925      8.6300      10.794      14.344    
  19.722      27.112      60.735      75.046      86.259      92.389      92.390      86.260      75.047      60.735    
  45.837      32.648      22.509      15.568      11.239      8.7466      7.4029      6.7240      6.4081      6.2866    
  6.2865      6.4081      6.7241      7.4027      8.7459      11.238      15.568      22.510      32.649      45.838    
  96.963      115.05      127.03      131.21      127.03      115.05      96.964      75.711      54.824      37.285    
  24.524      16.274      11.403      8.7462      7.3927      6.7497      6.4753      6.4002      6.4752      6.7497    
  7.3925      8.7459      11.403      16.275      24.525      37.286      54.823      75.711      142.29      161.31    
  171.24      171.24      161.31      142.29      116.50      87.934      61.240      39.945      25.262      16.275    
  11.238      8.6298      7.3690      6.8046      6.5929      6.5927      6.8043      7.3691      8.6300      11.238    
  16.275      25.262      39.945      61.239      87.933      116.50      189.69      205.93      211.34      205.93    
  189.69      163.37      129.98      94.815      63.571      39.945      24.525      15.568      10.793      8.4370    
  7.3517      6.8981      6.7751      6.8977      7.3517      8.4374      10.794      15.568      24.525      39.945    
  63.570      94.814      129.98      163.37      230.45      241.25      241.25      230.45      208.06      174.79    
  134.79      94.815      61.239      37.286      22.511      14.344      10.191      8.2298      7.3678      7.0477    
  7.0475      7.3677      8.2301      10.191      14.344      22.510      37.286      61.239      94.814      134.79    
  174.80      208.06      258.68      263.59      258.68      242.81      214.36      174.79      129.98      87.933    
  54.823      32.649      19.722      12.900      9.5790      8.0708      7.4456      7.2766      7.4455      8.0709    
  9.5791      12.900      19.722      32.649      54.823      87.933      129.98      174.80      214.36      242.81    
  273.71      273.71      264.25      242.81      208.06      163.37      116.50      75.709      45.837      27.113    
  16.761      11.529      9.0774      8.0061      7.6086      7.6083      8.0057      9.0776      11.529      16.761    
  27.112      45.838      75.711      116.50      163.37      208.06      242.81      264.25      265.62      260.33    
  243.54      214.15      174.09      129.34      87.693      54.988      33.044      20.201      13.418      10.115    
  8.6138      7.9914      7.8227      7.9905      8.6137      10.115      13.418      20.200      33.043      54.989    
  87.693      129.34      174.09      214.15      243.53      260.33      260.33      248.97      225.30      189.95    
  147.21      104.26      67.890      41.661      25.299      16.232      11.633      9.4653      8.5138      8.1603    
  8.1599      8.5135      9.4658      11.633      16.231      25.299      41.661      67.890      104.26      147.21    
  189.95      225.30      248.97      260.33      243.54      225.30      195.31      156.66      115.34      78.059    
  49.383      30.345      19.220      13.323      10.433      9.1094      8.5581      8.4087      8.5576      9.1095    
  10.433      13.323      19.220      30.346      49.383      78.058      115.33      156.66      195.31      225.30    
  243.54      249.54      214.15      189.95      156.66      119.21      83.642      54.736      34.433      21.918    
  14.971      11.419      9.7256      8.9768      8.6984      8.6978      8.9762      9.7260      11.420      14.971    
  21.918      34.434      54.737      83.642      119.21      156.66      189.95      214.15      226.65      226.65    
  174.09      147.21      115.34      83.642      56.649      36.725      23.811      16.300      12.287      10.291    
  9.3678      8.9835      8.8799      8.9827      9.3676      10.292      12.287      16.299      23.811      36.727    
  56.650      83.643      115.34      147.21      174.09      191.78      197.92      191.78      129.34      104.26    
  78.059      54.736      36.725      24.493      17.045      12.887      10.728      9.6847      9.2236      9.0550    
  9.0546      9.2233      9.6851      10.729      12.886      17.044      24.493      36.726      54.737      78.060    
  104.26      129.34      148.97      159.69      159.70      148.97      87.693      67.890      49.383      34.433    
  23.811      17.045      13.102      10.967      9.8904      9.3928      9.1910      9.1383      9.1906      9.3930    
  9.8912      10.967      13.101      17.044      23.811      34.433      49.383      67.891      87.694      105.47    
  117.82      122.24      117.82      105.47      54.988      41.661      30.345      21.918      16.300      12.887    
  10.967      9.9615      9.4788      9.2739      9.2036      9.2033      9.2736      9.4794      9.9623      10.967    
  12.887      16.299      21.917      30.344      41.660      54.989      68.418      79.421      85.633      85.632    
  79.419      68.416      33.044      25.299      19.220      14.971      12.287      10.728      9.8904      9.4788    
  9.3012      9.2379      9.2233      9.2374      9.3010      9.4790      9.8907      10.729      12.288      14.972    
  19.219      25.297      33.043      41.638      49.642      55.367      57.449      55.367      49.642      41.638    
  20.201      16.232      13.323      11.419      10.291      9.6847      9.3928      9.2739      9.2379      9.2319    
  9.2317      9.2375      9.2735      9.3923      9.6843      10.292      11.420      13.324      16.232      20.200    
  24.961      29.870      33.982      36.341      36.342      33.983      29.871      24.962      13.418      11.633    
  10.433      9.7256      9.3678      9.2236      9.1910      9.2036      9.2233      9.2317      9.2234      9.2038    
  9.1909      9.2229      9.3667      9.7251      10.433      11.634      13.419      15.745      18.366      20.837    
  22.621      23.275      22.623      20.838      18.367      15.744      10.115      9.4653      9.1094      8.9768    
  8.9835      9.0550      9.1383      9.2033      9.2374      9.2375      9.2038      9.1391      9.0554      8.9830    
  8.9756      9.1081      9.4648      10.115      11.078      12.285      13.559      14.641      15.266      15.266    
  14.641      13.559      12.284      11.077      8.6138      8.5138      8.5581      8.6984      8.8799      9.0546    
  9.1906      9.2736      9.3010      9.2735      9.1909      9.0554      8.8809      8.6989      8.5578      8.5127    
  8.6125      8.8840      9.3167      9.8505      10.378      10.769      10.913      10.768      10.377      9.8495    
  9.3164      8.8848      7.9914      8.1603      8.4087      8.6978      8.9827      9.2233      9.3930      9.4794    
  9.4790      9.3923      9.2229      8.9830      8.6989      8.4100      8.1610      7.9910      7.9241      7.9642    
  8.0917      8.2656      8.4298      8.5291      8.5287      8.4289      8.2650      8.0921      7.9654      7.9254    
  7.8227      8.1599      8.5576      8.9762      9.3676      9.6851      9.8912      9.9623      9.8907      9.6843    
  9.3667      8.9756      8.5578      8.1610      7.8241      7.5702      7.4047      7.3176      7.2887      7.2932    
  7.3074      7.3142      7.3075      7.2936      7.2895      7.3185      7.4050      7.5695      7.9905      8.5135    
  9.1095      9.7260      10.292      10.729      10.967      10.967      10.729      10.292      9.7251      9.1081    
  8.5127      7.9910      7.5702      7.2546      7.0317      6.8812      6.7832      6.7238      6.6956      6.6959    
  6.7246      6.7840      6.8815      7.0312      7.2534      7.5689      8.6137      9.4658      10.433      11.420    
  12.287      12.886      13.101      12.887      12.288      11.420      10.433      9.4648      8.6125      7.9241    
  7.4047      7.0317      6.7717      6.5932      6.4747      6.4058      6.3832      6.4062      6.4750      6.5928    
  6.7707      7.0309      7.4045      7.9249      10.115      11.633      13.323      14.971      16.299      17.044    
  17.044      16.299      14.972      13.324      11.634      10.115      8.8840      7.9642      7.3176      6.8812    
  6.5932      6.4071      6.2943      6.2406      6.2406      6.2941      6.4065      6.5924      6.8809      7.3182    
  7.9655      8.8852      13.418      16.231      19.220      21.918      23.811      24.493      23.811      21.917    
  19.219      16.232      13.419      11.078      9.3167      8.0917      7.2887      6.7832      6.4747      6.2943    
  6.2002      6.1708      6.1999      6.2939      6.4746      6.7836      7.2895      8.0926      9.3169      11.078    
  20.200      25.299      30.346      34.434      36.727      36.726      34.433      30.344      25.297      20.200    
  15.745      12.285      9.8505      8.2656      7.2932      6.7238      6.4058      6.2406      6.1708      6.1707    
  6.2404      6.4061      6.7245      7.2938      8.2657      9.8499      12.284      15.744      33.043      41.661    
  49.383      54.737      56.650      54.737      49.383      41.660      33.043      24.961      18.366      13.559    
  10.378      8.4298      7.3074      6.6956      6.3832      6.2406      6.1999      6.2404      6.3834      6.6962    
  7.3075      8.4292      10.377      13.559      18.366      24.962      54.989      67.890      78.058      83.642    
  83.643      78.060      67.891      54.989      41.638      29.870      20.837      14.641      10.769      8.5291    
  7.3142      6.6959      6.4062      6.2941      6.2939      6.4061      6.6962      7.3142      8.5283      10.768    
  14.641      20.838      29.871      41.638      87.693      104.26      115.33      119.21      115.34      104.26    
  87.694      68.418      49.642      33.982      22.621      15.266      10.913      8.5287      7.3075      6.7246    
  6.4750      6.4065      6.4746      6.7245      7.3075      8.5283      10.912      15.266      22.623      33.983    
  49.642      68.417      129.34      147.21      156.66      156.66      147.21      129.34      105.47      79.421    
  55.367      36.341      23.275      15.266      10.768      8.4289      7.2936      6.7840      6.5928      6.5924    
  6.7836      7.2938      8.4292      10.768      15.266      23.276      36.342      55.366      79.420      105.47    
  174.09      189.95      195.31      189.95      174.09      148.97      117.82      85.633      57.449      36.342    
  22.623      14.641      10.377      8.2650      7.2895      6.8815      6.7707      6.8809      7.2895      8.2657    
  10.377      14.641      22.623      36.342      57.449      85.631      117.82      148.97      214.15      225.30    
  225.30      214.15      191.78      159.69      122.24      85.632      55.367      33.983      20.838      13.559    
  9.8495      8.0921      7.3185      7.0312      7.0309      7.3182      8.0926      9.8499      13.559      20.838    
  33.983      55.366      85.631      122.24      159.70      191.78      243.53      248.97      243.54      226.65    
  197.92      159.70      117.82      79.419      49.642      29.871      18.367      12.284      9.3164      7.9654    
  7.4050      7.2534      7.4045      7.9655      9.3169      12.284      18.366      29.871      49.642      79.420    
  117.82      159.70      197.92      226.65      260.33      260.33      249.54      226.65      191.78      148.97    
  105.47      68.416      41.638      24.962      15.744      11.077      8.8848      7.9254      7.5695      7.5689    
  7.9249      8.8852      11.078      15.744      24.962      41.638      68.417      105.47      148.97      191.78    
  226.65      249.54      241.82      235.78      217.59      188.00      150.24      110.19      74.270      46.770    
  28.587      17.994      12.390      9.6518      8.4036      7.8862      7.7460      7.8850      8.4035      9.6528    
  12.390      17.993      28.587      46.771      74.271      110.19      150.24      188.00      217.59      235.78    
  235.78      223.42      199.12      165.07      126.09      88.498      57.601      35.738      22.227      14.745    
  10.942      9.1426      8.3525      8.0596      8.0590      8.3519      9.1433      10.942      14.744      22.226    
  35.739      57.602      88.497      126.09      165.07      199.12      223.42      235.78      217.59      199.12    
  170.17      134.62      98.134      66.213      42.175      26.414      17.239      12.371      9.9773      8.8796    
  8.4238      8.3005      8.4229      8.8797      9.9783      12.371      17.238      26.414      42.175      66.212    
  98.132      134.62      170.17      199.12      217.59      223.88      188.00      165.07      134.62      101.53    
  70.971      46.656      29.810      19.488      13.761      10.825      9.4220      8.8033      8.5747      8.5740    