Zr                                      
   1.00000000000000     
     3.236030    0.000000    0.000000
     1.618015    2.802484    0.000000
     0.000000    0.000000    5.189530
   Zr
     2
Direct
  0.000000  0.000000  0.000000
  0.333333  0.333333  0.500000
 
   28   28   48
 0.28192725986E+03 0.27781087234E+03 0.26356368355E+03 0.23593375674E+03 0.19509328406E+03
 0.14686655445E+03 0.10027668926E+03 0.62802110891E+02 0.37299546451E+02 0.22297578953E+02
 0.14386202747E+02 0.10543325495E+02 0.88018771580E+01 0.80800099574E+01 0.78846903061E+01
 0.80797838440E+01 0.88017693781E+01 0.10543497796E+02 0.14386383212E+02 0.22297470874E+02
 0.37299280379E+02 0.62802061382E+02 0.10027693497E+03 0.14686677866E+03 0.19509323281E+03
 0.23593355729E+03 0.26356359339E+03 0.27781090567E+03 0.27781087234E+03 0.26823533632E+03
 0.24654431488E+03 0.21141193542E+03 0.16625525946E+03 0.11888501512E+03 0.77614161666E+02
 0.47305614233E+02 0.28223570587E+02 0.17637165005E+02 0.12277218160E+02 0.97584485168E+01
 0.86539656129E+01 0.82434228877E+01 0.82435046202E+01 0.86540715259E+01 0.97584120749E+01
 0.12277165140E+02 0.17637309749E+02 0.28223746854E+02 0.47305324999E+02 0.77613237599E+02
 0.11888402819E+03 0.16625506515E+03 0.21141284102E+03 0.24654582269E+03 0.26823662749E+03
 0.27781136440E+03 0.26356368355E+03 0.24654431488E+03 0.21681131265E+03 0.17633085508E+03
 0.13118059210E+03 0.89194995305E+02 0.56233546013E+02 0.34089104215E+02 0.21095301963E+02
 0.14214649359E+02 0.10850656817E+02 0.93131326766E+01 0.86719847017E+01 0.84983682911E+01
 0.86721831168E+01 0.93131864298E+01 0.10850486825E+02 0.14214648755E+02 0.21095720421E+02
 0.34089496582E+02 0.56233202104E+02 0.89193890868E+02 0.13117960252E+03 0.17633090832E+03
 0.21681249467E+03 0.24654587754E+03 0.26356472436E+03 0.26893123034E+03 0.23593375674E+03
 0.21141193542E+03 0.17633085508E+03 0.13545286562E+03 0.95514939381E+02 0.62397408129E+02
 0.38834478958E+02 0.24221668499E+02 0.16108104090E+02 0.11967670952E+02 0.99985866660E+01
 0.91270698602E+01 0.88021668667E+01 0.88021123454E+01 0.91269643932E+01 0.99985249743E+01
 0.11967681087E+02 0.16108190111E+02 0.24221896502E+02 0.38834895044E+02 0.62397860725E+02
 0.95515113885E+02 0.13545258954E+03 0.17633031095E+03 0.21141147885E+03 0.23593355690E+03
 0.24817881543E+03 0.24817885163E+03 0.19509328406E+03 0.16625525946E+03 0.13118059210E+03
 0.95514939381E+02 0.64594849577E+02 0.41491162337E+02 0.26416565100E+02 0.17636946827E+02
 0.12952757595E+02 0.10629760661E+02 0.95545512644E+01 0.91052201492E+01 0.89839874017E+01
 0.91050961912E+01 0.95544825508E+01 0.10629746376E+02 0.12952565420E+02 0.17636573875E+02
 0.26416509735E+02 0.41491926701E+02 0.64596191286E+02 0.95515878399E+02 0.13118028155E+03
 0.16625375787E+03 0.19509145135E+03 0.21364531014E+03 0.21998958975E+03 0.21364650376E+03
 0.14686655445E+03 0.11888501512E+03 0.89194995305E+02 0.62397408129E+02 0.41491162337E+02
 0.27207536098E+02 0.18494816209E+02 0.13634736731E+02 0.11118111573E+02 0.99024133998E+01
 0.93629608224E+01 0.91643470536E+01 0.91643934752E+01 0.93630785116E+01 0.99025050175E+01
 0.11118000691E+02 0.13634315289E+02 0.18494243966E+02 0.27207225032E+02 0.41491448252E+02
 0.62398178990E+02 0.89195677720E+02 0.11888501352E+03 0.14686578165E+03 0.16842513990E+03
 0.18007246982E+03 0.18007291873E+03 0.16842613351E+03 0.10027668926E+03 0.77614161666E+02
 0.56233546013E+02 0.38834478958E+02 0.26416565100E+02 0.18494816209E+02 0.13878958009E+02
 0.11385166179E+02 0.10128753899E+02 0.95458709440E+01 0.93072185966E+01 0.92446154399E+01
 0.93072902050E+01 0.95460401015E+01 0.10129021234E+02 0.11385404648E+02 0.13878886349E+02
 0.18494205306E+02 0.26415560355E+02 0.38833647052E+02 0.56233461242E+02 0.77614901820E+02
 0.10027778976E+03 0.12042604705E+03 0.13430052230E+03 0.13924067856E+03 0.13430007439E+03
 0.12042514618E+03 0.62802110891E+02 0.47305614233E+02 0.34089104215E+02 0.24221668499E+02
 0.17636946827E+02 0.13634736731E+02 0.11385166179E+02 0.10207056602E+02 0.96393959520E+01
 0.93955613900E+01 0.93107755312E+01 0.93107018913E+01 0.93954454964E+01 0.96394735273E+01
 0.10207485006E+02 0.11385810120E+02 0.13635158114E+02 0.17636703805E+02 0.24220730743E+02
 0.34087999725E+02 0.47305108700E+02 0.62802644218E+02 0.78330290828E+02 0.90985615268E+02
 0.98102708845E+02 0.98102140922E+02 0.90984254404E+02 0.78328954802E+02 0.37299546451E+02
 0.28223570587E+02 0.21095301963E+02 0.16108104090E+02 0.12952757595E+02 0.11118111573E+02
 0.10128753899E+02 0.96393959520E+01 0.94249776088E+01 0.93465222604E+01 0.93283126641E+01
 0.93463719977E+01 0.94246692394E+01 0.96390880209E+01 0.10128803159E+02 0.11118773316E+02
 0.12953814363E+02 0.16108889117E+02 0.21095225915E+02 0.28222686202E+02 0.37298555145E+02
 0.47351775072E+02 0.56691299419E+02 0.63355435443E+02 0.65775926406E+02 0.63354955580E+02
 0.56690955565E+02 0.47352145210E+02 0.22297578953E+02 0.17637165005E+02 0.14214649359E+02
 0.11967670952E+02 0.10629760661E+02 0.99024133998E+01 0.95458709440E+01 0.93955613900E+01
 0.93465222604E+01 0.93365909384E+01 0.93366465905E+01 0.93464994990E+01 0.93951571649E+01
 0.95451448833E+01 0.99018876516E+01 0.10629979973E+02 0.11968666418E+02 0.14215852841E+02
 0.17637844663E+02 0.22297368219E+02 0.27887227836E+02 0.33651057807E+02 0.38478513463E+02
 0.41246573620E+02 0.41246891775E+02 0.38479383223E+02 0.33652195426E+02 0.27888151416E+02
 0.14386202747E+02 0.12277218160E+02 0.10850656817E+02 0.99985866660E+01 0.95545512644E+01
 0.93629608224E+01 0.93072185966E+01 0.93107755312E+01 0.93283126641E+01 0.93366465905E+01
 0.93286439299E+01 0.93111443474E+01 0.93072050173E+01 0.93623196390E+01 0.95534834736E+01
 0.99977228970E+01 0.10850646794E+02 0.12278183382E+02 0.14387532041E+02 0.17127926185E+02
 0.20209835283E+02 0.23112811971E+02 0.25211035760E+02 0.25979505154E+02 0.25212020082E+02
 0.23113967295E+02 0.20210203234E+02 0.17127176630E+02 0.10543325495E+02 0.97584485168E+01
 0.93131326766E+01 0.91270698602E+01 0.91052201492E+01 0.91643470536E+01 0.92446154399E+01
 0.93107018913E+01 0.93463719977E+01 0.93464994990E+01 0.93111443474E+01 0.92453439781E+01
 0.91649591392E+01 0.91051196230E+01 0.91260603795E+01 0.93117608656E+01 0.97576267819E+01
 0.10543560285E+02 0.11692042086E+02 0.13122263141E+02 0.14626945296E+02 0.15902215259E+02
 0.16638399347E+02 0.16638471221E+02 0.15902212535E+02 0.14626471156E+02 0.13121263226E+02
 0.11691046545E+02 0.88018771580E+01 0.86539656129E+01 0.86719847017E+01 0.88021668667E+01
 0.89839874017E+01 0.91643934752E+01 0.93072902050E+01 0.93954454964E+01 0.94246692394E+01
 0.93951571649E+01 0.93072050173E+01 0.91649591392E+01 0.89850786270E+01 0.88030941196E+01
 0.86720423478E+01 0.86530188430E+01 0.88004854060E+01 0.91446738009E+01 0.96728257087E+01
 0.10314764751E+02 0.10944497642E+02 0.11408866999E+02 0.11579993866E+02 0.11408000654E+02
 0.10943250931E+02 0.10313866455E+02 0.96728470044E+01 0.91456618780E+01 0.80800099574E+01
 0.82434228877E+01 0.84983682911E+01 0.88021123454E+01 0.91050961912E+01 0.93630785116E+01
 0.95460401015E+01 0.96394735273E+01 0.96390880209E+01 0.95451448833E+01 0.93623196390E+01
 0.91051196230E+01 0.88030941196E+01 0.84997935465E+01 0.82443795260E+01 0.80798565034E+01
 0.80327937524E+01 0.81066294202E+01 0.82783088925E+01 0.84991024587E+01 0.87030358919E+01
 0.88251475539E+01 0.88248030232E+01 0.87023466168E+01 0.84988118783E+01 0.82789166619E+01
 0.81079139917E+01 0.80339187369E+01 0.78846903061E+01 0.82435046202E+01 0.86721831168E+01
 0.91269643932E+01 0.95544825508E+01 0.99025050175E+01 0.10129021234E+02 0.10207485006E+02
 0.10128803159E+02 0.99018876516E+01 0.95534834736E+01 0.91260603795E+01 0.86720423478E+01
 0.82443795260E+01 0.78860915236E+01 0.76226033596E+01 0.74593248819E+01 0.73841690721E+01
 0.73729118234E+01 0.73955902972E+01 0.74233351274E+01 0.74352157946E+01 0.74236386766E+01
 0.73962964300E+01 0.73739021337E+01 0.73849291333E+01 0.74592506587E+01 0.76215703321E+01
 0.80797838440E+01 0.86540715259E+01 0.93131864298E+01 0.99985249743E+01 0.10629746376E+02
 0.11118000691E+02 0.11385404648E+02 0.11385810120E+02 0.11118773316E+02 0.10629979973E+02
 0.99977228970E+01 0.93117608656E+01 0.86530188430E+01 0.80798565034E+01 0.76226033596E+01
 0.72854717165E+01 0.70537736774E+01 0.69036465670E+01 0.68111565235E+01 0.67581890989E+01
 0.67341261179E+01 0.67344571917E+01 0.67589853807E+01 0.68119008496E+01 0.69037483623E+01
 0.70529580837E+01 0.72840791773E+01 0.76214807911E+01 0.88017693781E+01 0.97584120749E+01
 0.10850486825E+02 0.11967681087E+02 0.12952565420E+02 0.13634315289E+02 0.13878886349E+02
 0.13635158114E+02 0.12953814363E+02 0.11968666418E+02 0.10850646794E+02 0.97576267819E+01
 0.88004854060E+01 0.80327937524E+01 0.74593248819E+01 0.70537736774E+01 0.67773823790E+01
 0.65934549778E+01 0.64754870004E+01 0.64087320457E+01 0.63870947959E+01 0.64089470302E+01
 0.64754724115E+01 0.65928423019E+01 0.67763610364E+01 0.70530204879E+01 0.74594430213E+01
 0.80337960217E+01 0.10543497796E+02 0.12277165140E+02 0.14214648755E+02 0.16108190111E+02
 0.17636573875E+02 0.18494243966E+02 0.18494205306E+02 0.17636703805E+02 0.16108889117E+02
 0.14215852841E+02 0.12278183382E+02 0.10543560285E+02 0.91446738009E+01 0.81066294202E+01
 0.73841690721E+01 0.69036465670E+01 0.65934549778E+01 0.63988050034E+01 0.62844784646E+01
 0.62312974830E+01 0.62311895042E+01 0.62840865001E+01 0.63981149636E+01 0.65927974366E+01
 0.69036043123E+01 0.73850504020E+01 0.81080333310E+01 0.91456876955E+01 0.14386383212E+02
 0.17637309749E+02 0.21095720421E+02 0.24221896502E+02 0.26416509735E+02 0.27207225032E+02
 0.26415560355E+02 0.24220730743E+02 0.21095225915E+02 0.17637844663E+02 0.14387532041E+02
 0.11692042086E+02 0.96728257087E+01 0.82783088925E+01 0.73729118234E+01 0.68111565235E+01
 0.64754870004E+01 0.62844784646E+01 0.61876094876E+01 0.61579771434E+01 0.61873042853E+01
 0.62841641445E+01 0.64755547608E+01 0.68117867239E+01 0.73738597890E+01 0.82789876339E+01
 0.96727067561E+01 0.11691106978E+02 0.22297470874E+02 0.28223746854E+02 0.34089496582E+02
 0.38834895044E+02 0.41491926701E+02 0.41491448252E+02 0.38833647052E+02 0.34087999725E+02
 0.28222686202E+02 0.22297368219E+02 0.17127926185E+02 0.13122263141E+02 0.10314764751E+02
 0.84991024587E+01 0.73955902972E+01 0.67581890989E+01 0.64087320457E+01 0.62312974830E+01
 0.61579771434E+01 0.61579110594E+01 0.62312817418E+01 0.64090795735E+01 0.67588999705E+01
 0.73962011343E+01 0.84990333182E+01 0.10313852793E+02 0.13120975865E+02 0.17127053894E+02
 0.37299280379E+02 0.47305324999E+02 0.56233202104E+02 0.62397860725E+02 0.64596191286E+02
 0.62398178990E+02 0.56233461242E+02 0.47305108700E+02 0.37298555145E+02 0.27887227836E+02
 0.20209835283E+02 0.14626945296E+02 0.10944497642E+02 0.87030358919E+01 0.74233351274E+01
 0.67341261179E+01 0.63870947959E+01 0.62311895042E+01 0.61873042853E+01 0.62312817418E+01
 0.63873460003E+01 0.67344146216E+01 0.74232975253E+01 0.87024328621E+01 0.10943593311E+02
 0.14626374382E+02 0.20210025141E+02 0.27887990782E+02 0.62802061382E+02 0.77613237599E+02
 0.89193890868E+02 0.95515113885E+02 0.95515878399E+02 0.89195677720E+02 0.77614901820E+02
 0.62802644218E+02 0.47351775072E+02 0.33651057807E+02 0.23112811971E+02 0.15902215259E+02
 0.11408866999E+02 0.88251475539E+01 0.74352157946E+01 0.67344571917E+01 0.64089470302E+01
 0.62840865001E+01 0.62841641445E+01 0.64090795735E+01 0.67344146216E+01 0.74348274614E+01
 0.88245086202E+01 0.11408384825E+02 0.15902369795E+02 0.23113735869E+02 0.33652277292E+02
 0.47352418347E+02 0.10027693497E+03 0.11888402819E+03 0.13117960252E+03 0.13545258954E+03
 0.13118028155E+03 0.11888501352E+03 0.10027778976E+03 0.78330290828E+02 0.56691299419E+02
 0.38478513463E+02 0.25211035760E+02 0.16638399347E+02 0.11579993866E+02 0.88248030232E+01
 0.74236386766E+01 0.67589853807E+01 0.64754724115E+01 0.63981149636E+01 0.64755547608E+01
 0.67588999705E+01 0.74232975253E+01 0.88245086202E+01 0.11580140527E+02 0.16639028283E+02
 0.25211793255E+02 0.38478994360E+02 0.56691310992E+02 0.78329823162E+02 0.14686677866E+03
 0.16625506515E+03 0.17633090832E+03 0.17633031095E+03 0.16625375787E+03 0.14686578165E+03
 0.12042604705E+03 0.90985615268E+02 0.63355435443E+02 0.41246573620E+02 0.25979505154E+02
 0.16638471221E+02 0.11408000654E+02 0.87023466168E+01 0.73962964300E+01 0.68119008496E+01
 0.65928423019E+01 0.65927974366E+01 0.68117867239E+01 0.73962011343E+01 0.87024328621E+01
 0.11408384825E+02 0.16639028283E+02 0.25979833770E+02 0.41246284688E+02 0.63354583181E+02
 0.90984821676E+02 0.12042606045E+03 0.19509323281E+03 0.21141284102E+03 0.21681249467E+03
 0.21141147885E+03 0.19509145135E+03 0.16842513990E+03 0.13430052230E+03 0.98102708845E+02
 0.65775926406E+02 0.41246891775E+02 0.25212020082E+02 0.15902212535E+02 0.10943250931E+02
 0.84988118783E+01 0.73739021337E+01 0.69037483623E+01 0.67763610364E+01 0.69036043123E+01
 0.73738597890E+01 0.84990333182E+01 0.10943593311E+02 0.15902369795E+02 0.25211793255E+02
 0.41246284688E+02 0.65775120094E+02 0.98102089077E+02 0.13430062702E+03 0.16842628116E+03
 0.23593355729E+03 0.24654582269E+03 0.24654587754E+03 0.23593355690E+03 0.21364531014E+03
 0.18007246982E+03 0.13924067856E+03 0.98102140922E+02 0.63354955580E+02 0.38479383223E+02
 0.23113967295E+02 0.14626471156E+02 0.10313866455E+02 0.82789166619E+01 0.73849291333E+01
 0.70529580837E+01 0.70530204879E+01 0.73850504020E+01 0.82789876339E+01 0.10313852793E+02
 0.14626374382E+02 0.23113735869E+02 0.38478994360E+02 0.63354583181E+02 0.98102089077E+02
 0.13924105200E+03 0.18007299614E+03 0.21364561038E+03 0.26356359339E+03 0.26823662749E+03
 0.26356472436E+03 0.24817881543E+03 0.21998958975E+03 0.18007291873E+03 0.13430007439E+03
 0.90984254404E+02 0.56690955565E+02 0.33652195426E+02 0.20210203234E+02 0.13121263226E+02
 0.96728470044E+01 0.81079139917E+01 0.74592506587E+01 0.72840791773E+01 0.74594430213E+01
 0.81080333310E+01 0.96727067561E+01 0.13120975865E+02 0.20210025141E+02 0.33652277292E+02
 0.56691310992E+02 0.90984821676E+02 0.13430062702E+03 0.18007299614E+03 0.21998881050E+03
 0.24817741002E+03 0.27781090567E+03 0.27781136440E+03 0.26893123034E+03 0.24817885163E+03
 0.21364650376E+03 0.16842613351E+03 0.12042514618E+03 0.78328954802E+02 0.47352145210E+02
 0.27888151416E+02 0.17127176630E+02 0.11691046545E+02 0.91456618780E+01 0.80339187369E+01
 0.76215703321E+01 0.76214807911E+01 0.80337960217E+01 0.91456876955E+01 0.11691106978E+02
 0.17127053894E+02 0.27887990782E+02 0.47352418347E+02 0.78329823162E+02 0.12042606045E+03
 0.16842628116E+03 0.21364561038E+03 0.24817741002E+03 0.26893001553E+03 0.27818165811E+03
 0.27371263656E+03 0.25868121571E+03 0.23044828927E+03 0.18968693241E+03 0.14229279322E+03
 0.96963007184E+02 0.60734155472E+02 0.36171420871E+02 0.21742669367E+02 0.14130513457E+02
 0.10430771915E+02 0.87531153132E+01 0.80575803815E+01 0.78692106454E+01 0.80570521986E+01
 0.87530112312E+01 0.10431233235E+02 0.14130638360E+02 0.21742191506E+02 0.36171164739E+02
 0.60734556127E+02 0.96963488852E+02 0.14229289905E+03 0.18968688293E+03 0.23044818598E+03
 0.25868081848E+03 0.27371214300E+03 0.27371263656E+03 0.26358799956E+03 0.24125030188E+03
 0.20593059413E+03 0.16131197340E+03 0.11504714402E+03 0.75046200813E+02 0.45810485327E+02
 0.27449148209E+02 0.17265940047E+02 0.12107693437E+02 0.96820017997E+01 0.86180518406E+01
 0.82225377304E+01 0.82223983691E+01 0.86179497173E+01 0.96822160232E+01 0.12107866944E+02
 0.17265810458E+02 0.27449031201E+02 0.45810411165E+02 0.75045589887E+02 0.11504606509E+03
 0.16131163005E+03 0.20593168793E+03 0.24125191777E+03 0.26358894993E+03 0.27371285693E+03
 0.25868121571E+03 0.24125030188E+03 0.21133692663E+03 0.17124037762E+03 0.12703469715E+03
 0.86259840725E+02 0.54420770855E+02 0.33097662812E+02 0.20599725777E+02 0.13979829530E+02
 0.10741317618E+02 0.92604875927E+01 0.86431122295E+01 0.84757999441E+01 0.86429869184E+01
 0.92605636181E+01 0.10741518172E+02 0.13979866946E+02 0.20599812342E+02 0.33097987054E+02
 0.54420631695E+02 0.86258599331E+02 0.12703329170E+03 0.17124044872E+03 0.21133857002E+03
 0.24125205223E+03 0.25868206397E+03 0.26425265114E+03 0.23044828927E+03 0.20593059413E+03
 0.17124037762E+03 0.13120806259E+03 0.92389164723E+02 0.60371625093E+02 0.37669104387E+02
 0.23612609911E+02 0.15808383924E+02 0.11823828667E+02 0.99277047460E+01 0.90886564376E+01
 0.87759759965E+01 0.87756827112E+01 0.90883054284E+01 0.99278741279E+01 0.11824106925E+02
 0.15808315018E+02 0.23612674366E+02 0.37669721913E+02 0.60372136296E+02 0.92388875094E+02
 0.13120743159E+03 0.17124015388E+03 0.20593061272E+03 0.23044809707E+03 0.24280974694E+03
 0.24280991829E+03 0.18968693241E+03 0.16131197340E+03 0.12703469715E+03 0.92389164723E+02
 0.62494472406E+02 0.40229310740E+02 0.25727413469E+02 0.17284277842E+02 0.12778027790E+02
 0.10541638873E+02 0.95064949515E+01 0.90743299302E+01 0.89576424253E+01 0.90738604822E+01
 0.95063816496E+01 0.10541904406E+02 0.12777843611E+02 0.17283670511E+02 0.25727483667E+02
 0.40230467884E+02 0.62495783003E+02 0.92389701262E+02 0.12703434064E+03 0.16131080102E+03
 0.18968511923E+03 0.20805699026E+03 0.21436434898E+03 0.20805849982E+03 0.14229279322E+03
 0.11504714402E+03 0.86259840725E+02 0.60371625093E+02 0.40229310740E+02 0.26489489715E+02
 0.18112273427E+02 0.13438457169E+02 0.11016487332E+02 0.98461372718E+01 0.93273814812E+01
 0.91366331400E+01 0.91364613072E+01 0.93272680321E+01 0.98464009997E+01 0.11016521694E+02
 0.13437761938E+02 0.18111500097E+02 0.26489510565E+02 0.40229993705E+02 0.60372343598E+02
 0.86260367881E+02 0.11504726890E+03 0.14229202326E+03 0.16337087243E+03 0.17479419026E+03
 0.17479495200E+03 0.16337230732E+03 0.96963007184E+02 0.75046200813E+02 0.54420770855E+02
 0.37669104387E+02 0.25727413469E+02 0.18112273427E+02 0.13674937695E+02 0.11276129892E+02
 0.10066984699E+02 0.95065532875E+01 0.92776522793E+01 0.92175897400E+01 0.92774821243E+01
 0.95067629476E+01 0.10067526617E+02 0.11276289370E+02 0.13674457197E+02 0.18111566371E+02
 0.25726715498E+02 0.37668428216E+02 0.54420579214E+02 0.75046991250E+02 0.96964273720E+02
 0.11650054776E+03 0.12998347287E+03 0.13479062276E+03 0.12998344337E+03 0.11649983879E+03
 0.60734155472E+02 0.45810485327E+02 0.33097662812E+02 0.23612609911E+02 0.17284277842E+02
 0.13438457169E+02 0.11276129892E+02 0.10143365561E+02 0.95980173091E+01 0.93644711423E+01
 0.92835134876E+01 0.92832965138E+01 0.93642526938E+01 0.95983454890E+01 0.10144020588E+02
 0.11276586339E+02 0.13438589879E+02 0.17284037246E+02 0.23611730496E+02 0.33096382642E+02
 0.45809867248E+02 0.60734927136E+02 0.75710949853E+02 0.87933978580E+02 0.94815151919E+02
 0.94814714701E+02 0.87932704539E+02 0.75709366274E+02 0.36171420871E+02 0.27449148209E+02
 0.20599725777E+02 0.15808383924E+02 0.12778027790E+02 0.11016487332E+02 0.10066984699E+02
 0.95980173091E+01 0.93933036348E+01 0.93188546833E+01 0.93015585569E+01 0.93185108710E+01
 0.93930079118E+01 0.95979670117E+01 0.10067159300E+02 0.11017060444E+02 0.12779062892E+02
 0.15809212271E+02 0.20599472197E+02 0.27447958879E+02 0.36170428607E+02 0.45837155907E+02
 0.54823535644E+02 0.61239612269E+02 0.63570902137E+02 0.61239127302E+02 0.54822953377E+02
 0.45837197967E+02 0.21742669367E+02 0.17265940047E+02 0.13979829530E+02 0.11823828667E+02
 0.10541638873E+02 0.98461372718E+01 0.95065532875E+01 0.93644711423E+01 0.93188546833E+01
 0.93099159340E+01 0.93098436527E+01 0.93186486268E+01 0.93640734284E+01 0.95059267559E+01
 0.98456493378E+01 0.10541940286E+02 0.11825018177E+02 0.13981104081E+02 0.17266419473E+02
 0.21742249094E+02 0.27111644595E+02 0.32647941272E+02 0.37285241043E+02 0.39944635155E+02
 0.39944986314E+02 0.37286086804E+02 0.32648927084E+02 0.27112523709E+02 0.14130513457E+02
 0.12107693437E+02 0.10741317618E+02 0.99277047460E+01 0.95064949515E+01 0.93273814812E+01
 0.92776522793E+01 0.92835134876E+01 0.93015585569E+01 0.93098436527E+01 0.93017672161E+01
 0.92837741643E+01 0.92775741720E+01 0.93266533704E+01 0.95053874194E+01 0.99269838571E+01
 0.10741547589E+02 0.12108760692E+02 0.14131770767E+02 0.16762020935E+02 0.19721543354E+02
 0.22509294839E+02 0.24523856358E+02 0.25261722139E+02 0.24525002374E+02 0.22510588351E+02
 0.19721973307E+02 0.16761356759E+02 0.10430771915E+02 0.96820017997E+01 0.92604875927E+01
 0.90886564376E+01 0.90743299302E+01 0.91366331400E+01 0.92175897400E+01 0.92832965138E+01
 0.93185108710E+01 0.93186486268E+01 0.92837741643E+01 0.92183382175E+01 0.91371597714E+01
 0.90740459216E+01 0.90875203621E+01 0.92591574266E+01 0.96813205904E+01 0.10431126790E+02
 0.11530237529E+02 0.12900946118E+02 0.14344074175E+02 0.15567718747E+02 0.16274353746E+02
 0.16274540889E+02 0.15567938378E+02 0.14343732668E+02 0.12899948213E+02 0.11529173682E+02
 0.87531153132E+01 0.86180518406E+01 0.86431122295E+01 0.87759759965E+01 0.89576424253E+01
 0.91364613072E+01 0.92774821243E+01 0.93642526938E+01 0.93930079118E+01 0.93640734284E+01
 0.92775741720E+01 0.91371597714E+01 0.89587098613E+01 0.87767380447E+01 0.86429922516E+01
 0.86170177383E+01 0.87517413873E+01 0.90764942933E+01 0.95790853820E+01 0.10192089311E+02
 0.10794477133E+02 0.11239113381E+02 0.11403068358E+02 0.11238319452E+02 0.10793258027E+02
 0.10191107590E+02 0.95789706594E+01 0.90773823869E+01 0.80575803815E+01 0.82225377304E+01
 0.84757999441E+01 0.87756827112E+01 0.90738604822E+01 0.93272680321E+01 0.95067629476E+01
 0.95983454890E+01 0.95979670117E+01 0.95059267559E+01 0.93266533704E+01 0.90740459216E+01
 0.87767380447E+01 0.84771818619E+01 0.82233814454E+01 0.80572983621E+01 0.80048490538E+01
 0.80695267283E+01 0.82292897478E+01 0.84374260590E+01 0.86306504656E+01 0.87465955978E+01
 0.87462124712E+01 0.86298441541E+01 0.84369727939E+01 0.82297776471E+01 0.80708043340E+01
 0.80060654434E+01 0.78692106454E+01 0.82223983691E+01 0.86429869184E+01 0.90883054284E+01
 0.95063816496E+01 0.98464009997E+01 0.10067526617E+02 0.10144020588E+02 0.10067159300E+02
 0.98456493378E+01 0.95053874194E+01 0.90875203621E+01 0.86429922516E+01 0.82233814454E+01
 0.78706248417E+01 0.76095267097E+01 0.74454715580E+01 0.73669494399E+01 0.73508073928E+01
 0.73684654272E+01 0.73924620255E+01 0.74029254993E+01 0.73926687335E+01 0.73690401999E+01
 0.73517433977E+01 0.73678005673E+01 0.74455686047E+01 0.76086069816E+01 0.80570521986E+01
 0.86179497173E+01 0.92605636181E+01 0.99278741279E+01 0.10541904406E+02 0.11016521694E+02
 0.11276289370E+02 0.11276586339E+02 0.11017060444E+02 0.10541940286E+02 0.99269838571E+01
 0.92591574266E+01 0.86170177383E+01 0.80572983621E+01 0.76095267097E+01 0.72779020462E+01
 0.70483361024E+01 0.68979118908E+01 0.68037825757E+01 0.67489314580E+01 0.67236667869E+01
 0.67240038224E+01 0.67497446471E+01 0.68045762387E+01 0.68981296909E+01 0.70476635630E+01
 0.72765594067E+01 0.76083005803E+01 0.87530112312E+01 0.96822160232E+01 0.10741518172E+02
 0.11824106925E+02 0.12777843611E+02 0.13437761938E+02 0.13674457197E+02 0.13438589879E+02
 0.12779062892E+02 0.11825018177E+02 0.10741547589E+02 0.96813205904E+01 0.87517413873E+01
 0.80048490538E+01 0.74454715580E+01 0.70483361024E+01 0.67760881808E+01 0.65934359947E+01
 0.64751824933E+01 0.64077372376E+01 0.63858172667E+01 0.64080508112E+01 0.64752879304E+01
 0.65929035368E+01 0.67750886186E+01 0.70475252158E+01 0.74454522132E+01 0.80057188549E+01
 0.10431233235E+02 0.12107866944E+02 0.13979866946E+02 0.15808315018E+02 0.17283670511E+02
 0.18111500097E+02 0.18111566371E+02 0.17284037246E+02 0.15809212271E+02 0.13981104081E+02
 0.12108760692E+02 0.10431126790E+02 0.90764942933E+01 0.80695267283E+01 0.73669494399E+01
 0.68979118908E+01 0.65934359947E+01 0.64009169697E+01 0.62869104265E+01 0.62335615744E+01
 0.62334959536E+01 0.62865948079E+01 0.64002429211E+01 0.65926952940E+01 0.68977314856E+01
 0.73677181927E+01 0.80709110624E+01 0.90776059686E+01 0.14130638360E+02 0.17265810458E+02
 0.20599812342E+02 0.23612674366E+02 0.25727483667E+02 0.26489510565E+02 0.25726715498E+02
 0.23611730496E+02 0.20599472197E+02 0.17266419473E+02 0.14131770767E+02 0.11530237529E+02
 0.95790853820E+01 0.82292897478E+01 0.73508073928E+01 0.68037825757E+01 0.64751824933E+01
 0.62869104265E+01 0.61907486810E+01 0.61611821864E+01 0.61904148397E+01 0.62865484892E+01
 0.64751685048E+01 0.68043014236E+01 0.73516991939E+01 0.82300511980E+01 0.95791397419E+01
 0.11529430525E+02 0.21742191506E+02 0.27449031201E+02 0.33097987054E+02 0.37669721913E+02
 0.40230467884E+02 0.40229993705E+02 0.37668428216E+02 0.33096382642E+02 0.27447958879E+02
 0.21742249094E+02 0.16762020935E+02 0.12900946118E+02 0.10192089311E+02 0.84374260590E+01
 0.73684654272E+01 0.67489314580E+01 0.64077372376E+01 0.62335615744E+01 0.61611821864E+01
 0.61610450767E+01 0.62334396018E+01 0.64080732335E+01 0.67496789647E+01 0.73690981837E+01
 0.84374366123E+01 0.10191329788E+02 0.12899710853E+02 0.16761004623E+02 0.36171164739E+02
 0.45810411165E+02 0.54420631695E+02 0.60372136296E+02 0.62495783003E+02 0.60372343598E+02
 0.54420579214E+02 0.45809867248E+02 0.36170428607E+02 0.27111644595E+02 0.19721543354E+02
 0.14344074175E+02 0.10794477133E+02 0.86306504656E+01 0.73924620255E+01 0.67236667869E+01
 0.63858172667E+01 0.62334959536E+01 0.61904148397E+01 0.62334396018E+01 0.63860597469E+01
 0.67241334159E+01 0.73925417455E+01 0.86300351919E+01 0.10793588510E+02 0.14343513602E+02
 0.19721547327E+02 0.27112140601E+02 0.60734556127E+02 0.75045589887E+02 0.86258599331E+02
 0.92388875094E+02 0.92389701262E+02 0.86260367881E+02 0.75046991250E+02 0.60734927136E+02
 0.45837155907E+02 0.32647941272E+02 0.22509294839E+02 0.15567718747E+02 0.11239113381E+02
 0.87465955978E+01 0.74029254993E+01 0.67240038224E+01 0.64080508112E+01 0.62865948079E+01
 0.62865484892E+01 0.64080732335E+01 0.67241334159E+01 0.74027290016E+01 0.87458610582E+01
 0.11238446151E+02 0.15567868005E+02 0.22510223204E+02 0.32648986011E+02 0.45837699552E+02
 0.96963488852E+02 0.11504606509E+03 0.12703329170E+03 0.13120743159E+03 0.12703434064E+03
 0.11504726890E+03 0.96964273720E+02 0.75710949853E+02 0.54823535644E+02 0.37285241043E+02
 0.24523856358E+02 0.16274353746E+02 0.11403068358E+02 0.87462124712E+01 0.73926687335E+01
 0.67497446471E+01 0.64752879304E+01 0.64002429211E+01 0.64751685048E+01 0.67496789647E+01
 0.73925417455E+01 0.87458610582E+01 0.11402891388E+02 0.16274895988E+02 0.24524853519E+02
 0.37285862832E+02 0.54823478827E+02 0.75710500545E+02 0.14229289905E+03 0.16131163005E+03
 0.17124044872E+03 0.17124015388E+03 0.16131080102E+03 0.14229202326E+03 0.11650054776E+03
 0.87933978580E+02 0.61239612269E+02 0.39944635155E+02 0.25261722139E+02 0.16274540889E+02
 0.11238319452E+02 0.86298441541E+01 0.73690401999E+01 0.68045762387E+01 0.65929035368E+01
 0.65926952940E+01 0.68043014236E+01 0.73690981837E+01 0.86300351919E+01 0.11238446151E+02
 0.16274895988E+02 0.25262309089E+02 0.39944707994E+02 0.61238785609E+02 0.87933090174E+02
 0.11650060839E+03 0.18968688293E+03 0.20593168793E+03 0.21133857002E+03 0.20593061272E+03
 0.18968511923E+03 0.16337087243E+03 0.12998347287E+03 0.94815151919E+02 0.63570902137E+02
 0.39944986314E+02 0.24525002374E+02 0.15567938378E+02 0.10793258027E+02 0.84369727939E+01
 0.73517433977E+01 0.68981296909E+01 0.67750886186E+01 0.68977314856E+01 0.73516991939E+01
 0.84374366123E+01 0.10793588510E+02 0.15567868005E+02 0.24524853519E+02 0.39944707994E+02
 0.63570108084E+02 0.94814247588E+02 0.12998356351E+03 0.16337227214E+03 0.23044818598E+03
 0.24125191777E+03 0.24125205223E+03 0.23044809707E+03 0.20805699026E+03 0.17479419026E+03
 0.13479062276E+03 0.94814714701E+02 0.61239127302E+02 0.37286086804E+02 0.22510588351E+02
 0.14343732668E+02 0.10191107590E+02 0.82297776471E+01 0.73678005673E+01 0.70476635630E+01
 0.70475252158E+01 0.73677181927E+01 0.82300511980E+01 0.10191329788E+02 0.14343513602E+02
 0.22510223204E+02 0.37285862832E+02 0.61238785609E+02 0.94814247588E+02 0.13479069403E+03
 0.17479502912E+03 0.20805777328E+03 0.25868081848E+03 0.26358894993E+03 0.25868206397E+03
 0.24280974694E+03 0.21436434898E+03 0.17479495200E+03 0.12998344337E+03 0.87932704539E+02
 0.54822953377E+02 0.32648927084E+02 0.19721973307E+02 0.12899948213E+02 0.95789706594E+01
 0.80708043340E+01 0.74455686047E+01 0.72765594067E+01 0.74454522132E+01 0.80709110624E+01
 0.95791397419E+01 0.12899710853E+02 0.19721547327E+02 0.32648986011E+02 0.54823478827E+02
 0.87933090174E+02 0.12998356351E+03 0.17479502912E+03 0.21436402463E+03 0.24280858444E+03
 0.27371214300E+03 0.27371285693E+03 0.26425265114E+03 0.24280991829E+03 0.20805849982E+03
 0.16337230732E+03 0.11649983879E+03 0.75709366274E+02 0.45837197967E+02 0.27112523709E+02
 0.16761356759E+02 0.11529173682E+02 0.90773823869E+01 0.80060654434E+01 0.76086069816E+01
 0.76083005803E+01 0.80057188549E+01 0.90776059686E+01 0.11529430525E+02 0.16761004623E+02
 0.27112140601E+02 0.45837699552E+02 0.75710500545E+02 0.11650060839E+03 0.16337227214E+03
 0.20805777328E+03 0.24280858444E+03 0.26425111992E+03 0.26562463182E+03 0.26033262584E+03
 0.24353528427E+03 0.21415111510E+03 0.17408845737E+03 0.12934355508E+03 0.87692701873E+02
 0.54988136809E+02 0.33043661543E+02 0.20200611623E+02 0.13417514502E+02 0.10114601120E+02
 0.86138089202E+01 0.79913672426E+01 0.78226804277E+01 0.79905339219E+01 0.86137151205E+01
 0.10115359515E+02 0.13417578654E+02 0.20199761702E+02 0.33043433272E+02 0.54988996104E+02
 0.87693385728E+02 0.12934350010E+03 0.17408841264E+03 0.21415113736E+03 0.24353457597E+03
 0.26033157436E+03 0.26033262584E+03 0.24896693892E+03 0.22529728024E+03 0.18994790388E+03
 0.14721430074E+03 0.10425827233E+03 0.67890268621E+02 0.41661059041E+02 0.25298939453E+02
 0.16231708444E+02 0.11632718866E+02 0.94652940895E+01 0.85137920129E+01 0.81602582616E+01
 0.81598833955E+01 0.85134661074E+01 0.94657701957E+01 0.11633129712E+02 0.16231285600E+02
 0.25298512893E+02 0.41661230745E+02 0.67890028763E+02 0.10425713183E+03 0.14721379779E+03
 0.18994915855E+03 0.22529897269E+03 0.24896751572E+03 0.26033255888E+03 0.24353528427E+03
 0.22529728024E+03 0.19530577958E+03 0.15665669415E+03 0.11533665792E+03 0.78059331261E+02