   2   2   0   0
  0.2353172E+02  0.3236030E-09  0.3236030E-09  0.5189530E-09  0.5000000E-15
  1.000000000000000E-004
  CAR 
 Zr                                      
     50.92283840    -44.28848660  301      8.89527232      1.00000000
    -44.288  0.0000E+00  0.0000E+00
    -43.971  0.0000E+00  0.0000E+00
    -43.654  0.0000E+00  0.0000E+00
    -43.336  0.0000E+00  0.0000E+00
    -43.019  0.0000E+00  0.0000E+00
    -42.702  0.0000E+00  0.0000E+00
    -42.384  0.0000E+00  0.0000E+00
    -42.067  0.0000E+00  0.0000E+00
    -41.750  0.0000E+00  0.0000E+00
    -41.432  0.0000E+00  0.0000E+00
    -41.115  0.0000E+00  0.0000E+00
    -40.797  0.0000E+00  0.0000E+00
    -40.480  0.0000E+00  0.0000E+00
    -40.163  0.1636E-09  0.5193E-10
    -39.845  0.4143E+01  0.1315E+01
    -39.528  0.8459E+01  0.4000E+01
    -39.211  0.0000E+00  0.4000E+01
    -38.893  0.0000E+00  0.4000E+01
    -38.576  0.0000E+00  0.4000E+01
    -38.258  0.0000E+00  0.4000E+01
    -37.941  0.0000E+00  0.4000E+01
    -37.624  0.0000E+00  0.4000E+01
    -37.306  0.0000E+00  0.4000E+01
    -36.989  0.0000E+00  0.4000E+01
    -36.672  0.0000E+00  0.4000E+01
    -36.354  0.0000E+00  0.4000E+01
    -36.037  0.0000E+00  0.4000E+01
    -35.719  0.0000E+00  0.4000E+01
    -35.402  0.0000E+00  0.4000E+01
    -35.085  0.0000E+00  0.4000E+01
    -34.767  0.0000E+00  0.4000E+01
    -34.450  0.0000E+00  0.4000E+01
    -34.133  0.0000E+00  0.4000E+01
    -33.815  0.0000E+00  0.4000E+01
    -33.498  0.0000E+00  0.4000E+01
    -33.180  0.0000E+00  0.4000E+01
    -32.863  0.0000E+00  0.4000E+01
    -32.546  0.0000E+00  0.4000E+01
    -32.228  0.0000E+00  0.4000E+01
    -31.911  0.0000E+00  0.4000E+01
    -31.594  0.0000E+00  0.4000E+01
    -31.276  0.0000E+00  0.4000E+01
    -30.959  0.0000E+00  0.4000E+01
    -30.642  0.0000E+00  0.4000E+01
    -30.324  0.0000E+00  0.4000E+01
    -30.007  0.0000E+00  0.4000E+01
    -29.689  0.0000E+00  0.4000E+01
    -29.372  0.0000E+00  0.4000E+01
    -29.055  0.0000E+00  0.4000E+01
    -28.737  0.0000E+00  0.4000E+01
    -28.420  0.0000E+00  0.4000E+01
    -28.103  0.0000E+00  0.4000E+01
    -27.785  0.0000E+00  0.4000E+01
    -27.468  0.0000E+00  0.4000E+01
    -27.150  0.0000E+00  0.4000E+01
    -26.833  0.0000E+00  0.4000E+01
    -26.516  0.0000E+00  0.4000E+01
    -26.198  0.0000E+00  0.4000E+01
    -25.881  0.0000E+00  0.4000E+01
    -25.564  0.0000E+00  0.4000E+01
    -25.246  0.0000E+00  0.4000E+01
    -24.929  0.0000E+00  0.4000E+01
    -24.611  0.0000E+00  0.4000E+01
    -24.294  0.0000E+00  0.4000E+01
    -23.977  0.0000E+00  0.4000E+01
    -23.659  0.0000E+00  0.4000E+01
    -23.342  0.0000E+00  0.4000E+01
    -23.025  0.0000E+00  0.4000E+01
    -22.707  0.0000E+00  0.4000E+01
    -22.390  0.0000E+00  0.4000E+01
    -22.073  0.0000E+00  0.4000E+01
    -21.755  0.0000E+00  0.4000E+01
    -21.438  0.0000E+00  0.4000E+01
    -21.120  0.0000E+00  0.4000E+01
    -20.803  0.0000E+00  0.4000E+01
    -20.486  0.0000E+00  0.4000E+01
    -20.168  0.0000E+00  0.4000E+01
    -19.851  0.0000E+00  0.4000E+01
    -19.534  0.0000E+00  0.4000E+01
    -19.216  0.0000E+00  0.4000E+01
    -18.899  0.0000E+00  0.4000E+01
    -18.581  0.1110E-04  0.4000E+01
    -18.264  0.4167E+01  0.5322E+01
    -17.947  0.1003E+02  0.8505E+01
    -17.629  0.1841E+02  0.1435E+02
    -17.312  0.5197E+01  0.1600E+02
    -16.995  0.0000E+00  0.1600E+02
    -16.677  0.0000E+00  0.1600E+02
    -16.360  0.0000E+00  0.1600E+02
    -16.042  0.0000E+00  0.1600E+02
    -15.725  0.0000E+00  0.1600E+02
    -15.408  0.0000E+00  0.1600E+02
    -15.090  0.0000E+00  0.1600E+02
    -14.773  0.0000E+00  0.1600E+02
    -14.456  0.0000E+00  0.1600E+02
    -14.138  0.0000E+00  0.1600E+02
    -13.821  0.0000E+00  0.1600E+02
    -13.503  0.0000E+00  0.1600E+02
    -13.186  0.0000E+00  0.1600E+02
    -12.869  0.0000E+00  0.1600E+02
    -12.551  0.0000E+00  0.1600E+02
    -12.234  0.0000E+00  0.1600E+02
    -11.917  0.0000E+00  0.1600E+02
    -11.599  0.0000E+00  0.1600E+02
    -11.282  0.0000E+00  0.1600E+02
    -10.965  0.0000E+00  0.1600E+02
    -10.647  0.0000E+00  0.1600E+02
    -10.330  0.0000E+00  0.1600E+02
    -10.012  0.0000E+00  0.1600E+02
     -9.695  0.0000E+00  0.1600E+02
     -9.378  0.0000E+00  0.1600E+02
     -9.060  0.0000E+00  0.1600E+02
     -8.743  0.0000E+00  0.1600E+02
     -8.426  0.0000E+00  0.1600E+02
     -8.108  0.0000E+00  0.1600E+02
     -7.791  0.0000E+00  0.1600E+02
     -7.473  0.0000E+00  0.1600E+02
     -7.156  0.0000E+00  0.1600E+02
     -6.839  0.0000E+00  0.1600E+02
     -6.521  0.0000E+00  0.1600E+02
     -6.204  0.0000E+00  0.1600E+02
     -5.887  0.0000E+00  0.1600E+02
     -5.569  0.0000E+00  0.1600E+02
     -5.252  0.0000E+00  0.1600E+02
     -4.934  0.0000E+00  0.1600E+02
     -4.617  0.0000E+00  0.1600E+02
     -4.300  0.0000E+00  0.1600E+02
     -3.982  0.0000E+00  0.1600E+02
     -3.665  0.0000E+00  0.1600E+02
     -3.348  0.0000E+00  0.1600E+02
     -3.030  0.0000E+00  0.1600E+02
     -2.713  0.0000E+00  0.1600E+02
     -2.396  0.0000E+00  0.1600E+02
     -2.078  0.0000E+00  0.1600E+02
     -1.761  0.0000E+00  0.1600E+02
     -1.443  0.0000E+00  0.1600E+02
     -1.126  0.0000E+00  0.1600E+02
     -0.809  0.0000E+00  0.1600E+02
     -0.491  0.0000E+00  0.1600E+02
     -0.174  0.0000E+00  0.1600E+02
      0.143  0.0000E+00  0.1600E+02
      0.461  0.0000E+00  0.1600E+02
      0.778  0.0000E+00  0.1600E+02
      1.096  0.0000E+00  0.1600E+02
      1.413  0.0000E+00  0.1600E+02
      1.730  0.0000E+00  0.1600E+02
      2.048  0.0000E+00  0.1600E+02
      2.365  0.0000E+00  0.1600E+02
      2.682  0.0000E+00  0.1600E+02
      3.000  0.1012E-17  0.1600E+02
      3.317  0.4680E-02  0.1600E+02
      3.635  0.8079E-01  0.1603E+02
      3.952  0.1312E+00  0.1607E+02
      4.269  0.2006E+00  0.1613E+02
      4.587  0.2432E+00  0.1621E+02
      4.904  0.3549E+00  0.1632E+02
      5.221  0.3393E+00  0.1643E+02
      5.539  0.5957E+00  0.1662E+02
      5.856  0.6429E+00  0.1682E+02
      6.174  0.2092E+01  0.1749E+02
      6.491  0.2074E+01  0.1815E+02
      6.808  0.2288E+01  0.1887E+02
      7.126  0.3033E+01  0.1984E+02
      7.443  0.1885E+01  0.2043E+02
      7.760  0.2419E+01  0.2120E+02
      8.078  0.2976E+01  0.2215E+02
      8.395  0.3531E+01  0.2327E+02
      8.712  0.1364E+01  0.2370E+02
      9.030  0.2142E+01  0.2438E+02
      9.347  0.3319E+01  0.2543E+02
      9.665  0.3724E+01  0.2662E+02
      9.982  0.3709E+01  0.2779E+02
     10.299  0.3923E+01  0.2904E+02
     10.617  0.2673E+01  0.2989E+02
     10.934  0.1711E+01  0.3043E+02
     11.251  0.1645E+01  0.3095E+02
     11.569  0.1348E+01  0.3138E+02
     11.886  0.1667E+01  0.3191E+02
     12.204  0.1253E+01  0.3231E+02
     12.521  0.1798E+01  0.3288E+02
     12.838  0.2056E+01  0.3353E+02
     13.156  0.2472E+01  0.3432E+02
     13.473  0.3356E+01  0.3538E+02
     13.790  0.3959E+01  0.3664E+02
     14.108  0.2937E+01  0.3757E+02
     14.425  0.9214E+00  0.3787E+02
     14.743  0.1022E+01  0.3819E+02
     15.060  0.1266E+01  0.3859E+02
     15.377  0.9977E+00  0.3891E+02
     15.695  0.8037E+00  0.3916E+02
     16.012  0.1150E+01  0.3953E+02
     16.329  0.5425E+00  0.3970E+02
     16.647  0.5815E+00  0.3989E+02
     16.964  0.2842E+00  0.3998E+02
     17.282  0.3370E+00  0.4008E+02
     17.599  0.3118E+00  0.4018E+02
     17.916  0.1702E+01  0.4072E+02
     18.234  0.1617E+01  0.4124E+02
     18.551  0.1710E+01  0.4178E+02
     18.868  0.1416E+01  0.4223E+02
     19.186  0.1514E+01  0.4271E+02
     19.503  0.1437E+01  0.4317E+02
     19.820  0.1666E+01  0.4369E+02
     20.138  0.1285E+01  0.4410E+02
     20.455  0.1809E+01  0.4468E+02
     20.773  0.1863E+01  0.4527E+02
     21.090  0.2152E+01  0.4595E+02
     21.407  0.2369E+01  0.4670E+02
     21.725  0.2412E+01  0.4747E+02
     22.042  0.1721E+01  0.4802E+02
     22.359  0.2426E+01  0.4879E+02
     22.677  0.1920E+01  0.4940E+02
     22.994  0.1902E+01  0.5000E+02
     23.312  0.1926E+01  0.5061E+02
     23.629  0.1991E+01  0.5124E+02
     23.946  0.2333E+01  0.5198E+02
     24.264  0.1172E+01  0.5236E+02
     24.581  0.1422E+01  0.5281E+02
     24.898  0.1067E+01  0.5315E+02
     25.216  0.1474E+01  0.5361E+02
     25.533  0.1595E+01  0.5412E+02
     25.851  0.1406E+01  0.5457E+02
     26.168  0.1400E+01  0.5501E+02
     26.485  0.1359E+01  0.5544E+02
     26.803  0.1271E+01  0.5585E+02
     27.120  0.1287E+01  0.5626E+02
     27.437  0.1084E+01  0.5660E+02
     27.755  0.1793E+01  0.5717E+02
     28.072  0.1536E+01  0.5766E+02
     28.389  0.1757E+01  0.5821E+02
     28.707  0.1880E+01  0.5881E+02
     29.024  0.2418E+01  0.5958E+02
     29.342  0.1619E+01  0.6009E+02
     29.659  0.2667E+01  0.6094E+02
     29.976  0.2024E+01  0.6158E+02
     30.294  0.2203E+01  0.6228E+02
     30.611  0.2009E+01  0.6292E+02
     30.928  0.2315E+01  0.6365E+02
     31.246  0.1617E+01  0.6417E+02
     31.563  0.2921E+01  0.6509E+02
     31.881  0.1646E+01  0.6562E+02
     32.198  0.1831E+01  0.6620E+02
     32.515  0.2048E+01  0.6685E+02
     32.833  0.1596E+01  0.6736E+02
     33.150  0.1847E+01  0.6794E+02
     33.467  0.1439E+01  0.6840E+02
     33.785  0.2104E+01  0.6907E+02
     34.102  0.1655E+01  0.6959E+02
     34.420  0.1897E+01  0.7019E+02
     34.737  0.2519E+01  0.7099E+02
     35.054  0.2306E+01  0.7173E+02
     35.372  0.2181E+01  0.7242E+02
     35.689  0.2159E+01  0.7310E+02
     36.006  0.2335E+01  0.7384E+02
     36.324  0.2920E+01  0.7477E+02
     36.641  0.2291E+01  0.7550E+02
     36.959  0.2444E+01  0.7627E+02
     37.276  0.2530E+01  0.7708E+02
     37.593  0.1869E+01  0.7767E+02
     37.911  0.3224E+01  0.7869E+02
     38.228  0.2162E+01  0.7938E+02
     38.545  0.1917E+01  0.7999E+02
     38.863  0.1712E+01  0.8053E+02
     39.180  0.1888E+01  0.8113E+02
     39.497  0.1912E+01  0.8174E+02
     39.815  0.2287E+01  0.8247E+02
     40.132  0.1973E+01  0.8309E+02
     40.450  0.2469E+01  0.8388E+02
     40.767  0.2500E+01  0.8467E+02
     41.084  0.1599E+01  0.8518E+02
     41.402  0.2878E+01  0.8609E+02
     41.719  0.1916E+01  0.8670E+02
     42.036  0.3264E+01  0.8774E+02
     42.354  0.2009E+01  0.8837E+02
     42.671  0.2335E+01  0.8912E+02
     42.989  0.2374E+01  0.8987E+02
     43.306  0.2527E+01  0.9067E+02
     43.623  0.3030E+01  0.9163E+02
     43.941  0.3485E+01  0.9274E+02
     44.258  0.1838E+01  0.9332E+02
     44.575  0.2829E+01  0.9422E+02
     44.893  0.2119E+01  0.9489E+02
     45.210  0.1500E+01  0.9537E+02
     45.528  0.5766E+00  0.9555E+02
     45.845  0.8482E+00  0.9582E+02
     46.162  0.1269E+00  0.9586E+02
     46.480  0.3519E+00  0.9597E+02
     46.797  0.8150E-01  0.9600E+02
     47.114  0.0000E+00  0.9600E+02
     47.432  0.0000E+00  0.9600E+02
     47.749  0.0000E+00  0.9600E+02
     48.066  0.0000E+00  0.9600E+02
     48.384  0.0000E+00  0.9600E+02
     48.701  0.0000E+00  0.9600E+02
     49.019  0.0000E+00  0.9600E+02
     49.336  0.0000E+00  0.9600E+02
     49.653  0.0000E+00  0.9600E+02
     49.971  0.0000E+00  0.9600E+02
     50.288  0.0000E+00  0.9600E+02
     50.605  0.0000E+00  0.9600E+02
     50.923  0.0000E+00  0.9600E+02
