 vasp.6.4.3 19Mar24 (build Jun 26 2024 13:02:28) complex                        
  
 executed on             LinuxIFC date 2025.08.08  19:13:20
 running   48 mpi-ranks, on    4 nodes
 distrk:  each k-point on   48 cores,    1 groups
 distr:  one band on NCORE=   1 cores,   48 groups


--------------------------------------------------------------------------------------------------------


 INCAR:
   ENCUT = 298.86740000000003
   IBRION = -1
   ISMEAR = 0
   ISYM = 2
   LCHARG = True
   LWAVE = True
   SIGMA = 0.05
   SYSTEM = Zr

 POTCAR:  PAW_PBE Zr_sv 04Jan2005                 
 -----------------------------------------------------------------------------
|                                                                             |
|           W    W    AA    RRRRR   N    N  II  N    N   GGGG   !!!           |
|           W    W   A  A   R    R  NN   N  II  NN   N  G    G  !!!           |
|           W    W  A    A  R    R  N N  N  II  N N  N  G       !!!           |
|           W WW W  AAAAAA  RRRRR   N  N N  II  N  N N  G  GGG   !            |
|           WW  WW  A    A  R   R   N   NN  II  N   NN  G    G                |
|           W    W  A    A  R    R  N    N  II  N    N   GGGG   !!!           |
|                                                                             |
|     For optimal performance we recommend to set                             |
|       NCORE = 2 up to number-of-cores-per-socket                            |
|     NCORE specifies how many cores store one orbital (NPAR=cpu/NCORE).      |
|     This setting can greatly improve the performance of VASP for DFT.       |
|     The default, NCORE=1 might be grossly inefficient on modern             |
|     multi-core architectures or massively parallel machines. Do your        |
|     own testing! More info at https://www.vasp.at/wiki/index.php/NCORE      |
|     Unfortunately you need to use the default for GW and RPA                |
|     calculations (for HF NCORE is supported but not extensively tested      |
|     yet).                                                                   |
|                                                                             |
 -----------------------------------------------------------------------------

 POTCAR:  PAW_PBE Zr_sv 04Jan2005                 
   VRHFIN =Zr: 4s4p5s4d                                                                             
   LEXCH  = PE                                                                                      
   EATOM  =  1284.2219 eV,   94.3876 Ry                                                             
                                                                                                    
   TITEL  = PAW_PBE Zr_sv 04Jan2005                                                                 
   LULTRA =        F    use ultrasoft PP ?                                                          
   IUNSCR =        1    unscreen: 0-lin 1-nonlin 2-no                                               
   RPACOR =    2.200    partial core radius                                                         
   POMASS =   91.224; ZVAL   =   12.000    mass and valenz                                          
   RCORE  =    2.500    outmost cutoff radius                                                       
   RWIGS  =    3.070; RWIGS  =    1.625    wigner-seitz radius (au A)                               
   ENMAX  =  229.898; ENMIN  =  172.424 eV                                                          
   ICORE  =        3    local potential                                                             
   LCOR   =        T    correct aug charges                                                         
   LPAW   =        T    paw PP                                                                      
   EAUG   =  461.257                                                                                
   DEXC   =    0.000                                                                                
   RMAX   =    2.561    core radius for proj-oper                                                   
   RAUG   =    1.300    factor for augmentation sphere                                              
   RDEP   =    2.597    radius for radial grids                                                     
   RDEPT  =    2.007    core radius for aug-charge                                                  
                                                                                                    
   Atomic configuration                                                                             
   11 entries                                                                                       
     n  l   j            E        occ.                                                              
     1  0  0.50    -17820.0161   2.0000                                                             
     2  0  0.50     -2467.0882   2.0000                                                             
     2  1  1.50     -2199.6095   6.0000                                                             
     3  0  0.50      -402.4863   2.0000                                                             
     3  1  1.50      -315.3675   6.0000                                                             
     3  2  2.50      -172.4472  10.0000                                                             
     4  0  0.50       -52.4146   2.0000                                                             
     5  0  0.50        -3.8421   1.0000                                                             
     4  1  1.50       -30.5054   6.0000                                                             
     4  2  2.50        -2.3341   3.0000                                                             
     4  3  2.50        -1.3606   0.0000                                                             
   Description                                                                                      
     l       E           TYP  RCUT    TYP  RCUT                                                     
     0    -52.4145962     23  2.200                                                                 
     0     -3.8421270     23  2.500                                                                 
     1    -30.5053914     23  2.200                                                                 
     1     20.4087390     23  2.200                                                                 
     2     -2.3340816     23  2.500                                                                 
     2     -0.6120942     23  2.500                                                                 
     3     -4.0817478     23  2.500                                                                 
  local pseudopotential read in
  partial core-charges read in
  partial kinetic energy density read in
  atomic valenz-charges read in
  non local Contribution for L=           0  read in
    real space projection operators read in
  non local Contribution for L=           0  read in
    real space projection operators read in
  non local Contribution for L=           1  read in
    real space projection operators read in
  non local Contribution for L=           1  read in
    real space projection operators read in
  non local Contribution for L=           2  read in
    real space projection operators read in
  non local Contribution for L=           2  read in
    real space projection operators read in
    PAW grid and wavefunctions read in
 
   number of l-projection  operators is LMAX  =           6
   number of lm-projection operators is LMMAX =          18
 
PAW_PBE Zr_sv 04Jan2005                 :
 energy of atom  1       EATOM=-1284.2219
 kinetic energy error for atom=    0.0489 (will be added to EATOM!!)
 
 
 POSCAR: Zr2
  positions in direct lattice
  No initial velocities read in


 exchange-correlation table for PE
   RHO(1)=    0.500       N(1)  =     2000
   RHO(2)=  100.500       N(2)  =     4000
 


--------------------------------------------------------------------------------------------------------


 ion  position               nearest neighbor table
   1  0.000  0.000  0.000-   2 3.20   2 3.20   2 3.20   2 3.20   2 3.20   2 3.20
   2  0.333  0.333  0.500-   1 3.20   1 3.20   1 3.20   1 3.20   1 3.20   1 3.20
 
  LATTYP: Found a hexagonal cell.
 ALAT       =     3.2360300000
 C/A-ratio  =     1.6036717830
  
  Lattice vectors:
  
 A1 = (  -1.6180150000,  -2.8024841874,   0.0000000000)
 A2 = (   3.2360300000,   0.0000000000,   0.0000000000)
 A3 = (   0.0000000000,   0.0000000000,   5.1895300000)


Analysis of symmetry for initial positions (statically):
=====================================================================
 Subroutine PRICEL returns:
 Original cell was already a primitive cell.
 

 Routine SETGRP: Setting up the symmetry group for a 
 hexagonal supercell.


 Subroutine GETGRP returns: Found 24 space group operations
 (whereof 12 operations were pure point group operations)
 out of a pool of 24 trial point group operations.


The static configuration has the point symmetry D_3h.
 The point group associated with its full space group is D_6h.


Analysis of symmetry for dynamics (positions and initial velocities):
=====================================================================
 Subroutine PRICEL returns:
 Original cell was already a primitive cell.
 

 Routine SETGRP: Setting up the symmetry group for a 
 hexagonal supercell.


 Subroutine GETGRP returns: Found 24 space group operations
 (whereof 12 operations were pure point group operations)
 out of a pool of 24 trial point group operations.


The dynamic configuration has the point symmetry D_3h.
 The point group associated with its full space group is D_6h.


 Subroutine INISYM returns: Found 24 space group operations
 (whereof 12 operations are pure point group operations),
 and found     1 'primitive' translations


----------------------------------------------------------------------------------------

                                     Primitive cell                                     

  volume of cell :      47.0634

  direct lattice vectors                    reciprocal lattice vectors
     3.236030000  0.000000000  0.000000000     0.309020621 -0.178413139  0.000000000
     1.618015000  2.802484187  0.000000000     0.000000000  0.356826277  0.000000000
     0.000000000  0.000000000  5.189530000    -0.000000000 -0.000000000  0.192695678

  length of vectors
     3.236030000  3.236030000  5.189530000     0.356826277  0.356826277  0.192695678

  position of ions in fractional coordinates (direct lattice)
     0.000000000  0.000000000  0.000000000
     0.333333333  0.333333333  0.500000000

  ion indices of the primitive-cell ions
   primitive index   ion index
                 1           1
                 2           2

----------------------------------------------------------------------------------------

 
 
 KPOINTS: Automatic kpoint scheme                 

Automatic generation of k-mesh.
 Grid dimensions read from file:
 generate k-points for:   12   12   12

 Generating k-lattice:

  Cartesian coordinates                     Fractional coordinates (reciprocal lattice)
     0.025751718 -0.014867762  0.000000000     0.083333333  0.000000000  0.000000000
     0.000000000  0.029735523  0.000000000     0.000000000  0.083333333  0.000000000
    -0.000000000 -0.000000000  0.016057973     0.000000000  0.000000000  0.083333333

  Length of vectors
     0.029735523  0.029735523  0.016057973

  Shift w.r.t. Gamma in fractional coordinates (k-lattice)
     0.000000000  0.000000000  0.000000000

 
 Subroutine IBZKPT returns following result:
 ===========================================
 
 Found    133 irreducible k-points:
 
 Following reciprocal coordinates:
            Coordinates               Weight
  0.000000  0.000000  0.000000      1.000000
  0.083333 -0.000000  0.000000      6.000000
  0.166667  0.000000  0.000000      6.000000
  0.250000 -0.000000  0.000000      6.000000
  0.333333 -0.000000  0.000000      6.000000
  0.416667 -0.000000  0.000000      6.000000
  0.500000 -0.000000  0.000000      3.000000
  0.166667  0.083333  0.000000      6.000000
  0.250000  0.083333  0.000000     12.000000
  0.333333  0.083333  0.000000     12.000000
  0.416667  0.083333  0.000000     12.000000
  0.500000  0.083333  0.000000     12.000000
  0.333333  0.166667  0.000000      6.000000
  0.416667  0.166667  0.000000     12.000000
  0.500000  0.166667  0.000000     12.000000
 -0.416667  0.166667  0.000000      6.000000
  0.500000  0.250000  0.000000      6.000000
 -0.416667  0.250000  0.000000     12.000000
 -0.333333  0.333333  0.000000      2.000000
  0.000000 -0.000000  0.083333      2.000000
  0.083333 -0.000000  0.083333     12.000000
  0.166667  0.000000  0.083333     12.000000
  0.250000 -0.000000  0.083333     12.000000
  0.333333 -0.000000  0.083333     12.000000
  0.416667 -0.000000  0.083333     12.000000
  0.500000 -0.000000  0.083333      6.000000
  0.166667  0.083333  0.083333     12.000000
  0.250000  0.083333  0.083333     24.000000
  0.333333  0.083333  0.083333     24.000000
  0.416667  0.083333  0.083333     24.000000
  0.500000  0.083333  0.083333     24.000000
  0.333333  0.166667  0.083333     12.000000
  0.416667  0.166667  0.083333     24.000000
  0.500000  0.166667  0.083333     24.000000
 -0.416667  0.166667  0.083333     12.000000
  0.500000  0.250000  0.083333     12.000000
 -0.416667  0.250000  0.083333     24.000000
 -0.333333  0.333333  0.083333      4.000000
  0.000000 -0.000000  0.166667      2.000000
  0.083333 -0.000000  0.166667     12.000000
  0.166667  0.000000  0.166667     12.000000
  0.250000 -0.000000  0.166667     12.000000
  0.333333 -0.000000  0.166667     12.000000
  0.416667 -0.000000  0.166667     12.000000
  0.500000 -0.000000  0.166667      6.000000
  0.166667  0.083333  0.166667     12.000000
  0.250000  0.083333  0.166667     24.000000
  0.333333  0.083333  0.166667     24.000000
  0.416667  0.083333  0.166667     24.000000
  0.500000  0.083333  0.166667     24.000000
  0.333333  0.166667  0.166667     12.000000
  0.416667  0.166667  0.166667     24.000000
  0.500000  0.166667  0.166667     24.000000
 -0.416667  0.166667  0.166667     12.000000
  0.500000  0.250000  0.166667     12.000000
 -0.416667  0.250000  0.166667     24.000000
 -0.333333  0.333333  0.166667      4.000000
  0.000000 -0.000000  0.250000      2.000000
  0.083333 -0.000000  0.250000     12.000000
  0.166667  0.000000  0.250000     12.000000
  0.250000 -0.000000  0.250000     12.000000
  0.333333  0.000000  0.250000     12.000000
  0.416667 -0.000000  0.250000     12.000000
  0.500000 -0.000000  0.250000      6.000000
  0.166667  0.083333  0.250000     12.000000
  0.250000  0.083333  0.250000     24.000000
  0.333333  0.083333  0.250000     24.000000
  0.416667  0.083333  0.250000     24.000000
  0.500000  0.083333  0.250000     24.000000
  0.333333  0.166667  0.250000     12.000000
  0.416667  0.166667  0.250000     24.000000
  0.500000  0.166667  0.250000     24.000000
 -0.416667  0.166667  0.250000     12.000000
  0.500000  0.250000  0.250000     12.000000
 -0.416667  0.250000  0.250000     24.000000
 -0.333333  0.333333  0.250000      4.000000
  0.000000 -0.000000  0.333333      2.000000
  0.083333 -0.000000  0.333333     12.000000
  0.166667 -0.000000  0.333333     12.000000
  0.250000 -0.000000  0.333333     12.000000
  0.333333  0.000000  0.333333     12.000000
  0.416667 -0.000000  0.333333     12.000000
  0.500000 -0.000000  0.333333      6.000000
  0.166667  0.083333  0.333333     12.000000
  0.250000  0.083333  0.333333     24.000000
  0.333333  0.083333  0.333333     24.000000
  0.416667  0.083333  0.333333     24.000000
  0.500000  0.083333  0.333333     24.000000
  0.333333  0.166667  0.333333     12.000000
  0.416667  0.166667  0.333333     24.000000
  0.500000  0.166667  0.333333     24.000000
 -0.416667  0.166667  0.333333     12.000000
  0.500000  0.250000  0.333333     12.000000
 -0.416667  0.250000  0.333333     24.000000
 -0.333333  0.333333  0.333333      4.000000
  0.000000 -0.000000  0.416667      2.000000
  0.083333 -0.000000  0.416667     12.000000
  0.166667 -0.000000  0.416667     12.000000
  0.250000  0.000000  0.416667     12.000000
  0.333333  0.000000  0.416667     12.000000
  0.416667 -0.000000  0.416667     12.000000
  0.500000 -0.000000  0.416667      6.000000
  0.166667  0.083333  0.416667     12.000000
  0.250000  0.083333  0.416667     24.000000
  0.333333  0.083333  0.416667     24.000000
  0.416667  0.083333  0.416667     24.000000
  0.500000  0.083333  0.416667     24.000000
  0.333333  0.166667  0.416667     12.000000
  0.416667  0.166667  0.416667     24.000000
  0.500000  0.166667  0.416667     24.000000
 -0.416667  0.166667  0.416667     12.000000
  0.500000  0.250000  0.416667     12.000000
 -0.416667  0.250000  0.416667     24.000000
 -0.333333  0.333333  0.416667      4.000000
  0.000000 -0.000000  0.500000      1.000000
  0.083333 -0.000000  0.500000      6.000000
  0.166667  0.000000  0.500000      6.000000
  0.250000  0.000000  0.500000      6.000000
  0.333333  0.000000  0.500000      6.000000
  0.416667 -0.000000  0.500000      6.000000
  0.500000 -0.000000  0.500000      3.000000
  0.166667  0.083333  0.500000      6.000000
  0.250000  0.083333  0.500000     12.000000
  0.333333  0.083333  0.500000     12.000000
  0.416667  0.083333  0.500000     12.000000
  0.500000  0.083333  0.500000     12.000000
  0.333333  0.166667  0.500000      6.000000
  0.416667  0.166667  0.500000     12.000000
  0.500000  0.166667  0.500000     12.000000
 -0.416667  0.166667  0.500000      6.000000
  0.500000  0.250000  0.500000      6.000000
 -0.416667  0.250000  0.500000     12.000000
 -0.333333  0.333333  0.500000      2.000000
 
 Following cartesian coordinates:
            Coordinates               Weight
  0.000000  0.000000  0.000000      1.000000
  0.025752 -0.014868  0.000000      6.000000
  0.051503 -0.029736  0.000000      6.000000
  0.077255 -0.044603  0.000000      6.000000
  0.103007 -0.059471  0.000000      6.000000
  0.128759 -0.074339  0.000000      6.000000
  0.154510 -0.089207  0.000000      3.000000
  0.051503  0.000000  0.000000      6.000000
  0.077255 -0.014868  0.000000     12.000000
  0.103007 -0.029736  0.000000     12.000000
  0.128759 -0.044603  0.000000     12.000000
  0.154510 -0.059471  0.000000     12.000000
  0.103007 -0.000000  0.000000      6.000000
  0.128759 -0.014868  0.000000     12.000000
  0.154510 -0.029736  0.000000     12.000000
 -0.128759  0.133810  0.000000      6.000000
  0.154510 -0.000000  0.000000      6.000000
 -0.128759  0.163545  0.000000     12.000000
 -0.103007  0.178413  0.000000      2.000000
 -0.000000 -0.000000  0.016058      2.000000
  0.025752 -0.014868  0.016058     12.000000
  0.051503 -0.029736  0.016058     12.000000
  0.077255 -0.044603  0.016058     12.000000
  0.103007 -0.059471  0.016058     12.000000
  0.128759 -0.074339  0.016058     12.000000
  0.154510 -0.089207  0.016058      6.000000
  0.051503  0.000000  0.016058     12.000000
  0.077255 -0.014868  0.016058     24.000000
  0.103007 -0.029736  0.016058     24.000000
  0.128759 -0.044603  0.016058     24.000000
  0.154510 -0.059471  0.016058     24.000000
  0.103007 -0.000000  0.016058     12.000000
  0.128759 -0.014868  0.016058     24.000000
  0.154510 -0.029736  0.016058     24.000000
 -0.128759  0.133810  0.016058     12.000000
  0.154510 -0.000000  0.016058     12.000000
 -0.128759  0.163545  0.016058     24.000000
 -0.103007  0.178413  0.016058      4.000000
 -0.000000 -0.000000  0.032116      2.000000
  0.025752 -0.014868  0.032116     12.000000
  0.051503 -0.029736  0.032116     12.000000
  0.077255 -0.044603  0.032116     12.000000
  0.103007 -0.059471  0.032116     12.000000
  0.128759 -0.074339  0.032116     12.000000
  0.154510 -0.089207  0.032116      6.000000
  0.051503  0.000000  0.032116     12.000000
  0.077255 -0.014868  0.032116     24.000000
  0.103007 -0.029736  0.032116     24.000000
  0.128759 -0.044603  0.032116     24.000000
  0.154510 -0.059471  0.032116     24.000000
  0.103007 -0.000000  0.032116     12.000000
  0.128759 -0.014868  0.032116     24.000000
  0.154510 -0.029736  0.032116     24.000000
 -0.128759  0.133810  0.032116     12.000000
  0.154510 -0.000000  0.032116     12.000000
 -0.128759  0.163545  0.032116     24.000000
 -0.103007  0.178413  0.032116      4.000000
 -0.000000 -0.000000  0.048174      2.000000
  0.025752 -0.014868  0.048174     12.000000
  0.051503 -0.029736  0.048174     12.000000
  0.077255 -0.044603  0.048174     12.000000
  0.103007 -0.059471  0.048174     12.000000
  0.128759 -0.074339  0.048174     12.000000
  0.154510 -0.089207  0.048174      6.000000
  0.051503  0.000000  0.048174     12.000000
  0.077255 -0.014868  0.048174     24.000000
  0.103007 -0.029736  0.048174     24.000000
  0.128759 -0.044603  0.048174     24.000000
  0.154510 -0.059471  0.048174     24.000000
  0.103007 -0.000000  0.048174     12.000000
  0.128759 -0.014868  0.048174     24.000000
  0.154510 -0.029736  0.048174     24.000000
 -0.128759  0.133810  0.048174     12.000000
  0.154510 -0.000000  0.048174     12.000000
 -0.128759  0.163545  0.048174     24.000000
 -0.103007  0.178413  0.048174      4.000000
 -0.000000 -0.000000  0.064232      2.000000
  0.025752 -0.014868  0.064232     12.000000
  0.051503 -0.029736  0.064232     12.000000
  0.077255 -0.044603  0.064232     12.000000
  0.103007 -0.059471  0.064232     12.000000
  0.128759 -0.074339  0.064232     12.000000
  0.154510 -0.089207  0.064232      6.000000
  0.051503  0.000000  0.064232     12.000000
  0.077255 -0.014868  0.064232     24.000000
  0.103007 -0.029736  0.064232     24.000000
  0.128759 -0.044603  0.064232     24.000000
  0.154510 -0.059471  0.064232     24.000000
  0.103007 -0.000000  0.064232     12.000000
  0.128759 -0.014868  0.064232     24.000000
  0.154510 -0.029736  0.064232     24.000000
 -0.128759  0.133810  0.064232     12.000000
  0.154510 -0.000000  0.064232     12.000000
 -0.128759  0.163545  0.064232     24.000000
 -0.103007  0.178413  0.064232      4.000000
 -0.000000 -0.000000  0.080290      2.000000
  0.025752 -0.014868  0.080290     12.000000
  0.051503 -0.029736  0.080290     12.000000
  0.077255 -0.044603  0.080290     12.000000
  0.103007 -0.059471  0.080290     12.000000
  0.128759 -0.074339  0.080290     12.000000
  0.154510 -0.089207  0.080290      6.000000
  0.051503  0.000000  0.080290     12.000000
  0.077255 -0.014868  0.080290     24.000000
  0.103007 -0.029736  0.080290     24.000000
  0.128759 -0.044603  0.080290     24.000000
  0.154510 -0.059471  0.080290     24.000000
  0.103007 -0.000000  0.080290     12.000000
  0.128759 -0.014868  0.080290     24.000000
  0.154510 -0.029736  0.080290     24.000000
 -0.128759  0.133810  0.080290     12.000000
  0.154510 -0.000000  0.080290     12.000000
 -0.128759  0.163545  0.080290     24.000000
 -0.103007  0.178413  0.080290      4.000000
 -0.000000 -0.000000  0.096348      1.000000
  0.025752 -0.014868  0.096348      6.000000
  0.051503 -0.029736  0.096348      6.000000
  0.077255 -0.044603  0.096348      6.000000
  0.103007 -0.059471  0.096348      6.000000
  0.128759 -0.074339  0.096348      6.000000
  0.154510 -0.089207  0.096348      3.000000
  0.051503  0.000000  0.096348      6.000000
  0.077255 -0.014868  0.096348     12.000000
  0.103007 -0.029736  0.096348     12.000000
  0.128759 -0.044603  0.096348     12.000000
  0.154510 -0.059471  0.096348     12.000000
  0.103007 -0.000000  0.096348      6.000000
  0.128759 -0.014868  0.096348     12.000000
  0.154510 -0.029736  0.096348     12.000000
 -0.128759  0.133810  0.096348      6.000000
  0.154510 -0.000000  0.096348      6.000000
 -0.128759  0.163545  0.096348     12.000000
 -0.103007  0.178413  0.096348      2.000000
 
 
 Subroutine IBZKPT_HF returns following result:
 ==============================================
 
 Found   1728 k-points in 1st BZ
 the following   1728 k-points will be used (e.g. in the exchange kernel)
 Following reciprocal coordinates:   # in IRBZ
  0.000000  0.000000  0.000000    0.00057870   1 t-inv F
  0.083333 -0.000000  0.000000    0.00057870   2 t-inv F
  0.166667  0.000000  0.000000    0.00057870   3 t-inv F
  0.250000 -0.000000  0.000000    0.00057870   4 t-inv F
  0.333333 -0.000000  0.000000    0.00057870   5 t-inv F
  0.416667 -0.000000  0.000000    0.00057870   6 t-inv F
  0.500000 -0.000000  0.000000    0.00057870   7 t-inv F
  0.166667  0.083333  0.000000    0.00057870   8 t-inv F
  0.250000  0.083333  0.000000    0.00057870   9 t-inv F
  0.333333  0.083333  0.000000    0.00057870  10 t-inv F
  0.416667  0.083333  0.000000    0.00057870  11 t-inv F
  0.500000  0.083333  0.000000    0.00057870  12 t-inv F
  0.333333  0.166667  0.000000    0.00057870  13 t-inv F
  0.416667  0.166667  0.000000    0.00057870  14 t-inv F
  0.500000  0.166667  0.000000    0.00057870  15 t-inv F
 -0.416667  0.166667  0.000000    0.00057870  16 t-inv F
  0.500000  0.250000  0.000000    0.00057870  17 t-inv F
 -0.416667  0.250000  0.000000    0.00057870  18 t-inv F
 -0.333333  0.333333  0.000000    0.00057870  19 t-inv F
  0.000000 -0.000000  0.083333    0.00057870  20 t-inv F
  0.083333 -0.000000  0.083333    0.00057870  21 t-inv F
  0.166667  0.000000  0.083333    0.00057870  22 t-inv F
  0.250000 -0.000000  0.083333    0.00057870  23 t-inv F
  0.333333 -0.000000  0.083333    0.00057870  24 t-inv F
  0.416667 -0.000000  0.083333    0.00057870  25 t-inv F
  0.500000 -0.000000  0.083333    0.00057870  26 t-inv F
  0.166667  0.083333  0.083333    0.00057870  27 t-inv F
  0.250000  0.083333  0.083333    0.00057870  28 t-inv F
  0.333333  0.083333  0.083333    0.00057870  29 t-inv F
  0.416667  0.083333  0.083333    0.00057870  30 t-inv F
  0.500000  0.083333  0.083333    0.00057870  31 t-inv F
  0.333333  0.166667  0.083333    0.00057870  32 t-inv F
  0.416667  0.166667  0.083333    0.00057870  33 t-inv F
  0.500000  0.166667  0.083333    0.00057870  34 t-inv F
 -0.416667  0.166667  0.083333    0.00057870  35 t-inv F
  0.500000  0.250000  0.083333    0.00057870  36 t-inv F
 -0.416667  0.250000  0.083333    0.00057870  37 t-inv F
 -0.333333  0.333333  0.083333    0.00057870  38 t-inv F
  0.000000 -0.000000  0.166667    0.00057870  39 t-inv F
  0.083333 -0.000000  0.166667    0.00057870  40 t-inv F
  0.166667  0.000000  0.166667    0.00057870  41 t-inv F
  0.250000 -0.000000  0.166667    0.00057870  42 t-inv F
  0.333333 -0.000000  0.166667    0.00057870  43 t-inv F
  0.416667 -0.000000  0.166667    0.00057870  44 t-inv F
  0.500000 -0.000000  0.166667    0.00057870  45 t-inv F
  0.166667  0.083333  0.166667    0.00057870  46 t-inv F
  0.250000  0.083333  0.166667    0.00057870  47 t-inv F
  0.333333  0.083333  0.166667    0.00057870  48 t-inv F
  0.416667  0.083333  0.166667    0.00057870  49 t-inv F
  0.500000  0.083333  0.166667    0.00057870  50 t-inv F
  0.333333  0.166667  0.166667    0.00057870  51 t-inv F
  0.416667  0.166667  0.166667    0.00057870  52 t-inv F
  0.500000  0.166667  0.166667    0.00057870  53 t-inv F
 -0.416667  0.166667  0.166667    0.00057870  54 t-inv F
  0.500000  0.250000  0.166667    0.00057870  55 t-inv F
 -0.416667  0.250000  0.166667    0.00057870  56 t-inv F
 -0.333333  0.333333  0.166667    0.00057870  57 t-inv F
  0.000000 -0.000000  0.250000    0.00057870  58 t-inv F
  0.083333 -0.000000  0.250000    0.00057870  59 t-inv F
  0.166667  0.000000  0.250000    0.00057870  60 t-inv F
  0.250000 -0.000000  0.250000    0.00057870  61 t-inv F
  0.333333  0.000000  0.250000    0.00057870  62 t-inv F
  0.416667 -0.000000  0.250000    0.00057870  63 t-inv F
  0.500000 -0.000000  0.250000    0.00057870  64 t-inv F
  0.166667  0.083333  0.250000    0.00057870  65 t-inv F
  0.250000  0.083333  0.250000    0.00057870  66 t-inv F
  0.333333  0.083333  0.250000    0.00057870  67 t-inv F
  0.416667  0.083333  0.250000    0.00057870  68 t-inv F
  0.500000  0.083333  0.250000    0.00057870  69 t-inv F
  0.333333  0.166667  0.250000    0.00057870  70 t-inv F
  0.416667  0.166667  0.250000    0.00057870  71 t-inv F
  0.500000  0.166667  0.250000    0.00057870  72 t-inv F
 -0.416667  0.166667  0.250000    0.00057870  73 t-inv F
  0.500000  0.250000  0.250000    0.00057870  74 t-inv F
 -0.416667  0.250000  0.250000    0.00057870  75 t-inv F
 -0.333333  0.333333  0.250000    0.00057870  76 t-inv F
  0.000000 -0.000000  0.333333    0.00057870  77 t-inv F
  0.083333 -0.000000  0.333333    0.00057870  78 t-inv F
  0.166667 -0.000000  0.333333    0.00057870  79 t-inv F
  0.250000 -0.000000  0.333333    0.00057870  80 t-inv F
  0.333333  0.000000  0.333333    0.00057870  81 t-inv F
  0.416667 -0.000000  0.333333    0.00057870  82 t-inv F
  0.500000 -0.000000  0.333333    0.00057870  83 t-inv F
  0.166667  0.083333  0.333333    0.00057870  84 t-inv F
  0.250000  0.083333  0.333333    0.00057870  85 t-inv F
  0.333333  0.083333  0.333333    0.00057870  86 t-inv F
  0.416667  0.083333  0.333333    0.00057870  87 t-inv F
  0.500000  0.083333  0.333333    0.00057870  88 t-inv F
  0.333333  0.166667  0.333333    0.00057870  89 t-inv F
  0.416667  0.166667  0.333333    0.00057870  90 t-inv F
  0.500000  0.166667  0.333333    0.00057870  91 t-inv F
 -0.416667  0.166667  0.333333    0.00057870  92 t-inv F
  0.500000  0.250000  0.333333    0.00057870  93 t-inv F
 -0.416667  0.250000  0.333333    0.00057870  94 t-inv F
 -0.333333  0.333333  0.333333    0.00057870  95 t-inv F
  0.000000 -0.000000  0.416667    0.00057870  96 t-inv F
  0.083333 -0.000000  0.416667    0.00057870  97 t-inv F
  0.166667 -0.000000  0.416667    0.00057870  98 t-inv F
  0.250000  0.000000  0.416667    0.00057870  99 t-inv F
  0.333333  0.000000  0.416667    0.00057870 100 t-inv F
  0.416667 -0.000000  0.416667    0.00057870 101 t-inv F
  0.500000 -0.000000  0.416667    0.00057870 102 t-inv F
  0.166667  0.083333  0.416667    0.00057870 103 t-inv F
  0.250000  0.083333  0.416667    0.00057870 104 t-inv F
  0.333333  0.083333  0.416667    0.00057870 105 t-inv F
  0.416667  0.083333  0.416667    0.00057870 106 t-inv F
  0.500000  0.083333  0.416667    0.00057870 107 t-inv F
  0.333333  0.166667  0.416667    0.00057870 108 t-inv F
  0.416667  0.166667  0.416667    0.00057870 109 t-inv F
  0.500000  0.166667  0.416667    0.00057870 110 t-inv F
 -0.416667  0.166667  0.416667    0.00057870 111 t-inv F
  0.500000  0.250000  0.416667    0.00057870 112 t-inv F
 -0.416667  0.250000  0.416667    0.00057870 113 t-inv F
 -0.333333  0.333333  0.416667    0.00057870 114 t-inv F
  0.000000 -0.000000  0.500000    0.00057870 115 t-inv F
  0.083333 -0.000000  0.500000    0.00057870 116 t-inv F
  0.166667  0.000000  0.500000    0.00057870 117 t-inv F
  0.250000  0.000000  0.500000    0.00057870 118 t-inv F
  0.333333  0.000000  0.500000    0.00057870 119 t-inv F
  0.416667 -0.000000  0.500000    0.00057870 120 t-inv F
  0.500000 -0.000000  0.500000    0.00057870 121 t-inv F
  0.166667  0.083333  0.500000    0.00057870 122 t-inv F
  0.250000  0.083333  0.500000    0.00057870 123 t-inv F
  0.333333  0.083333  0.500000    0.00057870 124 t-inv F
  0.416667  0.083333  0.500000    0.00057870 125 t-inv F
  0.500000  0.083333  0.500000    0.00057870 126 t-inv F
  0.333333  0.166667  0.500000    0.00057870 127 t-inv F
  0.416667  0.166667  0.500000    0.00057870 128 t-inv F
  0.500000  0.166667  0.500000    0.00057870 129 t-inv F
 -0.416667  0.166667  0.500000    0.00057870 130 t-inv F
  0.500000  0.250000  0.500000    0.00057870 131 t-inv F
 -0.416667  0.250000  0.500000    0.00057870 132 t-inv F
 -0.333333  0.333333  0.500000    0.00057870 133 t-inv F
 -0.083333 -0.083333  0.000000    0.00057870   2 t-inv F
  0.000000  0.083333  0.000000    0.00057870   2 t-inv F
 -0.083333  0.000000  0.000000    0.00057870   2 t-inv F
  0.083333  0.083333  0.000000    0.00057870   2 t-inv F
 -0.000000 -0.083333  0.000000    0.00057870   2 t-inv F
 -0.166667 -0.166667  0.000000    0.00057870   3 t-inv F
 -0.000000  0.166667  0.000000    0.00057870   3 t-inv F
 -0.166667 -0.000000  0.000000    0.00057870   3 t-inv F
  0.166667  0.166667  0.000000    0.00057870   3 t-inv F
  0.000000 -0.166667  0.000000    0.00057870   3 t-inv F
 -0.250000 -0.250000  0.000000    0.00057870   4 t-inv F
  0.000000  0.250000  0.000000    0.00057870   4 t-inv F
 -0.250000  0.000000  0.000000    0.00057870   4 t-inv F
  0.250000  0.250000  0.000000    0.00057870   4 t-inv F
 -0.000000 -0.250000  0.000000    0.00057870   4 t-inv F
 -0.333333 -0.333333  0.000000    0.00057870   5 t-inv F
  0.000000  0.333333  0.000000    0.00057870   5 t-inv F
 -0.333333  0.000000  0.000000    0.00057870   5 t-inv F
  0.333333  0.333333  0.000000    0.00057870   5 t-inv F
 -0.000000 -0.333333  0.000000    0.00057870   5 t-inv F
 -0.416667 -0.416667  0.000000    0.00057870   6 t-inv F
  0.000000  0.416667  0.000000    0.00057870   6 t-inv F
 -0.416667  0.000000  0.000000    0.00057870   6 t-inv F
  0.416667  0.416667  0.000000    0.00057870   6 t-inv F
 -0.000000 -0.416667  0.000000    0.00057870   6 t-inv F
 -0.500000 -0.500000  0.000000    0.00057870   7 t-inv F
  0.000000  0.500000  0.000000    0.00057870   7 t-inv F
 -0.083333 -0.166667  0.000000    0.00057870   8 t-inv F
 -0.083333  0.083333  0.000000    0.00057870   8 t-inv F
  0.083333 -0.083333  0.000000    0.00057870   8 t-inv F
  0.083333  0.166667  0.000000    0.00057870   8 t-inv F
 -0.166667 -0.083333  0.000000    0.00057870   8 t-inv F
 -0.166667 -0.250000  0.000000    0.00057870   9 t-inv F
 -0.083333  0.166667  0.000000    0.00057870   9 t-inv F
  0.166667 -0.083333  0.000000    0.00057870   9 t-inv F
  0.083333  0.250000  0.000000    0.00057870   9 t-inv F
 -0.250000 -0.166667  0.000000    0.00057870   9 t-inv F
 -0.250000 -0.083333  0.000000    0.00057870   9 t-inv F
  0.166667  0.250000  0.000000    0.00057870   9 t-inv F
  0.083333 -0.166667  0.000000    0.00057870   9 t-inv F
 -0.166667  0.083333  0.000000    0.00057870   9 t-inv F
 -0.083333 -0.250000  0.000000    0.00057870   9 t-inv F
  0.250000  0.166667  0.000000    0.00057870   9 t-inv F
 -0.250000 -0.333333  0.000000    0.00057870  10 t-inv F
 -0.083333  0.250000  0.000000    0.00057870  10 t-inv F
  0.250000 -0.083333  0.000000    0.00057870  10 t-inv F
  0.083333  0.333333  0.000000    0.00057870  10 t-inv F
 -0.333333 -0.250000  0.000000    0.00057870  10 t-inv F
 -0.333333 -0.083333  0.000000    0.00057870  10 t-inv F
  0.250000  0.333333  0.000000    0.00057870  10 t-inv F
  0.083333 -0.250000  0.000000    0.00057870  10 t-inv F
 -0.250000  0.083333  0.000000    0.00057870  10 t-inv F
 -0.083333 -0.333333  0.000000    0.00057870  10 t-inv F
  0.333333  0.250000  0.000000    0.00057870  10 t-inv F
 -0.333333 -0.416667  0.000000    0.00057870  11 t-inv F
 -0.083333  0.333333  0.000000    0.00057870  11 t-inv F
  0.333333 -0.083333  0.000000    0.00057870  11 t-inv F
  0.083333  0.416667  0.000000    0.00057870  11 t-inv F
 -0.416667 -0.333333  0.000000    0.00057870  11 t-inv F
 -0.416667 -0.083333  0.000000    0.00057870  11 t-inv F
  0.333333  0.416667  0.000000    0.00057870  11 t-inv F
  0.083333 -0.333333  0.000000    0.00057870  11 t-inv F
 -0.333333  0.083333  0.000000    0.00057870  11 t-inv F
 -0.083333 -0.416667  0.000000    0.00057870  11 t-inv F
  0.416667  0.333333  0.000000    0.00057870  11 t-inv F
 -0.416667 -0.500000  0.000000    0.00057870  12 t-inv F
 -0.083333  0.416667  0.000000    0.00057870  12 t-inv F
  0.416667 -0.083333  0.000000    0.00057870  12 t-inv F
  0.083333  0.500000  0.000000    0.00057870  12 t-inv F
 -0.500000 -0.416667  0.000000    0.00057870  12 t-inv F
 -0.500000 -0.083333  0.000000    0.00057870  12 t-inv F
  0.416667  0.500000  0.000000    0.00057870  12 t-inv F
  0.083333 -0.416667  0.000000    0.00057870  12 t-inv F
 -0.416667  0.083333  0.000000    0.00057870  12 t-inv F
 -0.083333 -0.500000  0.000000    0.00057870  12 t-inv F
  0.500000  0.416667  0.000000    0.00057870  12 t-inv F
 -0.166667 -0.333333  0.000000    0.00057870  13 t-inv F
 -0.166667  0.166667  0.000000    0.00057870  13 t-inv F
  0.166667 -0.166667  0.000000    0.00057870  13 t-inv F
  0.166667  0.333333  0.000000    0.00057870  13 t-inv F
 -0.333333 -0.166667  0.000000    0.00057870  13 t-inv F
 -0.250000 -0.416667  0.000000    0.00057870  14 t-inv F
 -0.166667  0.250000  0.000000    0.00057870  14 t-inv F
  0.250000 -0.166667  0.000000    0.00057870  14 t-inv F
  0.166667  0.416667  0.000000    0.00057870  14 t-inv F
 -0.416667 -0.250000  0.000000    0.00057870  14 t-inv F
 -0.416667 -0.166667  0.000000    0.00057870  14 t-inv F
  0.250000  0.416667  0.000000    0.00057870  14 t-inv F
  0.166667 -0.250000  0.000000    0.00057870  14 t-inv F
 -0.250000  0.166667  0.000000    0.00057870  14 t-inv F
 -0.166667 -0.416667  0.000000    0.00057870  14 t-inv F
  0.416667  0.250000  0.000000    0.00057870  14 t-inv F
 -0.333333 -0.500000  0.000000    0.00057870  15 t-inv F
 -0.166667  0.333333  0.000000    0.00057870  15 t-inv F
  0.333333 -0.166667  0.000000    0.00057870  15 t-inv F
  0.166667  0.500000  0.000000    0.00057870  15 t-inv F
 -0.500000 -0.333333  0.000000    0.00057870  15 t-inv F
 -0.500000 -0.166667  0.000000    0.00057870  15 t-inv F
  0.333333  0.500000  0.000000    0.00057870  15 t-inv F
  0.166667 -0.333333  0.000000    0.00057870  15 t-inv F
 -0.333333  0.166667  0.000000    0.00057870  15 t-inv F
 -0.166667 -0.500000  0.000000    0.00057870  15 t-inv F
  0.500000  0.333333  0.000000    0.00057870  15 t-inv F
  0.583333  0.416667  0.000000    0.00057870  16 t-inv F
 -0.166667 -0.583333  0.000000    0.00057870  16 t-inv F
 -0.583333 -0.166667  0.000000    0.00057870  16 t-inv F
  0.166667 -0.416667  0.000000    0.00057870  16 t-inv F
  0.416667  0.583333  0.000000    0.00057870  16 t-inv F
 -0.250000 -0.500000  0.000000    0.00057870  17 t-inv F
 -0.250000  0.250000  0.000000    0.00057870  17 t-inv F
  0.250000 -0.250000  0.000000    0.00057870  17 t-inv F
  0.250000  0.500000  0.000000    0.00057870  17 t-inv F
 -0.500000 -0.250000  0.000000    0.00057870  17 t-inv F
  0.666667  0.416667  0.000000    0.00057870  18 t-inv F
 -0.250000 -0.666667  0.000000    0.00057870  18 t-inv F
 -0.666667 -0.250000  0.000000    0.00057870  18 t-inv F
  0.250000 -0.416667  0.000000    0.00057870  18 t-inv F
  0.416667  0.666667  0.000000    0.00057870  18 t-inv F
  0.416667 -0.250000  0.000000    0.00057870  18 t-inv F
 -0.666667 -0.416667  0.000000    0.00057870  18 t-inv F
  0.250000  0.666667  0.000000    0.00057870  18 t-inv F
  0.666667  0.250000  0.000000    0.00057870  18 t-inv F
 -0.250000  0.416667  0.000000    0.00057870  18 t-inv F
 -0.416667 -0.666667  0.000000    0.00057870  18 t-inv F
 -0.666667 -0.333333  0.000000    0.00057870  19 t-inv F
 -0.000000 -0.000000 -0.083333    0.00057870  20 t-inv F
 -0.083333 -0.083333 -0.083333    0.00057870  21 t-inv F
  0.000000  0.083333  0.083333    0.00057870  21 t-inv F
  0.083333 -0.000000 -0.083333    0.00057870  21 t-inv F
 -0.083333 -0.083333  0.083333    0.00057870  21 t-inv F
  0.000000  0.083333 -0.083333    0.00057870  21 t-inv F
 -0.083333  0.000000 -0.083333    0.00057870  21 t-inv F
  0.083333  0.083333  0.083333    0.00057870  21 t-inv F
 -0.000000 -0.083333 -0.083333    0.00057870  21 t-inv F
 -0.083333  0.000000  0.083333    0.00057870  21 t-inv F
  0.083333  0.083333 -0.083333    0.00057870  21 t-inv F
 -0.000000 -0.083333  0.083333    0.00057870  21 t-inv F
 -0.166667 -0.166667 -0.083333    0.00057870  22 t-inv F
 -0.000000  0.166667  0.083333    0.00057870  22 t-inv F
  0.166667  0.000000 -0.083333    0.00057870  22 t-inv F
 -0.166667 -0.166667  0.083333    0.00057870  22 t-inv F
 -0.000000  0.166667 -0.083333    0.00057870  22 t-inv F
 -0.166667 -0.000000 -0.083333    0.00057870  22 t-inv F
  0.166667  0.166667  0.083333    0.00057870  22 t-inv F
  0.000000 -0.166667 -0.083333    0.00057870  22 t-inv F
 -0.166667 -0.000000  0.083333    0.00057870  22 t-inv F
  0.166667  0.166667 -0.083333    0.00057870  22 t-inv F
  0.000000 -0.166667  0.083333    0.00057870  22 t-inv F
 -0.250000 -0.250000 -0.083333    0.00057870  23 t-inv F
  0.000000  0.250000  0.083333    0.00057870  23 t-inv F
  0.250000 -0.000000 -0.083333    0.00057870  23 t-inv F
 -0.250000 -0.250000  0.083333    0.00057870  23 t-inv F
  0.000000  0.250000 -0.083333    0.00057870  23 t-inv F
 -0.250000  0.000000 -0.083333    0.00057870  23 t-inv F
  0.250000  0.250000  0.083333    0.00057870  23 t-inv F
 -0.000000 -0.250000 -0.083333    0.00057870  23 t-inv F
 -0.250000  0.000000  0.083333    0.00057870  23 t-inv F
  0.250000  0.250000 -0.083333    0.00057870  23 t-inv F
 -0.000000 -0.250000  0.083333    0.00057870  23 t-inv F
 -0.333333 -0.333333 -0.083333    0.00057870  24 t-inv F
  0.000000  0.333333  0.083333    0.00057870  24 t-inv F
  0.333333 -0.000000 -0.083333    0.00057870  24 t-inv F
 -0.333333 -0.333333  0.083333    0.00057870  24 t-inv F
  0.000000  0.333333 -0.083333    0.00057870  24 t-inv F
 -0.333333  0.000000 -0.083333    0.00057870  24 t-inv F
  0.333333  0.333333  0.083333    0.00057870  24 t-inv F
 -0.000000 -0.333333 -0.083333    0.00057870  24 t-inv F
 -0.333333  0.000000  0.083333    0.00057870  24 t-inv F
  0.333333  0.333333 -0.083333    0.00057870  24 t-inv F
 -0.000000 -0.333333  0.083333    0.00057870  24 t-inv F
 -0.416667 -0.416667 -0.083333    0.00057870  25 t-inv F
  0.000000  0.416667  0.083333    0.00057870  25 t-inv F
  0.416667 -0.000000 -0.083333    0.00057870  25 t-inv F
 -0.416667 -0.416667  0.083333    0.00057870  25 t-inv F
  0.000000  0.416667 -0.083333    0.00057870  25 t-inv F
 -0.416667  0.000000 -0.083333    0.00057870  25 t-inv F
  0.416667  0.416667  0.083333    0.00057870  25 t-inv F
 -0.000000 -0.416667 -0.083333    0.00057870  25 t-inv F
 -0.416667  0.000000  0.083333    0.00057870  25 t-inv F
  0.416667  0.416667 -0.083333    0.00057870  25 t-inv F
 -0.000000 -0.416667  0.083333    0.00057870  25 t-inv F
 -0.500000 -0.500000 -0.083333    0.00057870  26 t-inv F
  0.000000  0.500000  0.083333    0.00057870  26 t-inv F
  0.500000 -0.000000 -0.083333    0.00057870  26 t-inv F
 -0.500000 -0.500000  0.083333    0.00057870  26 t-inv F
  0.000000  0.500000 -0.083333    0.00057870  26 t-inv F
 -0.083333 -0.166667 -0.083333    0.00057870  27 t-inv F
 -0.083333  0.083333  0.083333    0.00057870  27 t-inv F
  0.166667  0.083333 -0.083333    0.00057870  27 t-inv F
 -0.083333 -0.166667  0.083333    0.00057870  27 t-inv F
 -0.083333  0.083333 -0.083333    0.00057870  27 t-inv F
  0.083333 -0.083333  0.083333    0.00057870  27 t-inv F
  0.083333  0.166667 -0.083333    0.00057870  27 t-inv F
 -0.166667 -0.083333  0.083333    0.00057870  27 t-inv F
  0.083333 -0.083333 -0.083333    0.00057870  27 t-inv F
  0.083333  0.166667  0.083333    0.00057870  27 t-inv F
 -0.166667 -0.083333 -0.083333    0.00057870  27 t-inv F
 -0.166667 -0.250000 -0.083333    0.00057870  28 t-inv F
 -0.083333  0.166667  0.083333    0.00057870  28 t-inv F
  0.250000  0.083333 -0.083333    0.00057870  28 t-inv F
 -0.166667 -0.250000  0.083333    0.00057870  28 t-inv F
 -0.083333  0.166667 -0.083333    0.00057870  28 t-inv F
  0.166667 -0.083333  0.083333    0.00057870  28 t-inv F
  0.083333  0.250000 -0.083333    0.00057870  28 t-inv F
 -0.250000 -0.166667  0.083333    0.00057870  28 t-inv F
  0.166667 -0.083333 -0.083333    0.00057870  28 t-inv F
  0.083333  0.250000  0.083333    0.00057870  28 t-inv F
 -0.250000 -0.166667 -0.083333    0.00057870  28 t-inv F
 -0.250000 -0.083333 -0.083333    0.00057870  28 t-inv F
  0.166667  0.250000  0.083333    0.00057870  28 t-inv F
  0.083333 -0.166667 -0.083333    0.00057870  28 t-inv F
 -0.250000 -0.083333  0.083333    0.00057870  28 t-inv F
  0.166667  0.250000 -0.083333    0.00057870  28 t-inv F
  0.083333 -0.166667  0.083333    0.00057870  28 t-inv F
 -0.166667  0.083333 -0.083333    0.00057870  28 t-inv F
 -0.083333 -0.250000  0.083333    0.00057870  28 t-inv F
  0.250000  0.166667 -0.083333    0.00057870  28 t-inv F
 -0.166667  0.083333  0.083333    0.00057870  28 t-inv F
 -0.083333 -0.250000 -0.083333    0.00057870  28 t-inv F
  0.250000  0.166667  0.083333    0.00057870  28 t-inv F
 -0.250000 -0.333333 -0.083333    0.00057870  29 t-inv F
 -0.083333  0.250000  0.083333    0.00057870  29 t-inv F
  0.333333  0.083333 -0.083333    0.00057870  29 t-inv F
 -0.250000 -0.333333  0.083333    0.00057870  29 t-inv F
 -0.083333  0.250000 -0.083333    0.00057870  29 t-inv F
  0.250000 -0.083333  0.083333    0.00057870  29 t-inv F
  0.083333  0.333333 -0.083333    0.00057870  29 t-inv F
 -0.333333 -0.250000  0.083333    0.00057870  29 t-inv F
  0.250000 -0.083333 -0.083333    0.00057870  29 t-inv F
  0.083333  0.333333  0.083333    0.00057870  29 t-inv F
 -0.333333 -0.250000 -0.083333    0.00057870  29 t-inv F
 -0.333333 -0.083333 -0.083333    0.00057870  29 t-inv F
  0.250000  0.333333  0.083333    0.00057870  29 t-inv F
  0.083333 -0.250000 -0.083333    0.00057870  29 t-inv F
 -0.333333 -0.083333  0.083333    0.00057870  29 t-inv F
  0.250000  0.333333 -0.083333    0.00057870  29 t-inv F
  0.083333 -0.250000  0.083333    0.00057870  29 t-inv F
 -0.250000  0.083333 -0.083333    0.00057870  29 t-inv F
 -0.083333 -0.333333  0.083333    0.00057870  29 t-inv F
  0.333333  0.250000 -0.083333    0.00057870  29 t-inv F
 -0.250000  0.083333  0.083333    0.00057870  29 t-inv F
 -0.083333 -0.333333 -0.083333    0.00057870  29 t-inv F
  0.333333  0.250000  0.083333    0.00057870  29 t-inv F
 -0.333333 -0.416667 -0.083333    0.00057870  30 t-inv F
 -0.083333  0.333333  0.083333    0.00057870  30 t-inv F
  0.416667  0.083333 -0.083333    0.00057870  30 t-inv F
 -0.333333 -0.416667  0.083333    0.00057870  30 t-inv F
 -0.083333  0.333333 -0.083333    0.00057870  30 t-inv F
  0.333333 -0.083333  0.083333    0.00057870  30 t-inv F
  0.083333  0.416667 -0.083333    0.00057870  30 t-inv F
 -0.416667 -0.333333  0.083333    0.00057870  30 t-inv F
  0.333333 -0.083333 -0.083333    0.00057870  30 t-inv F
  0.083333  0.416667  0.083333    0.00057870  30 t-inv F
 -0.416667 -0.333333 -0.083333    0.00057870  30 t-inv F
 -0.416667 -0.083333 -0.083333    0.00057870  30 t-inv F
  0.333333  0.416667  0.083333    0.00057870  30 t-inv F
  0.083333 -0.333333 -0.083333    0.00057870  30 t-inv F
 -0.416667 -0.083333  0.083333    0.00057870  30 t-inv F
  0.333333  0.416667 -0.083333    0.00057870  30 t-inv F
  0.083333 -0.333333  0.083333    0.00057870  30 t-inv F
 -0.333333  0.083333 -0.083333    0.00057870  30 t-inv F
 -0.083333 -0.416667  0.083333    0.00057870  30 t-inv F
  0.416667  0.333333 -0.083333    0.00057870  30 t-inv F
 -0.333333  0.083333  0.083333    0.00057870  30 t-inv F
 -0.083333 -0.416667 -0.083333    0.00057870  30 t-inv F
  0.416667  0.333333  0.083333    0.00057870  30 t-inv F
 -0.416667 -0.500000 -0.083333    0.00057870  31 t-inv F
 -0.083333  0.416667  0.083333    0.00057870  31 t-inv F
  0.500000  0.083333 -0.083333    0.00057870  31 t-inv F
 -0.416667 -0.500000  0.083333    0.00057870  31 t-inv F
 -0.083333  0.416667 -0.083333    0.00057870  31 t-inv F
  0.416667 -0.083333  0.083333    0.00057870  31 t-inv F
  0.083333  0.500000 -0.083333    0.00057870  31 t-inv F
 -0.500000 -0.416667  0.083333    0.00057870  31 t-inv F
  0.416667 -0.083333 -0.083333    0.00057870  31 t-inv F
  0.083333  0.500000  0.083333    0.00057870  31 t-inv F
 -0.500000 -0.416667 -0.083333    0.00057870  31 t-inv F
 -0.500000 -0.083333 -0.083333    0.00057870  31 t-inv F
  0.416667  0.500000  0.083333    0.00057870  31 t-inv F
  0.083333 -0.416667 -0.083333    0.00057870  31 t-inv F
 -0.500000 -0.083333  0.083333    0.00057870  31 t-inv F
  0.416667  0.500000 -0.083333    0.00057870  31 t-inv F
  0.083333 -0.416667  0.083333    0.00057870  31 t-inv F
 -0.416667  0.083333 -0.083333    0.00057870  31 t-inv F
 -0.083333 -0.500000  0.083333    0.00057870  31 t-inv F
  0.500000  0.416667 -0.083333    0.00057870  31 t-inv F
 -0.416667  0.083333  0.083333    0.00057870  31 t-inv F
 -0.083333 -0.500000 -0.083333    0.00057870  31 t-inv F
  0.500000  0.416667  0.083333    0.00057870  31 t-inv F
 -0.166667 -0.333333 -0.083333    0.00057870  32 t-inv F
 -0.166667  0.166667  0.083333    0.00057870  32 t-inv F
  0.333333  0.166667 -0.083333    0.00057870  32 t-inv F
 -0.166667 -0.333333  0.083333    0.00057870  32 t-inv F
 -0.166667  0.166667 -0.083333    0.00057870  32 t-inv F
  0.166667 -0.166667  0.083333    0.00057870  32 t-inv F
  0.166667  0.333333 -0.083333    0.00057870  32 t-inv F
 -0.333333 -0.166667  0.083333    0.00057870  32 t-inv F
  0.166667 -0.166667 -0.083333    0.00057870  32 t-inv F
  0.166667  0.333333  0.083333    0.00057870  32 t-inv F
 -0.333333 -0.166667 -0.083333    0.00057870  32 t-inv F
 -0.250000 -0.416667 -0.083333    0.00057870  33 t-inv F
 -0.166667  0.250000  0.083333    0.00057870  33 t-inv F
  0.416667  0.166667 -0.083333    0.00057870  33 t-inv F
 -0.250000 -0.416667  0.083333    0.00057870  33 t-inv F
 -0.166667  0.250000 -0.083333    0.00057870  33 t-inv F
  0.250000 -0.166667  0.083333    0.00057870  33 t-inv F
  0.166667  0.416667 -0.083333    0.00057870  33 t-inv F
 -0.416667 -0.250000  0.083333    0.00057870  33 t-inv F
  0.250000 -0.166667 -0.083333    0.00057870  33 t-inv F
  0.166667  0.416667  0.083333    0.00057870  33 t-inv F
 -0.416667 -0.250000 -0.083333    0.00057870  33 t-inv F
 -0.416667 -0.166667 -0.083333    0.00057870  33 t-inv F
  0.250000  0.416667  0.083333    0.00057870  33 t-inv F
  0.166667 -0.250000 -0.083333    0.00057870  33 t-inv F
 -0.416667 -0.166667  0.083333    0.00057870  33 t-inv F
  0.250000  0.416667 -0.083333    0.00057870  33 t-inv F
  0.166667 -0.250000  0.083333    0.00057870  33 t-inv F
 -0.250000  0.166667 -0.083333    0.00057870  33 t-inv F
 -0.166667 -0.416667  0.083333    0.00057870  33 t-inv F
  0.416667  0.250000 -0.083333    0.00057870  33 t-inv F
 -0.250000  0.166667  0.083333    0.00057870  33 t-inv F
 -0.166667 -0.416667 -0.083333    0.00057870  33 t-inv F
  0.416667  0.250000  0.083333    0.00057870  33 t-inv F
 -0.333333 -0.500000 -0.083333    0.00057870  34 t-inv F
 -0.166667  0.333333  0.083333    0.00057870  34 t-inv F
  0.500000  0.166667 -0.083333    0.00057870  34 t-inv F
 -0.333333 -0.500000  0.083333    0.00057870  34 t-inv F
 -0.166667  0.333333 -0.083333    0.00057870  34 t-inv F
  0.333333 -0.166667  0.083333    0.00057870  34 t-inv F
  0.166667  0.500000 -0.083333    0.00057870  34 t-inv F
 -0.500000 -0.333333  0.083333    0.00057870  34 t-inv F
  0.333333 -0.166667 -0.083333    0.00057870  34 t-inv F
  0.166667  0.500000  0.083333    0.00057870  34 t-inv F
 -0.500000 -0.333333 -0.083333    0.00057870  34 t-inv F
 -0.500000 -0.166667 -0.083333    0.00057870  34 t-inv F
  0.333333  0.500000  0.083333    0.00057870  34 t-inv F
  0.166667 -0.333333 -0.083333    0.00057870  34 t-inv F
 -0.500000 -0.166667  0.083333    0.00057870  34 t-inv F
  0.333333  0.500000 -0.083333    0.00057870  34 t-inv F
  0.166667 -0.333333  0.083333    0.00057870  34 t-inv F
 -0.333333  0.166667 -0.083333    0.00057870  34 t-inv F
 -0.166667 -0.500000  0.083333    0.00057870  34 t-inv F
  0.500000  0.333333 -0.083333    0.00057870  34 t-inv F
 -0.333333  0.166667  0.083333    0.00057870  34 t-inv F
 -0.166667 -0.500000 -0.083333    0.00057870  34 t-inv F
  0.500000  0.333333  0.083333    0.00057870  34 t-inv F
  0.583333  0.416667 -0.083333    0.00057870  35 t-inv F
 -0.166667 -0.583333  0.083333    0.00057870  35 t-inv F
 -0.416667  0.166667 -0.083333    0.00057870  35 t-inv F
  0.583333  0.416667  0.083333    0.00057870  35 t-inv F
 -0.166667 -0.583333 -0.083333    0.00057870  35 t-inv F
 -0.583333 -0.166667  0.083333    0.00057870  35 t-inv F
  0.166667 -0.416667 -0.083333    0.00057870  35 t-inv F
  0.416667  0.583333  0.083333    0.00057870  35 t-inv F
 -0.583333 -0.166667 -0.083333    0.00057870  35 t-inv F
  0.166667 -0.416667  0.083333    0.00057870  35 t-inv F
  0.416667  0.583333 -0.083333    0.00057870  35 t-inv F
 -0.250000 -0.500000 -0.083333    0.00057870  36 t-inv F
 -0.250000  0.250000  0.083333    0.00057870  36 t-inv F
  0.500000  0.250000 -0.083333    0.00057870  36 t-inv F
 -0.250000 -0.500000  0.083333    0.00057870  36 t-inv F
 -0.250000  0.250000 -0.083333    0.00057870  36 t-inv F
  0.250000 -0.250000  0.083333    0.00057870  36 t-inv F
  0.250000  0.500000 -0.083333    0.00057870  36 t-inv F
 -0.500000 -0.250000  0.083333    0.00057870  36 t-inv F
  0.250000 -0.250000 -0.083333    0.00057870  36 t-inv F
  0.250000  0.500000  0.083333    0.00057870  36 t-inv F
 -0.500000 -0.250000 -0.083333    0.00057870  36 t-inv F
  0.666667  0.416667 -0.083333    0.00057870  37 t-inv F
 -0.250000 -0.666667  0.083333    0.00057870  37 t-inv F
 -0.416667  0.250000 -0.083333    0.00057870  37 t-inv F
  0.666667  0.416667  0.083333    0.00057870  37 t-inv F
 -0.250000 -0.666667 -0.083333    0.00057870  37 t-inv F
 -0.666667 -0.250000  0.083333    0.00057870  37 t-inv F
  0.250000 -0.416667 -0.083333    0.00057870  37 t-inv F
  0.416667  0.666667  0.083333    0.00057870  37 t-inv F
 -0.666667 -0.250000 -0.083333    0.00057870  37 t-inv F
  0.250000 -0.416667  0.083333    0.00057870  37 t-inv F
  0.416667  0.666667 -0.083333    0.00057870  37 t-inv F
  0.416667 -0.250000 -0.083333    0.00057870  37 t-inv F
 -0.666667 -0.416667  0.083333    0.00057870  37 t-inv F
  0.250000  0.666667 -0.083333    0.00057870  37 t-inv F
  0.416667 -0.250000  0.083333    0.00057870  37 t-inv F
 -0.666667 -0.416667 -0.083333    0.00057870  37 t-inv F
  0.250000  0.666667  0.083333    0.00057870  37 t-inv F
  0.666667  0.250000 -0.083333    0.00057870  37 t-inv F
 -0.250000  0.416667  0.083333    0.00057870  37 t-inv F
 -0.416667 -0.666667 -0.083333    0.00057870  37 t-inv F
  0.666667  0.250000  0.083333    0.00057870  37 t-inv F
 -0.250000  0.416667 -0.083333    0.00057870  37 t-inv F
 -0.416667 -0.666667  0.083333    0.00057870  37 t-inv F
  0.666667  0.333333 -0.083333    0.00057870  38 t-inv F
 -0.666667 -0.333333  0.083333    0.00057870  38 t-inv F
  0.333333 -0.333333 -0.083333    0.00057870  38 t-inv F
 -0.000000 -0.000000 -0.166667    0.00057870  39 t-inv F
 -0.083333 -0.083333 -0.166667    0.00057870  40 t-inv F
  0.000000  0.083333  0.166667    0.00057870  40 t-inv F
  0.083333 -0.000000 -0.166667    0.00057870  40 t-inv F
 -0.083333 -0.083333  0.166667    0.00057870  40 t-inv F
  0.000000  0.083333 -0.166667    0.00057870  40 t-inv F
 -0.083333  0.000000 -0.166667    0.00057870  40 t-inv F
  0.083333  0.083333  0.166667    0.00057870  40 t-inv F
 -0.000000 -0.083333 -0.166667    0.00057870  40 t-inv F
 -0.083333  0.000000  0.166667    0.00057870  40 t-inv F
  0.083333  0.083333 -0.166667    0.00057870  40 t-inv F
 -0.000000 -0.083333  0.166667    0.00057870  40 t-inv F
 -0.166667 -0.166667 -0.166667    0.00057870  41 t-inv F
 -0.000000  0.166667  0.166667    0.00057870  41 t-inv F
  0.166667  0.000000 -0.166667    0.00057870  41 t-inv F
 -0.166667 -0.166667  0.166667    0.00057870  41 t-inv F
 -0.000000  0.166667 -0.166667    0.00057870  41 t-inv F
 -0.166667 -0.000000 -0.166667    0.00057870  41 t-inv F
  0.166667  0.166667  0.166667    0.00057870  41 t-inv F
  0.000000 -0.166667 -0.166667    0.00057870  41 t-inv F
 -0.166667 -0.000000  0.166667    0.00057870  41 t-inv F
  0.166667  0.166667 -0.166667    0.00057870  41 t-inv F
  0.000000 -0.166667  0.166667    0.00057870  41 t-inv F
 -0.250000 -0.250000 -0.166667    0.00057870  42 t-inv F
  0.000000  0.250000  0.166667    0.00057870  42 t-inv F
  0.250000 -0.000000 -0.166667    0.00057870  42 t-inv F
 -0.250000 -0.250000  0.166667    0.00057870  42 t-inv F
  0.000000  0.250000 -0.166667    0.00057870  42 t-inv F
 -0.250000  0.000000 -0.166667    0.00057870  42 t-inv F
  0.250000  0.250000  0.166667    0.00057870  42 t-inv F
 -0.000000 -0.250000 -0.166667    0.00057870  42 t-inv F
 -0.250000  0.000000  0.166667    0.00057870  42 t-inv F
  0.250000  0.250000 -0.166667    0.00057870  42 t-inv F
 -0.000000 -0.250000  0.166667    0.00057870  42 t-inv F
 -0.333333 -0.333333 -0.166667    0.00057870  43 t-inv F
  0.000000  0.333333  0.166667    0.00057870  43 t-inv F
  0.333333 -0.000000 -0.166667    0.00057870  43 t-inv F
 -0.333333 -0.333333  0.166667    0.00057870  43 t-inv F
  0.000000  0.333333 -0.166667    0.00057870  43 t-inv F
 -0.333333  0.000000 -0.166667    0.00057870  43 t-inv F
  0.333333  0.333333  0.166667    0.00057870  43 t-inv F
 -0.000000 -0.333333 -0.166667    0.00057870  43 t-inv F
 -0.333333  0.000000  0.166667    0.00057870  43 t-inv F
  0.333333  0.333333 -0.166667    0.00057870  43 t-inv F
 -0.000000 -0.333333  0.166667    0.00057870  43 t-inv F
 -0.416667 -0.416667 -0.166667    0.00057870  44 t-inv F
  0.000000  0.416667  0.166667    0.00057870  44 t-inv F
  0.416667 -0.000000 -0.166667    0.00057870  44 t-inv F
 -0.416667 -0.416667  0.166667    0.00057870  44 t-inv F
  0.000000  0.416667 -0.166667    0.00057870  44 t-inv F
 -0.416667  0.000000 -0.166667    0.00057870  44 t-inv F
  0.416667  0.416667  0.166667    0.00057870  44 t-inv F
 -0.000000 -0.416667 -0.166667    0.00057870  44 t-inv F
 -0.416667  0.000000  0.166667    0.00057870  44 t-inv F
  0.416667  0.416667 -0.166667    0.00057870  44 t-inv F
 -0.000000 -0.416667  0.166667    0.00057870  44 t-inv F
 -0.500000 -0.500000 -0.166667    0.00057870  45 t-inv F
  0.000000  0.500000  0.166667    0.00057870  45 t-inv F
  0.500000 -0.000000 -0.166667    0.00057870  45 t-inv F
 -0.500000 -0.500000  0.166667    0.00057870  45 t-inv F
  0.000000  0.500000 -0.166667    0.00057870  45 t-inv F
 -0.083333 -0.166667 -0.166667    0.00057870  46 t-inv F
 -0.083333  0.083333  0.166667    0.00057870  46 t-inv F
  0.166667  0.083333 -0.166667    0.00057870  46 t-inv F
 -0.083333 -0.166667  0.166667    0.00057870  46 t-inv F
 -0.083333  0.083333 -0.166667    0.00057870  46 t-inv F
  0.083333 -0.083333  0.166667    0.00057870  46 t-inv F
  0.083333  0.166667 -0.166667    0.00057870  46 t-inv F
 -0.166667 -0.083333  0.166667    0.00057870  46 t-inv F
  0.083333 -0.083333 -0.166667    0.00057870  46 t-inv F
  0.083333  0.166667  0.166667    0.00057870  46 t-inv F
 -0.166667 -0.083333 -0.166667    0.00057870  46 t-inv F
 -0.166667 -0.250000 -0.166667    0.00057870  47 t-inv F
 -0.083333  0.166667  0.166667    0.00057870  47 t-inv F
  0.250000  0.083333 -0.166667    0.00057870  47 t-inv F
 -0.166667 -0.250000  0.166667    0.00057870  47 t-inv F
 -0.083333  0.166667 -0.166667    0.00057870  47 t-inv F
  0.166667 -0.083333  0.166667    0.00057870  47 t-inv F
  0.083333  0.250000 -0.166667    0.00057870  47 t-inv F
 -0.250000 -0.166667  0.166667    0.00057870  47 t-inv F
  0.166667 -0.083333 -0.166667    0.00057870  47 t-inv F
  0.083333  0.250000  0.166667    0.00057870  47 t-inv F
 -0.250000 -0.166667 -0.166667    0.00057870  47 t-inv F
 -0.250000 -0.083333 -0.166667    0.00057870  47 t-inv F
  0.166667  0.250000  0.166667    0.00057870  47 t-inv F
  0.083333 -0.166667 -0.166667    0.00057870  47 t-inv F
 -0.250000 -0.083333  0.166667    0.00057870  47 t-inv F
  0.166667  0.250000 -0.166667    0.00057870  47 t-inv F
  0.083333 -0.166667  0.166667    0.00057870  47 t-inv F
 -0.166667  0.083333 -0.166667    0.00057870  47 t-inv F
 -0.083333 -0.250000  0.166667    0.00057870  47 t-inv F
  0.250000  0.166667 -0.166667    0.00057870  47 t-inv F
 -0.166667  0.083333  0.166667    0.00057870  47 t-inv F
 -0.083333 -0.250000 -0.166667    0.00057870  47 t-inv F
  0.250000  0.166667  0.166667    0.00057870  47 t-inv F
 -0.250000 -0.333333 -0.166667    0.00057870  48 t-inv F
 -0.083333  0.250000  0.166667    0.00057870  48 t-inv F
  0.333333  0.083333 -0.166667    0.00057870  48 t-inv F
 -0.250000 -0.333333  0.166667    0.00057870  48 t-inv F
 -0.083333  0.250000 -0.166667    0.00057870  48 t-inv F
  0.250000 -0.083333  0.166667    0.00057870  48 t-inv F
  0.083333  0.333333 -0.166667    0.00057870  48 t-inv F
 -0.333333 -0.250000  0.166667    0.00057870  48 t-inv F
  0.250000 -0.083333 -0.166667    0.00057870  48 t-inv F
  0.083333  0.333333  0.166667    0.00057870  48 t-inv F
 -0.333333 -0.250000 -0.166667    0.00057870  48 t-inv F
 -0.333333 -0.083333 -0.166667    0.00057870  48 t-inv F
  0.250000  0.333333  0.166667    0.00057870  48 t-inv F
  0.083333 -0.250000 -0.166667    0.00057870  48 t-inv F
 -0.333333 -0.083333  0.166667    0.00057870  48 t-inv F
  0.250000  0.333333 -0.166667    0.00057870  48 t-inv F
  0.083333 -0.250000  0.166667    0.00057870  48 t-inv F
 -0.250000  0.083333 -0.166667    0.00057870  48 t-inv F
 -0.083333 -0.333333  0.166667    0.00057870  48 t-inv F
  0.333333  0.250000 -0.166667    0.00057870  48 t-inv F
 -0.250000  0.083333  0.166667    0.00057870  48 t-inv F
 -0.083333 -0.333333 -0.166667    0.00057870  48 t-inv F
  0.333333  0.250000  0.166667    0.00057870  48 t-inv F
 -0.333333 -0.416667 -0.166667    0.00057870  49 t-inv F
 -0.083333  0.333333  0.166667    0.00057870  49 t-inv F
  0.416667  0.083333 -0.166667    0.00057870  49 t-inv F
 -0.333333 -0.416667  0.166667    0.00057870  49 t-inv F
 -0.083333  0.333333 -0.166667    0.00057870  49 t-inv F
  0.333333 -0.083333  0.166667    0.00057870  49 t-inv F
  0.083333  0.416667 -0.166667    0.00057870  49 t-inv F
 -0.416667 -0.333333  0.166667    0.00057870  49 t-inv F
  0.333333 -0.083333 -0.166667    0.00057870  49 t-inv F
  0.083333  0.416667  0.166667    0.00057870  49 t-inv F
 -0.416667 -0.333333 -0.166667    0.00057870  49 t-inv F
 -0.416667 -0.083333 -0.166667    0.00057870  49 t-inv F
  0.333333  0.416667  0.166667    0.00057870  49 t-inv F
  0.083333 -0.333333 -0.166667    0.00057870  49 t-inv F
 -0.416667 -0.083333  0.166667    0.00057870  49 t-inv F
  0.333333  0.416667 -0.166667    0.00057870  49 t-inv F
  0.083333 -0.333333  0.166667    0.00057870  49 t-inv F
 -0.333333  0.083333 -0.166667    0.00057870  49 t-inv F
 -0.083333 -0.416667  0.166667    0.00057870  49 t-inv F
  0.416667  0.333333 -0.166667    0.00057870  49 t-inv F
 -0.333333  0.083333  0.166667    0.00057870  49 t-inv F
 -0.083333 -0.416667 -0.166667    0.00057870  49 t-inv F
  0.416667  0.333333  0.166667    0.00057870  49 t-inv F
 -0.416667 -0.500000 -0.166667    0.00057870  50 t-inv F
 -0.083333  0.416667  0.166667    0.00057870  50 t-inv F
  0.500000  0.083333 -0.166667    0.00057870  50 t-inv F
 -0.416667 -0.500000  0.166667    0.00057870  50 t-inv F
 -0.083333  0.416667 -0.166667    0.00057870  50 t-inv F
  0.416667 -0.083333  0.166667    0.00057870  50 t-inv F
  0.083333  0.500000 -0.166667    0.00057870  50 t-inv F
 -0.500000 -0.416667  0.166667    0.00057870  50 t-inv F
  0.416667 -0.083333 -0.166667    0.00057870  50 t-inv F
  0.083333  0.500000  0.166667    0.00057870  50 t-inv F
 -0.500000 -0.416667 -0.166667    0.00057870  50 t-inv F
 -0.500000 -0.083333 -0.166667    0.00057870  50 t-inv F
  0.416667  0.500000  0.166667    0.00057870  50 t-inv F
  0.083333 -0.416667 -0.166667    0.00057870  50 t-inv F
 -0.500000 -0.083333  0.166667    0.00057870  50 t-inv F
  0.416667  0.500000 -0.166667    0.00057870  50 t-inv F
  0.083333 -0.416667  0.166667    0.00057870  50 t-inv F
 -0.416667  0.083333 -0.166667    0.00057870  50 t-inv F
 -0.083333 -0.500000  0.166667    0.00057870  50 t-inv F
  0.500000  0.416667 -0.166667    0.00057870  50 t-inv F
 -0.416667  0.083333  0.166667    0.00057870  50 t-inv F
 -0.083333 -0.500000 -0.166667    0.00057870  50 t-inv F
  0.500000  0.416667  0.166667    0.00057870  50 t-inv F
 -0.166667 -0.333333 -0.166667    0.00057870  51 t-inv F
 -0.166667  0.166667  0.166667    0.00057870  51 t-inv F
  0.333333  0.166667 -0.166667    0.00057870  51 t-inv F
 -0.166667 -0.333333  0.166667    0.00057870  51 t-inv F
 -0.166667  0.166667 -0.166667    0.00057870  51 t-inv F
  0.166667 -0.166667  0.166667    0.00057870  51 t-inv F
  0.166667  0.333333 -0.166667    0.00057870  51 t-inv F
 -0.333333 -0.166667  0.166667    0.00057870  51 t-inv F
  0.166667 -0.166667 -0.166667    0.00057870  51 t-inv F
  0.166667  0.333333  0.166667    0.00057870  51 t-inv F
 -0.333333 -0.166667 -0.166667    0.00057870  51 t-inv F
 -0.250000 -0.416667 -0.166667    0.00057870  52 t-inv F
 -0.166667  0.250000  0.166667    0.00057870  52 t-inv F
  0.416667  0.166667 -0.166667    0.00057870  52 t-inv F
 -0.250000 -0.416667  0.166667    0.00057870  52 t-inv F
 -0.166667  0.250000 -0.166667    0.00057870  52 t-inv F
  0.250000 -0.166667  0.166667    0.00057870  52 t-inv F
  0.166667  0.416667 -0.166667    0.00057870  52 t-inv F
 -0.416667 -0.250000  0.166667    0.00057870  52 t-inv F
  0.250000 -0.166667 -0.166667    0.00057870  52 t-inv F
  0.166667  0.416667  0.166667    0.00057870  52 t-inv F
 -0.416667 -0.250000 -0.166667    0.00057870  52 t-inv F
 -0.416667 -0.166667 -0.166667    0.00057870  52 t-inv F
  0.250000  0.416667  0.166667    0.00057870  52 t-inv F
  0.166667 -0.250000 -0.166667    0.00057870  52 t-inv F
 -0.416667 -0.166667  0.166667    0.00057870  52 t-inv F
  0.250000  0.416667 -0.166667    0.00057870  52 t-inv F
  0.166667 -0.250000  0.166667    0.00057870  52 t-inv F
 -0.250000  0.166667 -0.166667    0.00057870  52 t-inv F
 -0.166667 -0.416667  0.166667    0.00057870  52 t-inv F
  0.416667  0.250000 -0.166667    0.00057870  52 t-inv F
 -0.250000  0.166667  0.166667    0.00057870  52 t-inv F
 -0.166667 -0.416667 -0.166667    0.00057870  52 t-inv F
  0.416667  0.250000  0.166667    0.00057870  52 t-inv F
 -0.333333 -0.500000 -0.166667    0.00057870  53 t-inv F
 -0.166667  0.333333  0.166667    0.00057870  53 t-inv F
  0.500000  0.166667 -0.166667    0.00057870  53 t-inv F
 -0.333333 -0.500000  0.166667    0.00057870  53 t-inv F
 -0.166667  0.333333 -0.166667    0.00057870  53 t-inv F
  0.333333 -0.166667  0.166667    0.00057870  53 t-inv F
  0.166667  0.500000 -0.166667    0.00057870  53 t-inv F
 -0.500000 -0.333333  0.166667    0.00057870  53 t-inv F
  0.333333 -0.166667 -0.166667    0.00057870  53 t-inv F
  0.166667  0.500000  0.166667    0.00057870  53 t-inv F
 -0.500000 -0.333333 -0.166667    0.00057870  53 t-inv F
 -0.500000 -0.166667 -0.166667    0.00057870  53 t-inv F
  0.333333  0.500000  0.166667    0.00057870  53 t-inv F
  0.166667 -0.333333 -0.166667    0.00057870  53 t-inv F
 -0.500000 -0.166667  0.166667    0.00057870  53 t-inv F
  0.333333  0.500000 -0.166667    0.00057870  53 t-inv F
  0.166667 -0.333333  0.166667    0.00057870  53 t-inv F
 -0.333333  0.166667 -0.166667    0.00057870  53 t-inv F
 -0.166667 -0.500000  0.166667    0.00057870  53 t-inv F
  0.500000  0.333333 -0.166667    0.00057870  53 t-inv F
 -0.333333  0.166667  0.166667    0.00057870  53 t-inv F
 -0.166667 -0.500000 -0.166667    0.00057870  53 t-inv F
  0.500000  0.333333  0.166667    0.00057870  53 t-inv F
  0.583333  0.416667 -0.166667    0.00057870  54 t-inv F
 -0.166667 -0.583333  0.166667    0.00057870  54 t-inv F
 -0.416667  0.166667 -0.166667    0.00057870  54 t-inv F
  0.583333  0.416667  0.166667    0.00057870  54 t-inv F
 -0.166667 -0.583333 -0.166667    0.00057870  54 t-inv F
 -0.583333 -0.166667  0.166667    0.00057870  54 t-inv F
  0.166667 -0.416667 -0.166667    0.00057870  54 t-inv F
  0.416667  0.583333  0.166667    0.00057870  54 t-inv F
 -0.583333 -0.166667 -0.166667    0.00057870  54 t-inv F
  0.166667 -0.416667  0.166667    0.00057870  54 t-inv F
  0.416667  0.583333 -0.166667    0.00057870  54 t-inv F
 -0.250000 -0.500000 -0.166667    0.00057870  55 t-inv F
 -0.250000  0.250000  0.166667    0.00057870  55 t-inv F
  0.500000  0.250000 -0.166667    0.00057870  55 t-inv F
 -0.250000 -0.500000  0.166667    0.00057870  55 t-inv F
 -0.250000  0.250000 -0.166667    0.00057870  55 t-inv F
  0.250000 -0.250000  0.166667    0.00057870  55 t-inv F
  0.250000  0.500000 -0.166667    0.00057870  55 t-inv F
 -0.500000 -0.250000  0.166667    0.00057870  55 t-inv F
  0.250000 -0.250000 -0.166667    0.00057870  55 t-inv F
  0.250000  0.500000  0.166667    0.00057870  55 t-inv F
 -0.500000 -0.250000 -0.166667    0.00057870  55 t-inv F
  0.666667  0.416667 -0.166667    0.00057870  56 t-inv F
 -0.250000 -0.666667  0.166667    0.00057870  56 t-inv F
 -0.416667  0.250000 -0.166667    0.00057870  56 t-inv F
  0.666667  0.416667  0.166667    0.00057870  56 t-inv F
 -0.250000 -0.666667 -0.166667    0.00057870  56 t-inv F
 -0.666667 -0.250000  0.166667    0.00057870  56 t-inv F
  0.250000 -0.416667 -0.166667    0.00057870  56 t-inv F
  0.416667  0.666667  0.166667    0.00057870  56 t-inv F
 -0.666667 -0.250000 -0.166667    0.00057870  56 t-inv F
  0.250000 -0.416667  0.166667    0.00057870  56 t-inv F
  0.416667  0.666667 -0.166667    0.00057870  56 t-inv F
  0.416667 -0.250000 -0.166667    0.00057870  56 t-inv F
 -0.666667 -0.416667  0.166667    0.00057870  56 t-inv F
  0.250000  0.666667 -0.166667    0.00057870  56 t-inv F
  0.416667 -0.250000  0.166667    0.00057870  56 t-inv F
 -0.666667 -0.416667 -0.166667    0.00057870  56 t-inv F
  0.250000  0.666667  0.166667    0.00057870  56 t-inv F
  0.666667  0.250000 -0.166667    0.00057870  56 t-inv F
 -0.250000  0.416667  0.166667    0.00057870  56 t-inv F
 -0.416667 -0.666667 -0.166667    0.00057870  56 t-inv F
  0.666667  0.250000  0.166667    0.00057870  56 t-inv F
 -0.250000  0.416667 -0.166667    0.00057870  56 t-inv F
 -0.416667 -0.666667  0.166667    0.00057870  56 t-inv F
  0.666667  0.333333 -0.166667    0.00057870  57 t-inv F
 -0.666667 -0.333333  0.166667    0.00057870  57 t-inv F
  0.333333 -0.333333 -0.166667    0.00057870  57 t-inv F
 -0.000000 -0.000000 -0.250000    0.00057870  58 t-inv F
 -0.083333 -0.083333 -0.250000    0.00057870  59 t-inv F
  0.000000  0.083333  0.250000    0.00057870  59 t-inv F
  0.083333 -0.000000 -0.250000    0.00057870  59 t-inv F
 -0.083333 -0.083333  0.250000    0.00057870  59 t-inv F
  0.000000  0.083333 -0.250000    0.00057870  59 t-inv F
 -0.083333  0.000000 -0.250000    0.00057870  59 t-inv F
  0.083333  0.083333  0.250000    0.00057870  59 t-inv F
 -0.000000 -0.083333 -0.250000    0.00057870  59 t-inv F
 -0.083333  0.000000  0.250000    0.00057870  59 t-inv F
  0.083333  0.083333 -0.250000    0.00057870  59 t-inv F
 -0.000000 -0.083333  0.250000    0.00057870  59 t-inv F
 -0.166667 -0.166667 -0.250000    0.00057870  60 t-inv F
 -0.000000  0.166667  0.250000    0.00057870  60 t-inv F
  0.166667  0.000000 -0.250000    0.00057870  60 t-inv F
 -0.166667 -0.166667  0.250000    0.00057870  60 t-inv F
 -0.000000  0.166667 -0.250000    0.00057870  60 t-inv F
 -0.166667 -0.000000 -0.250000    0.00057870  60 t-inv F
  0.166667  0.166667  0.250000    0.00057870  60 t-inv F
  0.000000 -0.166667 -0.250000    0.00057870  60 t-inv F
 -0.166667 -0.000000  0.250000    0.00057870  60 t-inv F
  0.166667  0.166667 -0.250000    0.00057870  60 t-inv F
  0.000000 -0.166667  0.250000    0.00057870  60 t-inv F
 -0.250000 -0.250000 -0.250000    0.00057870  61 t-inv F
  0.000000  0.250000  0.250000    0.00057870  61 t-inv F
  0.250000 -0.000000 -0.250000    0.00057870  61 t-inv F
 -0.250000 -0.250000  0.250000    0.00057870  61 t-inv F
  0.000000  0.250000 -0.250000    0.00057870  61 t-inv F
 -0.250000  0.000000 -0.250000    0.00057870  61 t-inv F
  0.250000  0.250000  0.250000    0.00057870  61 t-inv F
 -0.000000 -0.250000 -0.250000    0.00057870  61 t-inv F
 -0.250000  0.000000  0.250000    0.00057870  61 t-inv F
  0.250000  0.250000 -0.250000    0.00057870  61 t-inv F
 -0.000000 -0.250000  0.250000    0.00057870  61 t-inv F
 -0.333333 -0.333333 -0.250000    0.00057870  62 t-inv F
 -0.000000  0.333333  0.250000    0.00057870  62 t-inv F
  0.333333  0.000000 -0.250000    0.00057870  62 t-inv F
 -0.333333 -0.333333  0.250000    0.00057870  62 t-inv F
 -0.000000  0.333333 -0.250000    0.00057870  62 t-inv F
 -0.333333 -0.000000 -0.250000    0.00057870  62 t-inv F
  0.333333  0.333333  0.250000    0.00057870  62 t-inv F
  0.000000 -0.333333 -0.250000    0.00057870  62 t-inv F
 -0.333333 -0.000000  0.250000    0.00057870  62 t-inv F
  0.333333  0.333333 -0.250000    0.00057870  62 t-inv F
  0.000000 -0.333333  0.250000    0.00057870  62 t-inv F
 -0.416667 -0.416667 -0.250000    0.00057870  63 t-inv F
  0.000000  0.416667  0.250000    0.00057870  63 t-inv F
  0.416667 -0.000000 -0.250000    0.00057870  63 t-inv F
 -0.416667 -0.416667  0.250000    0.00057870  63 t-inv F
  0.000000  0.416667 -0.250000    0.00057870  63 t-inv F
 -0.416667  0.000000 -0.250000    0.00057870  63 t-inv F
  0.416667  0.416667  0.250000    0.00057870  63 t-inv F
 -0.000000 -0.416667 -0.250000    0.00057870  63 t-inv F
 -0.416667  0.000000  0.250000    0.00057870  63 t-inv F
  0.416667  0.416667 -0.250000    0.00057870  63 t-inv F
 -0.000000 -0.416667  0.250000    0.00057870  63 t-inv F
 -0.500000 -0.500000 -0.250000    0.00057870  64 t-inv F
  0.000000  0.500000  0.250000    0.00057870  64 t-inv F
  0.500000 -0.000000 -0.250000    0.00057870  64 t-inv F
 -0.500000 -0.500000  0.250000    0.00057870  64 t-inv F
  0.000000  0.500000 -0.250000    0.00057870  64 t-inv F
 -0.083333 -0.166667 -0.250000    0.00057870  65 t-inv F
 -0.083333  0.083333  0.250000    0.00057870  65 t-inv F
  0.166667  0.083333 -0.250000    0.00057870  65 t-inv F
 -0.083333 -0.166667  0.250000    0.00057870  65 t-inv F
 -0.083333  0.083333 -0.250000    0.00057870  65 t-inv F
  0.083333 -0.083333  0.250000    0.00057870  65 t-inv F
  0.083333  0.166667 -0.250000    0.00057870  65 t-inv F
 -0.166667 -0.083333  0.250000    0.00057870  65 t-inv F
  0.083333 -0.083333 -0.250000    0.00057870  65 t-inv F
  0.083333  0.166667  0.250000    0.00057870  65 t-inv F
 -0.166667 -0.083333 -0.250000    0.00057870  65 t-inv F
 -0.166667 -0.250000 -0.250000    0.00057870  66 t-inv F
 -0.083333  0.166667  0.250000    0.00057870  66 t-inv F
  0.250000  0.083333 -0.250000    0.00057870  66 t-inv F
 -0.166667 -0.250000  0.250000    0.00057870  66 t-inv F
 -0.083333  0.166667 -0.250000    0.00057870  66 t-inv F
  0.166667 -0.083333  0.250000    0.00057870  66 t-inv F
  0.083333  0.250000 -0.250000    0.00057870  66 t-inv F
 -0.250000 -0.166667  0.250000    0.00057870  66 t-inv F
  0.166667 -0.083333 -0.250000    0.00057870  66 t-inv F
  0.083333  0.250000  0.250000    0.00057870  66 t-inv F
 -0.250000 -0.166667 -0.250000    0.00057870  66 t-inv F
 -0.250000 -0.083333 -0.250000    0.00057870  66 t-inv F
  0.166667  0.250000  0.250000    0.00057870  66 t-inv F
  0.083333 -0.166667 -0.250000    0.00057870  66 t-inv F
 -0.250000 -0.083333  0.250000    0.00057870  66 t-inv F
  0.166667  0.250000 -0.250000    0.00057870  66 t-inv F
  0.083333 -0.166667  0.250000    0.00057870  66 t-inv F
 -0.166667  0.083333 -0.250000    0.00057870  66 t-inv F
 -0.083333 -0.250000  0.250000    0.00057870  66 t-inv F
  0.250000  0.166667 -0.250000    0.00057870  66 t-inv F
 -0.166667  0.083333  0.250000    0.00057870  66 t-inv F
 -0.083333 -0.250000 -0.250000    0.00057870  66 t-inv F
  0.250000  0.166667  0.250000    0.00057870  66 t-inv F
 -0.250000 -0.333333 -0.250000    0.00057870  67 t-inv F
 -0.083333  0.250000  0.250000    0.00057870  67 t-inv F
  0.333333  0.083333 -0.250000    0.00057870  67 t-inv F
 -0.250000 -0.333333  0.250000    0.00057870  67 t-inv F
 -0.083333  0.250000 -0.250000    0.00057870  67 t-inv F
  0.250000 -0.083333  0.250000    0.00057870  67 t-inv F
  0.083333  0.333333 -0.250000    0.00057870  67 t-inv F
 -0.333333 -0.250000  0.250000    0.00057870  67 t-inv F
  0.250000 -0.083333 -0.250000    0.00057870  67 t-inv F
  0.083333  0.333333  0.250000    0.00057870  67 t-inv F
 -0.333333 -0.250000 -0.250000    0.00057870  67 t-inv F
 -0.333333 -0.083333 -0.250000    0.00057870  67 t-inv F
  0.250000  0.333333  0.250000    0.00057870  67 t-inv F
  0.083333 -0.250000 -0.250000    0.00057870  67 t-inv F
 -0.333333 -0.083333  0.250000    0.00057870  67 t-inv F
  0.250000  0.333333 -0.250000    0.00057870  67 t-inv F
  0.083333 -0.250000  0.250000    0.00057870  67 t-inv F
 -0.250000  0.083333 -0.250000    0.00057870  67 t-inv F
 -0.083333 -0.333333  0.250000    0.00057870  67 t-inv F
  0.333333  0.250000 -0.250000    0.00057870  67 t-inv F
 -0.250000  0.083333  0.250000    0.00057870  67 t-inv F
 -0.083333 -0.333333 -0.250000    0.00057870  67 t-inv F
  0.333333  0.250000  0.250000    0.00057870  67 t-inv F
 -0.333333 -0.416667 -0.250000    0.00057870  68 t-inv F
 -0.083333  0.333333  0.250000    0.00057870  68 t-inv F
  0.416667  0.083333 -0.250000    0.00057870  68 t-inv F
 -0.333333 -0.416667  0.250000    0.00057870  68 t-inv F
 -0.083333  0.333333 -0.250000    0.00057870  68 t-inv F
  0.333333 -0.083333  0.250000    0.00057870  68 t-inv F
  0.083333  0.416667 -0.250000    0.00057870  68 t-inv F
 -0.416667 -0.333333  0.250000    0.00057870  68 t-inv F
  0.333333 -0.083333 -0.250000    0.00057870  68 t-inv F
  0.083333  0.416667  0.250000    0.00057870  68 t-inv F
 -0.416667 -0.333333 -0.250000    0.00057870  68 t-inv F
 -0.416667 -0.083333 -0.250000    0.00057870  68 t-inv F
  0.333333  0.416667  0.250000    0.00057870  68 t-inv F
  0.083333 -0.333333 -0.250000    0.00057870  68 t-inv F
 -0.416667 -0.083333  0.250000    0.00057870  68 t-inv F
  0.333333  0.416667 -0.250000    0.00057870  68 t-inv F
  0.083333 -0.333333  0.250000    0.00057870  68 t-inv F
 -0.333333  0.083333 -0.250000    0.00057870  68 t-inv F
 -0.083333 -0.416667  0.250000    0.00057870  68 t-inv F
  0.416667  0.333333 -0.250000    0.00057870  68 t-inv F
 -0.333333  0.083333  0.250000    0.00057870  68 t-inv F
 -0.083333 -0.416667 -0.250000    0.00057870  68 t-inv F
  0.416667  0.333333  0.250000    0.00057870  68 t-inv F
 -0.416667 -0.500000 -0.250000    0.00057870  69 t-inv F
 -0.083333  0.416667  0.250000    0.00057870  69 t-inv F
  0.500000  0.083333 -0.250000    0.00057870  69 t-inv F
 -0.416667 -0.500000  0.250000    0.00057870  69 t-inv F
 -0.083333  0.416667 -0.250000    0.00057870  69 t-inv F
  0.416667 -0.083333  0.250000    0.00057870  69 t-inv F
  0.083333  0.500000 -0.250000    0.00057870  69 t-inv F
 -0.500000 -0.416667  0.250000    0.00057870  69 t-inv F
  0.416667 -0.083333 -0.250000    0.00057870  69 t-inv F
  0.083333  0.500000  0.250000    0.00057870  69 t-inv F
 -0.500000 -0.416667 -0.250000    0.00057870  69 t-inv F
 -0.500000 -0.083333 -0.250000    0.00057870  69 t-inv F
  0.416667  0.500000  0.250000    0.00057870  69 t-inv F
  0.083333 -0.416667 -0.250000    0.00057870  69 t-inv F
 -0.500000 -0.083333  0.250000    0.00057870  69 t-inv F
  0.416667  0.500000 -0.250000    0.00057870  69 t-inv F
  0.083333 -0.416667  0.250000    0.00057870  69 t-inv F
 -0.416667  0.083333 -0.250000    0.00057870  69 t-inv F
 -0.083333 -0.500000  0.250000    0.00057870  69 t-inv F
  0.500000  0.416667 -0.250000    0.00057870  69 t-inv F
 -0.416667  0.083333  0.250000    0.00057870  69 t-inv F
 -0.083333 -0.500000 -0.250000    0.00057870  69 t-inv F
  0.500000  0.416667  0.250000    0.00057870  69 t-inv F
 -0.166667 -0.333333 -0.250000    0.00057870  70 t-inv F
 -0.166667  0.166667  0.250000    0.00057870  70 t-inv F
  0.333333  0.166667 -0.250000    0.00057870  70 t-inv F
 -0.166667 -0.333333  0.250000    0.00057870  70 t-inv F
 -0.166667  0.166667 -0.250000    0.00057870  70 t-inv F
  0.166667 -0.166667  0.250000    0.00057870  70 t-inv F
  0.166667  0.333333 -0.250000    0.00057870  70 t-inv F
 -0.333333 -0.166667  0.250000    0.00057870  70 t-inv F
  0.166667 -0.166667 -0.250000    0.00057870  70 t-inv F
  0.166667  0.333333  0.250000    0.00057870  70 t-inv F
 -0.333333 -0.166667 -0.250000    0.00057870  70 t-inv F
 -0.250000 -0.416667 -0.250000    0.00057870  71 t-inv F
 -0.166667  0.250000  0.250000    0.00057870  71 t-inv F
  0.416667  0.166667 -0.250000    0.00057870  71 t-inv F
 -0.250000 -0.416667  0.250000    0.00057870  71 t-inv F
 -0.166667  0.250000 -0.250000    0.00057870  71 t-inv F
  0.250000 -0.166667  0.250000    0.00057870  71 t-inv F
[...]
     40      37.8905      0.00000
     41      39.0334      0.00000
     42      39.0334      0.00000
     43      41.2705      0.00000
     44      41.2705      0.00000
     45      44.4855      0.00000
     46      44.4855      0.00000
     47      44.8098      0.00000
     48      44.8098      0.00000

 k-point   128 :       0.4167    0.1667    0.5000
  band No.  band energies     occupation 
      1     -39.8193      2.00000
      2     -39.8193      2.00000
      3     -18.2407      2.00000
      4     -18.2406      2.00000
      5     -17.8257      2.00000
      6     -17.8257      2.00000
      7     -17.6785      2.00000
      8     -17.6785      2.00000
      9       6.4976      2.00000
     10       6.4976      2.00000
     11       8.2091      2.00000
     12       8.2092      2.00000
     13       8.9753      0.02357
     14       8.9753      0.02357
     15      10.7447      0.00000
     16      10.7447      0.00000
     17      13.5045      0.00000
     18      13.5045      0.00000
     19      13.9148      0.00000
     20      13.9148      0.00000
     21      19.9304      0.00000
     22      19.9304      0.00000
     23      21.5794      0.00000
     24      21.5794      0.00000
     25      22.0759      0.00000
     26      22.0759      0.00000
     27      26.0941      0.00000
     28      26.0941      0.00000
     29      28.0122      0.00000
     30      28.0122      0.00000
     31      29.4985      0.00000
     32      29.4985      0.00000
     33      31.5717      0.00000
     34      31.5717      0.00000
     35      34.5360      0.00000
     36      34.5360      0.00000
     37      35.3365      0.00000
     38      35.3366      0.00000
     39      37.8517      0.00000
     40      37.8517      0.00000
     41      39.7861      0.00000
     42      39.7861      0.00000
     43      40.9810      0.00000
     44      40.9810      0.00000
     45      43.6290      0.00000
     46      43.6290      0.00000
     47      44.5976      0.00000
     48      44.5976      0.00000

 k-point   129 :       0.5000    0.1667    0.5000
  band No.  band energies     occupation 
      1     -39.8060      2.00000
      2     -39.8060      2.00000
      3     -18.3028      2.00000
      4     -18.3028      2.00000
      5     -17.8724      2.00000
      6     -17.8724      2.00000
      7     -17.6800      2.00000
      8     -17.6800      2.00000
      9       6.5409      2.00000
     10       6.5409      2.00000
     11       8.1448      2.00000
     12       8.1449      2.00000
     13       9.1548      0.00000
     14       9.1548      0.00000
     15      10.9488      0.00000
     16      10.9488      0.00000
     17      13.5652      0.00000
     18      13.5652      0.00000
     19      14.8731      0.00000
     20      14.8731      0.00000
     21      18.8089      0.00000
     22      18.8089      0.00000
     23      20.9456      0.00000
     24      20.9456      0.00000
     25      22.0577      0.00000
     26      22.0577      0.00000
     27      26.0119      0.00000
     28      26.0119      0.00000
     29      28.0982      0.00000
     30      28.0982      0.00000
     31      29.5905      0.00000
     32      29.5905      0.00000
     33      32.9404      0.00000
     34      32.9404      0.00000
     35      34.5233      0.00000
     36      34.5233      0.00000
     37      35.9243      0.00000
     38      35.9243      0.00000
     39      37.3541      0.00000
     40      37.3541      0.00000
     41      39.6506      0.00000
     42      39.6506      0.00000
     43      41.1398      0.00000
     44      41.1398      0.00000
     45      42.4260      0.00000
     46      42.4260      0.00000
     47      44.9318      0.00000
     48      44.9318      0.00000

 k-point   130 :      -0.4167    0.1667    0.5000
  band No.  band energies     occupation 
      1     -39.8010      2.00000
      2     -39.8010      2.00000
      3     -18.3258      2.00000
      4     -18.3258      2.00000
      5     -17.8901      2.00000
      6     -17.8901      2.00000
      7     -17.6790      2.00000
      8     -17.6789      2.00000
      9       6.5393      2.00000
     10       6.5393      2.00000
     11       8.1074      2.00000
     12       8.1074      2.00000
     13       9.2011      0.00000
     14       9.2011      0.00000
     15      11.1864      0.00000
     16      11.1864      0.00000
     17      13.4816      0.00000
     18      13.4817      0.00000
     19      15.3992      0.00000
     20      15.3992      0.00000
     21      18.2450      0.00000
     22      18.2450      0.00000
     23      20.5794      0.00000
     24      20.5795      0.00000
     25      22.2303      0.00000
     26      22.2303      0.00000
     27      25.7004      0.00000
     28      25.7004      0.00000
     29      28.1765      0.00000
     30      28.1765      0.00000
     31      29.8518      0.00000
     32      29.8518      0.00000
     33      33.6186      0.00000
     34      33.6186      0.00000
     35      34.4578      0.00000
     36      34.4578      0.00000
     37      36.4676      0.00000
     38      36.4676      0.00000
     39      37.6017      0.00000
     40      37.6017      0.00000
     41      38.7974      0.00000
     42      38.7974      0.00000
     43      39.8190      0.00000
     44      39.8190      0.00000
     45      43.7690      0.00000
     46      43.7690      0.00000
     47      44.4462      0.00000
     48      44.4462      0.00000

 k-point   131 :       0.5000    0.2500    0.5000
  band No.  band energies     occupation 
      1     -39.8060      2.00000
      2     -39.8060      2.00000
      3     -18.2704      2.00000
      4     -18.2704      2.00000
      5     -17.9119      2.00000
      6     -17.9119      2.00000
      7     -17.6750      2.00000
      8     -17.6750      2.00000
      9       6.7782      2.00000
     10       6.7782      2.00000
     11       8.2459      2.00000
     12       8.2459      2.00000
     13       8.8191      1.96873
     14       8.8191      1.96871
     15      10.6825      0.00000
     16      10.6825      0.00000
     17      13.6316      0.00000
     18      13.6317      0.00000
     19      15.0182      0.00000
     20      15.0182      0.00000
     21      19.1867      0.00000
     22      19.1867      0.00000
     23      20.4923      0.00000
     24      20.4924      0.00000
     25      22.2641      0.00000
     26      22.2641      0.00000
     27      26.1420      0.00000
     28      26.1420      0.00000
     29      28.0611      0.00000
     30      28.0611      0.00000
     31      29.3362      0.00000
     32      29.3362      0.00000
     33      33.6415      0.00000
     34      33.6415      0.00000
     35      34.1294      0.00000
     36      34.1294      0.00000
     37      34.9863      0.00000
     38      34.9863      0.00000
     39      37.3974      0.00000
     40      37.3974      0.00000
     41      40.5881      0.00000
     42      40.5881      0.00000
     43      41.6918      0.00000
     44      41.6918      0.00000
     45      42.5069      0.00000
     46      42.5069      0.00000
     47      44.3838      0.00000
     48      44.3838      0.00000

 k-point   132 :      -0.4167    0.2500    0.5000
  band No.  band energies     occupation 
      1     -39.7983      2.00000
      2     -39.7983      2.00000
      3     -18.2766      2.00000
      4     -18.2766      2.00000
      5     -17.9752      2.00000
      6     -17.9752      2.00000
      7     -17.6704      2.00000
      8     -17.6704      2.00000
      9       6.9891      2.00000
     10       6.9891      2.00000
     11       8.0847      2.00000
     12       8.0847      2.00000
     13       8.8179      1.97137
     14       8.8179      1.97134
     15      10.8893      0.00000
     16      10.8893      0.00000
     17      13.4119      0.00000
     18      13.4119      0.00000
     19      16.0814      0.00000
     20      16.0814      0.00000
     21      18.4805      0.00000
     22      18.4805      0.00000
     23      19.6733      0.00000
     24      19.6734      0.00000
     25      22.9454      0.00000
     26      22.9454      0.00000
     27      25.6328      0.00000
     28      25.6328      0.00000
     29      27.4370      0.00000
     30      27.4370      0.00000
     31      30.3057      0.00000
     32      30.3057      0.00000
     33      33.1360      0.00000
     34      33.1360      0.00000
     35      34.6863      0.00000
     36      34.6864      0.00000
     37      36.4693      0.00000
     38      36.4693      0.00000
     39      37.8436      0.00000
     40      37.8436      0.00000
     41      39.5762      0.00000
     42      39.5762      0.00000
     43      40.4107      0.00000
     44      40.4107      0.00000
     45      42.7485      0.00000
     46      42.7485      0.00000
     47      43.7915      0.00000
     48      43.7915      0.00000

 k-point   133 :      -0.3333    0.3333    0.5000
  band No.  band energies     occupation 
      1     -39.7955      2.00000
      2     -39.7955      2.00000
      3     -18.2495      2.00000
      4     -18.2495      2.00000
      5     -18.0305      2.00000
      6     -18.0305      2.00000
      7     -17.6667      2.00000
      8     -17.6667      2.00000
      9       7.4715      2.00000
     10       7.4715      2.00000
     11       7.6286      2.00000
     12       7.6286      2.00000
     13       8.8430      1.86065
     14       8.8430      1.86055
     15      10.8886      0.00000
     16      10.8886      0.00000
     17      13.2458      0.00000
     18      13.2458      0.00000
     19      16.8310      0.00000
     20      16.8311      0.00000
     21      18.3192      0.00000
     22      18.3192      0.00000
     23      18.9956      0.00000
     24      18.9957      0.00000
     25      24.0201      0.00000
     26      24.0201      0.00000
     27      24.6687      0.00000
     28      24.6687      0.00000
     29      27.1428      0.00000
     30      27.1428      0.00000
     31      31.4224      0.00000
     32      31.4224      0.00000
     33      31.8473      0.00000
     34      31.8473      0.00000
     35      34.8824      0.00000
     36      34.8824      0.00000
     37      37.7954      0.00000
     38      37.7954      0.00000
     39      39.2537      0.00000
     40      39.2537      0.00000
     41      39.2773      0.00000
     42      39.2773      0.00000
     43      39.4526      0.00000
     44      39.4526      0.00000
     45      41.2635      0.00000
     46      41.2635      0.00000
     47      43.0190      0.00000
     48      43.0190      0.00000


--------------------------------------------------------------------------------------------------------


 soft charge-density along one line, spin component           1
         0         1         2         3         4         5         6         7         8         9
 total charge-density along one line
 
 pseudopotential strength for first ion, spin component:           1
 13.328 -25.927  -0.000   0.000  -0.000   0.000  -0.000   0.000
-25.927  13.694  -0.000   0.000  -0.000   0.000  -0.000   0.000
 -0.000  -0.000  -6.350  -0.000  -0.000   4.999   0.000   0.000
  0.000   0.000  -0.000  -6.361  -0.000   0.000   5.012   0.000
 -0.000  -0.000  -0.000  -0.000  -6.350   0.000   0.000   4.999
  0.000   0.000   4.999   0.000   0.000   8.430  -0.000  -0.000
 -0.000  -0.000   0.000   5.012   0.000  -0.000   8.421  -0.000
  0.000   0.000   0.000   0.000   4.999  -0.000  -0.000   8.430
 -0.000  -0.000  -0.000   0.000  -0.001   0.000  -0.000   0.000
 -0.000  -0.000  -0.000   0.000   0.000   0.000  -0.000  -0.000
 -0.006  -0.003   0.000  -0.000   0.000  -0.000   0.000  -0.000
 -0.000  -0.000   0.000   0.000   0.000  -0.000  -0.000  -0.000
 -0.000  -0.000  -0.001   0.000  -0.000   0.000  -0.000   0.000
 -0.000  -0.000  -0.000   0.000  -0.001   0.000  -0.000   0.000
 -0.000  -0.000  -0.000   0.000   0.000   0.000  -0.000  -0.000
 -0.008  -0.004   0.000  -0.000   0.000  -0.000   0.000  -0.000
 -0.000  -0.000   0.000   0.000   0.000  -0.000  -0.000  -0.000
 -0.000  -0.000  -0.001   0.000  -0.000   0.000  -0.000   0.000
 total augmentation occupancy for first ion, spin component:           1
  1.998  -0.029  -0.000  -0.000   0.000   0.000  -0.000   0.000   0.000   0.000  -0.011   0.000   0.000  -0.000  -0.000   0.010
 -0.029   1.446   0.000   0.000   0.000  -0.000   0.000   0.000  -0.000  -0.000   0.094  -0.000   0.000   0.000   0.000  -0.044
 -0.000   0.000   2.003   0.000   0.000  -0.028  -0.000  -0.000   0.000   0.000   0.000  -0.000  -0.023  -0.000  -0.000  -0.000
 -0.000   0.000   0.000   2.001   0.000  -0.000  -0.025  -0.000  -0.000   0.000  -0.000   0.000  -0.000   0.000   0.000   0.000
 -0.000   0.000   0.000   0.000   2.003  -0.000  -0.000  -0.028  -0.023  -0.000   0.000  -0.000  -0.000   0.006   0.000  -0.000
  0.000   0.000  -0.028  -0.000  -0.000   0.038   0.000   0.000  -0.000  -0.000  -0.000   0.000   0.058   0.000   0.000   0.000
 -0.000   0.000  -0.000  -0.025  -0.000   0.000   0.034   0.000   0.000  -0.000   0.000  -0.000   0.000  -0.000   0.000   0.000
  0.000   0.000  -0.000  -0.000  -0.028   0.000   0.000   0.038   0.058   0.000  -0.000   0.000   0.000  -0.025  -0.000   0.000
  0.000   0.000   0.000  -0.000  -0.023  -0.000   0.000   0.058   3.340   0.000  -0.000   0.000  -0.000  -1.643  -0.000   0.000
  0.000  -0.000   0.000   0.000  -0.000  -0.000  -0.000   0.000   0.000   2.944   0.000   0.000  -0.000  -0.000  -1.489  -0.000
 -0.011   0.094   0.000  -0.000   0.000  -0.000   0.000  -0.000  -0.000   0.000   3.522   0.000  -0.000   0.000  -0.000  -1.719
  0.000  -0.000  -0.000   0.000  -0.000   0.000   0.000   0.000   0.000   0.000   0.000   2.944   0.000  -0.000  -0.000  -0.000
  0.000   0.000  -0.023  -0.000  -0.000   0.058   0.000   0.000  -0.000  -0.000  -0.000   0.000   3.340   0.000   0.000   0.000
 -0.000   0.000  -0.000   0.000   0.006   0.000  -0.000  -0.025  -1.643  -0.000   0.000  -0.000  -0.000   0.820   0.000  -0.000
 -0.000   0.000  -0.000   0.000   0.000   0.000   0.000  -0.000  -0.000  -1.489  -0.000  -0.000   0.000   0.000   0.762   0.000
  0.010  -0.044  -0.000   0.000  -0.000   0.000   0.000   0.000   0.000  -0.000  -1.719  -0.000   0.000  -0.000   0.000   0.852
 -0.000   0.000   0.000  -0.000   0.000  -0.000   0.000  -0.000  -0.000  -0.000  -0.000  -1.489  -0.000   0.000   0.000   0.000
 -0.000  -0.000   0.006   0.000   0.000  -0.025  -0.000  -0.000   0.000   0.000   0.000  -0.000  -1.643  -0.000  -0.000  -0.000


------------------------ aborting loop because EDIFF is reached ----------------------------------------


    CHARGE:  cpu time      0.0075: real time      0.0075
    FORLOC:  cpu time      0.0001: real time      0.0001
    FORNL :  cpu time      0.0181: real time      0.0182
    STRESS:  cpu time      0.1919: real time      0.1919
    FORCOR:  cpu time      0.0018: real time      0.0019
    FORHAR:  cpu time      0.0005: real time      0.0005
    MIXING:  cpu time      0.0005: real time      0.0005
    OFIELD:  cpu time      0.0000: real time      0.0001

  FORCE on cell =-STRESS in cart. coord.  units (eV):
  Direction    XX          YY          ZZ          XY          YZ          ZX
  --------------------------------------------------------------------------------------
  Alpha Z   112.92540   112.92540   112.92540
  Ewald    -702.20970  -702.20970  -685.35888    -0.00000     0.00000     0.00000
  Hartree   141.06272   141.06272   148.24790    -0.00000     0.00000     0.00000
  E(xc)    -101.61444  -101.61443  -101.59305    -0.00000     0.00000     0.00000
  Local     113.42040   113.42053    91.86076    -0.00012     0.00002     0.00004
  n-local   -18.70904   -41.81413   -33.24295   -13.09870     0.74682    -0.41292
  augment     3.93769     3.93768     4.08895     0.00001     0.00000    -0.00000
  Kinetic   449.36423   475.54926   462.67594    14.51188    -0.82724    -0.25299
  Fock        0.00000     0.00000     0.00000     0.00000     0.00000     0.00000
  -------------------------------------------------------------------------------------
  Total      -0.28271    -0.28271    -0.39594    -0.00000    -0.00000    -0.00000
  in kB      -9.62422    -9.62422   -13.47896    -0.00000    -0.00000    -0.00000
  external pressure =      -10.91 kB  Pullay stress =        0.00 kB


 VOLUME and BASIS-vectors are now :
 -----------------------------------------------------------------------------
  energy-cutoff  :      298.87
  volume of cell :       47.06
      direct lattice vectors                 reciprocal lattice vectors
     3.236030000  0.000000000  0.000000000     0.309020621 -0.178413139  0.000000000
     1.618015000  2.802484187  0.000000000     0.000000000  0.356826277  0.000000000
     0.000000000  0.000000000  5.189530000    -0.000000000 -0.000000000  0.192695678

  length of vectors
     3.236030000  3.236030000  5.189530000     0.356826277  0.356826277  0.192695678


 FORCES acting on ions
    electron-ion (+dipol)            ewald-force                    non-local-force                 convergence-correction
 -----------------------------------------------------------------------------------------------
   0.120E-06 0.691E-07 0.673E-07   0.119E-11 0.673E-12 -.281E-13   -.188E-16 -.204E-16 0.617E-18   0.734E-07 0.424E-07 0.255E-13
   0.184E-07 0.106E-07 -.108E-06   -.120E-11 -.676E-12 0.282E-13   0.341E-16 0.232E-16 -.985E-18   -.734E-07 -.424E-07 -.317E-14
 -----------------------------------------------------------------------------------------------
   0.138E-06 0.797E-07 -.411E-07   -.733E-14 -.263E-14 0.209E-16   0.153E-16 0.281E-17 -.368E-18   -.446E-10 -.257E-10 0.224E-13
 
 
 POSITION                                       TOTAL-FORCE (eV/Angst)
 -----------------------------------------------------------------------------------
      0.00000      0.00000      0.00000         0.000000     -0.000000      0.000000
      1.61802      0.93416      2.59477        -0.000000      0.000000     -0.000000
 -----------------------------------------------------------------------------------
    total drift:                                0.000000      0.000000     -0.000000


--------------------------------------------------------------------------------------------------------



  FREE ENERGIE OF THE ION-ELECTRON SYSTEM (eV)
  ---------------------------------------------------
  free  energy   TOTEN  =       -17.02000436 eV

  energy  without entropy=      -17.01677253  energy(sigma->0) =      -17.01838845
 


--------------------------------------------------------------------------------------------------------


    POTLOK:  cpu time      0.0036: real time      0.0037


--------------------------------------------------------------------------------------------------------


 writing wavefunctions
     LOOP+:  cpu time     20.3431: real time     20.3683
    4ORBIT:  cpu time      0.0000: real time      0.0000

 total amount of memory used by VASP MPI-rank0    42734. kBytes
=======================================================================

   base      :      30000. kBytes
   nonl-proj :      11049. kBytes
   fftplans  :         70. kBytes
   grid      :        257. kBytes
   one-center:         31. kBytes
   wavefun   :       1327. kBytes
 
  
  
 General timing and accounting informations for this job:
 ========================================================
  
                  Total CPU time used (sec):       21.097
                            User time (sec):       20.701
                          System time (sec):        0.396
                         Elapsed time (sec):       21.402
  
                   Maximum memory used (kb):      224700.
                   Average memory used (kb):          N/A
  
                          Minor page faults:        22883
                          Major page faults:            0
                 Voluntary context switches:         3427
