 DBCSR| CPU Multiplication driver                                           BLAS (U)
 DBCSR| Multrec recursion limit                                              512 (U)
 DBCSR| Multiplication stack size                                           1000 (D)
 DBCSR| Maximum elements for images                                    UNLIMITED (U)
 DBCSR| Multiplicative factor virtual images                                   1 (U)
 DBCSR| Use multiplication densification                                       T (D)
 DBCSR| Multiplication size stacks                                             3 (U)
 DBCSR| Use memory pool for CPU allocation                                     F (U)
 DBCSR| Number of 3D layers                                               SINGLE (U)
 DBCSR| Use MPI memory allocation                                              F (U)
 DBCSR| Use RMA algorithm                                                      F (U)
 DBCSR| Use Communication thread                                               T (U)
 DBCSR| Communication thread load                                             45 (D)
 DBCSR| MPI: My process id                                                     0
 DBCSR| MPI: Number of processes                                               8
 DBCSR| OMP: Current number of threads                                        12
 DBCSR| OMP: Max number of threads                                            12
 DBCSR| Split modifier for TAS multiplication algorithm                  1.0E+00 (U)


  **** **** ******  **  PROGRAM STARTED AT               2025-08-05 00:41:17.310
 ***** ** ***  *** **   PROGRAM STARTED ON                          i05r09c02s10
 **    ****   ******    PROGRAM STARTED BY                               di38fab
 ***** **    ** ** **   PROGRAM PROCESS ID                               1978524
  **** **  *******  **  PROGRAM STARTED IN /hppfs/scratch/04/di38fab/09_GTH/Delt
                                           a_Set/N/aug-DZVP-MOLOPT-GTH-tier-2/8x
                                           8x8

 CP2K| version string:                 CP2K version 2025.1 (Development Version)
 CP2K| source code revision number:                                  git:3130539
 CP2K| cp2kflags: omp libint fftw3 libxc parallel scalapack max_contr=4         
 CP2K| is freely available from                            https://www.cp2k.org/
 CP2K| Program compiled at                         Tue Jun  3 16:14:32 CEST 2025
 CP2K| Program compiled on                                               login01
 CP2K| Program compiled for                                        Supermuc-foss
 CP2K| Data directory path                  /hppfs/work/pn36zo/di38fab/cp2k/data
 CP2K| Input file name                                                    GW.inp

 GLOBAL| Force Environment number                                              1
 GLOBAL| Basis set file name            /hppfs/scratch/04/di38fab/09_GTH/BASIS_A
 GLOBAL| Potential file name            /hppfs/work/pn36zo/di38fab/cp2k/data/GTH
 GLOBAL| MM Potential file name                                     MM_POTENTIAL
 GLOBAL| Coordinate file name                                              N.cif
 GLOBAL| Method name                                                        CP2K
 GLOBAL| Project name                                                       WSe2
 GLOBAL| Run type                                                         ENERGY
 GLOBAL| FFT library                                                       FFTW3
 GLOBAL| Diagonalization library                                       ScaLAPACK
 GLOBAL| Cholesky decomposition library                                ScaLAPACK
 GLOBAL| DGEMM library                                                      BLAS
 GLOBAL| Orthonormality check for eigenvectors                          DISABLED
 GLOBAL| Matrix multiplication library                                 ScaLAPACK
 GLOBAL| All-to-all communication in single precision                          F
 GLOBAL| FFTs using library dependent lengths                                  F
 GLOBAL| Grid backend                                                       AUTO
 GLOBAL| Global print level                                               MEDIUM
 GLOBAL| MPI I/O enabled                                                       T
 GLOBAL| Total number of message passing processes                             8
 GLOBAL| Number of threads for this process                                   12
 GLOBAL| This output is from process                                           0
 GLOBAL| OpenMP stack size per thread (OMP_STACKSIZE)                    default
 GLOBAL| CPU model name             Intel(R) Xeon(R) Platinum 8174 CPU @ 3.10GHz

 MEMORY| system memory details [Kb]
 MEMORY|                        rank 0           min           max       average
 MEMORY| MemTotal             98436664      98436660      98436664      98436662
 MEMORY| MemFree              86497056      86497056      86512964      86505010
 MEMORY| Buffers                     0             0             0             0
 MEMORY| Cached                2351532       2341928       2351532       2346730
 MEMORY| Slab                   967808        967808        989376        978592
 MEMORY| SReclaimable           213128        213128        220448        216788
 MEMORY| MemLikelyFree        89061716      89061716      89075340      89068528


 *** Fundamental physical constants (SI units) ***

 *** Literature: B. J. Mohr and B. N. Taylor,
 ***             CODATA recommended values of the fundamental physical
 ***             constants: 2006, Web Version 5.1
 ***             http://physics.nist.gov/constants

 Speed of light in vacuum [m/s]                             2.99792458000000E+08
 Magnetic constant or permeability of vacuum [N/A**2]       1.25663706143592E-06
 Electric constant or permittivity of vacuum [F/m]          8.85418781762039E-12
 Planck constant (h) [J*s]                                  6.62606896000000E-34
 Planck constant (h-bar) [J*s]                              1.05457162825177E-34
 Elementary charge [C]                                      1.60217648700000E-19
 Electron mass [kg]                                         9.10938215000000E-31
 Electron g factor [ ]                                     -2.00231930436220E+00
 Proton mass [kg]                                           1.67262163700000E-27
 Fine-structure constant                                    7.29735253760000E-03
 Rydberg constant [1/m]                                     1.09737315685270E+07
 Avogadro constant [1/mol]                                  6.02214179000000E+23
 Boltzmann constant [J/K]                                   1.38065040000000E-23
 Atomic mass unit [kg]                                      1.66053878200000E-27
 Bohr radius [m]                                            5.29177208590000E-11

 *** Conversion factors ***

 [u] -> [a.u.]                                              1.82288848426455E+03
 [Angstrom] -> [Bohr] = [a.u.]                              1.88972613288564E+00
 [a.u.] = [Bohr] -> [Angstrom]                              5.29177208590000E-01
 [a.u.] -> [s]                                              2.41888432650478E-17
 [a.u.] -> [fs]                                             2.41888432650478E-02
 [a.u.] -> [J]                                              4.35974393937059E-18
 [a.u.] -> [N]                                              8.23872205491840E-08
 [a.u.] -> [K]                                              3.15774647902944E+05
 [a.u.] -> [kJ/mol]                                         2.62549961709828E+03
 [a.u.] -> [kcal/mol]                                       6.27509468713739E+02
 [a.u.] -> [Pa]                                             2.94210107994716E+13
 [a.u.] -> [bar]                                            2.94210107994716E+08
 [a.u.] -> [atm]                                            2.90362800883016E+08
 [a.u.] -> [eV]                                             2.72113838565563E+01
 [a.u.] -> [Hz]                                             6.57968392072181E+15
 [a.u.] -> [1/cm] (wave numbers)                            2.19474631370540E+05
 [a.u./Bohr**2] -> [1/cm]                                   5.14048714338585E+03
 

 CELL_TOP| Volume [angstrom^3]:                                       237.198500
 CELL_TOP| Vector a [angstrom     6.190     0.000     0.000   |a| =     6.190190
 CELL_TOP| Vector b [angstrom     0.000     6.190     0.000   |b| =     6.190190
 CELL_TOP| Vector c [angstrom     0.000     0.000     6.190   |c| =     6.190190
 CELL_TOP| Angle (b,c), alpha [degree]:                                90.000000
 CELL_TOP| Angle (a,c), beta  [degree]:                                90.000000
 CELL_TOP| Angle (a,b), gamma [degree]:                                90.000000
 CELL_TOP| Numerically orthorhombic:                                         YES
 CELL_TOP| Periodicity                                                       XYZ

 CELL_CIF| Volume [angstrom^3]:                                       237.198500
 CELL_CIF| Vector a [angstrom     6.190     0.000     0.000   |a| =     6.190190
 CELL_CIF| Vector b [angstrom     0.000     6.190     0.000   |b| =     6.190190
 CELL_CIF| Vector c [angstrom     0.000     0.000     6.190   |c| =     6.190190
 CELL_CIF| Angle (b,c), alpha [degree]:                                90.000000
 CELL_CIF| Angle (a,c), beta  [degree]:                                90.000000
 CELL_CIF| Angle (a,b), gamma [degree]:                                90.000000
 CELL_CIF| Numerically orthorhombic:                                         YES
 CELL_CIF| Periodicity                                                       XYZ

 GENERATE|  Preliminary Number of Bonds generated:                             0
 GENERATE|  Achieved consistency in connectivity generation.

 CELL| Volume [angstrom^3]:                                           237.198500
 CELL| Vector a [angstrom]:       6.190     0.000     0.000   |a| =     6.190190
 CELL| Vector b [angstrom]:       0.000     6.190     0.000   |b| =     6.190190
 CELL| Vector c [angstrom]:       0.000     0.000     6.190   |c| =     6.190190
 CELL| Angle (b,c), alpha [degree]:                                    90.000000
 CELL| Angle (a,c), beta  [degree]:                                    90.000000
 CELL| Angle (a,b), gamma [degree]:                                    90.000000
 CELL| Numerically orthorhombic:                                             YES
 CELL| Periodicity                                                           XYZ

 CELL_REF| Volume [angstrom^3]:                                       237.198500
 CELL_REF| Vector a [angstrom     6.190     0.000     0.000   |a| =     6.190190
 CELL_REF| Vector b [angstrom     0.000     6.190     0.000   |b| =     6.190190
 CELL_REF| Vector c [angstrom     0.000     0.000     6.190   |c| =     6.190190
 CELL_REF| Angle (b,c), alpha [degree]:                                90.000000
 CELL_REF| Angle (a,c), beta  [degree]:                                90.000000
 CELL_REF| Angle (a,b), gamma [degree]:                                90.000000
 CELL_REF| Numerically orthorhombic:                                         YES
 CELL_REF| Periodicity                                                       XYZ

 *** WARNING in cryssym.F:180 :: Symmetry library SPGLIB not available ***


 *******************************************************************************
                                    Kpoints
 *******************************************************************************
 BRILLOUIN| K-point scheme                                        Monkhorst-Pack
 BRILLOUIN| K-Point grid                                             8    8    8
 BRILLOUIN| Accuracy in Symmetry determination                      0.100000E-05
 BRILLOUIN| K-Point point group symmetrization                               OFF
 BRILLOUIN| Wavefunction type                                            COMPLEX
 BRILLOUIN| List of Kpoints [2 Pi/Bohr]                                      256
 BRILLOUIN| Number           Weight            X              Y              Z
 BRILLOUIN|     1           0.00391       -0.43750       -0.43750       -0.43750
 BRILLOUIN|     2           0.00391       -0.43750       -0.43750       -0.31250
 BRILLOUIN|     3           0.00391       -0.43750       -0.43750       -0.18750
 BRILLOUIN|     4           0.00391       -0.43750       -0.43750       -0.06250
 BRILLOUIN|     5           0.00391       -0.43750       -0.43750        0.06250
 BRILLOUIN|     6           0.00391       -0.43750       -0.43750        0.18750
 BRILLOUIN|     7           0.00391       -0.43750       -0.43750        0.31250
 BRILLOUIN|     8           0.00391       -0.43750       -0.43750        0.43750
 BRILLOUIN|     9           0.00391       -0.43750       -0.31250       -0.43750
 BRILLOUIN|    10           0.00391       -0.43750       -0.31250       -0.31250
 BRILLOUIN|    11           0.00391       -0.43750       -0.31250       -0.18750
 BRILLOUIN|    12           0.00391       -0.43750       -0.31250       -0.06250
 BRILLOUIN|    13           0.00391       -0.43750       -0.31250        0.06250
 BRILLOUIN|    14           0.00391       -0.43750       -0.31250        0.18750
 BRILLOUIN|    15           0.00391       -0.43750       -0.31250        0.31250
 BRILLOUIN|    16           0.00391       -0.43750       -0.31250        0.43750
 BRILLOUIN|    17           0.00391       -0.43750       -0.18750       -0.43750
 BRILLOUIN|    18           0.00391       -0.43750       -0.18750       -0.31250
 BRILLOUIN|    19           0.00391       -0.43750       -0.18750       -0.18750
 BRILLOUIN|    20           0.00391       -0.43750       -0.18750       -0.06250
 BRILLOUIN|    21           0.00391       -0.43750       -0.18750        0.06250
 BRILLOUIN|    22           0.00391       -0.43750       -0.18750        0.18750
 BRILLOUIN|    23           0.00391       -0.43750       -0.18750        0.31250
 BRILLOUIN|    24           0.00391       -0.43750       -0.18750        0.43750
 BRILLOUIN|    25           0.00391       -0.43750       -0.06250       -0.43750
 BRILLOUIN|    26           0.00391       -0.43750       -0.06250       -0.31250
 BRILLOUIN|    27           0.00391       -0.43750       -0.06250       -0.18750
 BRILLOUIN|    28           0.00391       -0.43750       -0.06250       -0.06250
 BRILLOUIN|    29           0.00391       -0.43750       -0.06250        0.06250
 BRILLOUIN|    30           0.00391       -0.43750       -0.06250        0.18750
 BRILLOUIN|    31           0.00391       -0.43750       -0.06250        0.31250
 BRILLOUIN|    32           0.00391       -0.43750       -0.06250        0.43750
 BRILLOUIN|    33           0.00391       -0.43750        0.06250       -0.43750
 BRILLOUIN|    34           0.00391       -0.43750        0.06250       -0.31250
 BRILLOUIN|    35           0.00391       -0.43750        0.06250       -0.18750
 BRILLOUIN|    36           0.00391       -0.43750        0.06250       -0.06250
 BRILLOUIN|    37           0.00391       -0.43750        0.06250        0.06250
 BRILLOUIN|    38           0.00391       -0.43750        0.06250        0.18750
 BRILLOUIN|    39           0.00391       -0.43750        0.06250        0.31250
 BRILLOUIN|    40           0.00391       -0.43750        0.06250        0.43750
 BRILLOUIN|    41           0.00391       -0.43750        0.18750       -0.43750
 BRILLOUIN|    42           0.00391       -0.43750        0.18750       -0.31250
 BRILLOUIN|    43           0.00391       -0.43750        0.18750       -0.18750
 BRILLOUIN|    44           0.00391       -0.43750        0.18750       -0.06250
 BRILLOUIN|    45           0.00391       -0.43750        0.18750        0.06250
 BRILLOUIN|    46           0.00391       -0.43750        0.18750        0.18750
 BRILLOUIN|    47           0.00391       -0.43750        0.18750        0.31250
 BRILLOUIN|    48           0.00391       -0.43750        0.18750        0.43750
 BRILLOUIN|    49           0.00391       -0.43750        0.31250       -0.43750
 BRILLOUIN|    50           0.00391       -0.43750        0.31250       -0.31250
 BRILLOUIN|    51           0.00391       -0.43750        0.31250       -0.18750
 BRILLOUIN|    52           0.00391       -0.43750        0.31250       -0.06250
 BRILLOUIN|    53           0.00391       -0.43750        0.31250        0.06250
 BRILLOUIN|    54           0.00391       -0.43750        0.31250        0.18750
 BRILLOUIN|    55           0.00391       -0.43750        0.31250        0.31250
 BRILLOUIN|    56           0.00391       -0.43750        0.31250        0.43750
 BRILLOUIN|    57           0.00391       -0.43750        0.43750       -0.43750
 BRILLOUIN|    58           0.00391       -0.43750        0.43750       -0.31250
 BRILLOUIN|    59           0.00391       -0.43750        0.43750       -0.18750
 BRILLOUIN|    60           0.00391       -0.43750        0.43750       -0.06250
 BRILLOUIN|    61           0.00391       -0.43750        0.43750        0.06250
 BRILLOUIN|    62           0.00391       -0.43750        0.43750        0.18750
 BRILLOUIN|    63           0.00391       -0.43750        0.43750        0.31250
 BRILLOUIN|    64           0.00391       -0.43750        0.43750        0.43750
 BRILLOUIN|    65           0.00391       -0.31250       -0.43750       -0.43750
 BRILLOUIN|    66           0.00391       -0.31250       -0.43750       -0.31250
 BRILLOUIN|    67           0.00391       -0.31250       -0.43750       -0.18750
 BRILLOUIN|    68           0.00391       -0.31250       -0.43750       -0.06250
 BRILLOUIN|    69           0.00391       -0.31250       -0.43750        0.06250
 BRILLOUIN|    70           0.00391       -0.31250       -0.43750        0.18750
 BRILLOUIN|    71           0.00391       -0.31250       -0.43750        0.31250
 BRILLOUIN|    72           0.00391       -0.31250       -0.43750        0.43750
 BRILLOUIN|    73           0.00391       -0.31250       -0.31250       -0.43750
 BRILLOUIN|    74           0.00391       -0.31250       -0.31250       -0.31250
 BRILLOUIN|    75           0.00391       -0.31250       -0.31250       -0.18750
 BRILLOUIN|    76           0.00391       -0.31250       -0.31250       -0.06250
 BRILLOUIN|    77           0.00391       -0.31250       -0.31250        0.06250
 BRILLOUIN|    78           0.00391       -0.31250       -0.31250        0.18750
 BRILLOUIN|    79           0.00391       -0.31250       -0.31250        0.31250
 BRILLOUIN|    80           0.00391       -0.31250       -0.31250        0.43750
 BRILLOUIN|    81           0.00391       -0.31250       -0.18750       -0.43750
 BRILLOUIN|    82           0.00391       -0.31250       -0.18750       -0.31250
 BRILLOUIN|    83           0.00391       -0.31250       -0.18750       -0.18750
 BRILLOUIN|    84           0.00391       -0.31250       -0.18750       -0.06250
 BRILLOUIN|    85           0.00391       -0.31250       -0.18750        0.06250
 BRILLOUIN|    86           0.00391       -0.31250       -0.18750        0.18750
 BRILLOUIN|    87           0.00391       -0.31250       -0.18750        0.31250
 BRILLOUIN|    88           0.00391       -0.31250       -0.18750        0.43750
 BRILLOUIN|    89           0.00391       -0.31250       -0.06250       -0.43750
 BRILLOUIN|    90           0.00391       -0.31250       -0.06250       -0.31250
 BRILLOUIN|    91           0.00391       -0.31250       -0.06250       -0.18750
 BRILLOUIN|    92           0.00391       -0.31250       -0.06250       -0.06250
 BRILLOUIN|    93           0.00391       -0.31250       -0.06250        0.06250
 BRILLOUIN|    94           0.00391       -0.31250       -0.06250        0.18750
 BRILLOUIN|    95           0.00391       -0.31250       -0.06250        0.31250
 BRILLOUIN|    96           0.00391       -0.31250       -0.06250        0.43750
 BRILLOUIN|    97           0.00391       -0.31250        0.06250       -0.43750
 BRILLOUIN|    98           0.00391       -0.31250        0.06250       -0.31250
 BRILLOUIN|    99           0.00391       -0.31250        0.06250       -0.18750
 BRILLOUIN|   100           0.00391       -0.31250        0.06250       -0.06250
 BRILLOUIN|   101           0.00391       -0.31250        0.06250        0.06250
 BRILLOUIN|   102           0.00391       -0.31250        0.06250        0.18750
 BRILLOUIN|   103           0.00391       -0.31250        0.06250        0.31250
 BRILLOUIN|   104           0.00391       -0.31250        0.06250        0.43750
 BRILLOUIN|   105           0.00391       -0.31250        0.18750       -0.43750
 BRILLOUIN|   106           0.00391       -0.31250        0.18750       -0.31250
 BRILLOUIN|   107           0.00391       -0.31250        0.18750       -0.18750
 BRILLOUIN|   108           0.00391       -0.31250        0.18750       -0.06250
 BRILLOUIN|   109           0.00391       -0.31250        0.18750        0.06250
 BRILLOUIN|   110           0.00391       -0.31250        0.18750        0.18750
 BRILLOUIN|   111           0.00391       -0.31250        0.18750        0.31250
 BRILLOUIN|   112           0.00391       -0.31250        0.18750        0.43750
 BRILLOUIN|   113           0.00391       -0.31250        0.31250       -0.43750
 BRILLOUIN|   114           0.00391       -0.31250        0.31250       -0.31250
 BRILLOUIN|   115           0.00391       -0.31250        0.31250       -0.18750
 BRILLOUIN|   116           0.00391       -0.31250        0.31250       -0.06250
 BRILLOUIN|   117           0.00391       -0.31250        0.31250        0.06250
 BRILLOUIN|   118           0.00391       -0.31250        0.31250        0.18750
 BRILLOUIN|   119           0.00391       -0.31250        0.31250        0.31250
 BRILLOUIN|   120           0.00391       -0.31250        0.31250        0.43750
 BRILLOUIN|   121           0.00391       -0.31250        0.43750       -0.43750
 BRILLOUIN|   122           0.00391       -0.31250        0.43750       -0.31250
 BRILLOUIN|   123           0.00391       -0.31250        0.43750       -0.18750
 BRILLOUIN|   124           0.00391       -0.31250        0.43750       -0.06250
 BRILLOUIN|   125           0.00391       -0.31250        0.43750        0.06250
 BRILLOUIN|   126           0.00391       -0.31250        0.43750        0.18750
 BRILLOUIN|   127           0.00391       -0.31250        0.43750        0.31250
 BRILLOUIN|   128           0.00391       -0.31250        0.43750        0.43750
 BRILLOUIN|   129           0.00391       -0.18750       -0.43750       -0.43750
 BRILLOUIN|   130           0.00391       -0.18750       -0.43750       -0.31250
 BRILLOUIN|   131           0.00391       -0.18750       -0.43750       -0.18750
 BRILLOUIN|   132           0.00391       -0.18750       -0.43750       -0.06250
 BRILLOUIN|   133           0.00391       -0.18750       -0.43750        0.06250
 BRILLOUIN|   134           0.00391       -0.18750       -0.43750        0.18750
 BRILLOUIN|   135           0.00391       -0.18750       -0.43750        0.31250
 BRILLOUIN|   136           0.00391       -0.18750       -0.43750        0.43750
 BRILLOUIN|   137           0.00391       -0.18750       -0.31250       -0.43750
 BRILLOUIN|   138           0.00391       -0.18750       -0.31250       -0.31250
 BRILLOUIN|   139           0.00391       -0.18750       -0.31250       -0.18750
 BRILLOUIN|   140           0.00391       -0.18750       -0.31250       -0.06250
 BRILLOUIN|   141           0.00391       -0.18750       -0.31250        0.06250
 BRILLOUIN|   142           0.00391       -0.18750       -0.31250        0.18750
 BRILLOUIN|   143           0.00391       -0.18750       -0.31250        0.31250
 BRILLOUIN|   144           0.00391       -0.18750       -0.31250        0.43750
 BRILLOUIN|   145           0.00391       -0.18750       -0.18750       -0.43750
 BRILLOUIN|   146           0.00391       -0.18750       -0.18750       -0.31250
 BRILLOUIN|   147           0.00391       -0.18750       -0.18750       -0.18750
 BRILLOUIN|   148           0.00391       -0.18750       -0.18750       -0.06250
 BRILLOUIN|   149           0.00391       -0.18750       -0.18750        0.06250
 BRILLOUIN|   150           0.00391       -0.18750       -0.18750        0.18750
 BRILLOUIN|   151           0.00391       -0.18750       -0.18750        0.31250
 BRILLOUIN|   152           0.00391       -0.18750       -0.18750        0.43750
 BRILLOUIN|   153           0.00391       -0.18750       -0.06250       -0.43750
 BRILLOUIN|   154           0.00391       -0.18750       -0.06250       -0.31250
 BRILLOUIN|   155           0.00391       -0.18750       -0.06250       -0.18750
 BRILLOUIN|   156           0.00391       -0.18750       -0.06250       -0.06250
 BRILLOUIN|   157           0.00391       -0.18750       -0.06250        0.06250
 BRILLOUIN|   158           0.00391       -0.18750       -0.06250        0.18750
 BRILLOUIN|   159           0.00391       -0.18750       -0.06250        0.31250
 BRILLOUIN|   160           0.00391       -0.18750       -0.06250        0.43750
 BRILLOUIN|   161           0.00391       -0.18750        0.06250       -0.43750
 BRILLOUIN|   162           0.00391       -0.18750        0.06250       -0.31250
 BRILLOUIN|   163           0.00391       -0.18750        0.06250       -0.18750
 BRILLOUIN|   164           0.00391       -0.18750        0.06250       -0.06250
 BRILLOUIN|   165           0.00391       -0.18750        0.06250        0.06250
 BRILLOUIN|   166           0.00391       -0.18750        0.06250        0.18750
 BRILLOUIN|   167           0.00391       -0.18750        0.06250        0.31250
 BRILLOUIN|   168           0.00391       -0.18750        0.06250        0.43750
 BRILLOUIN|   169           0.00391       -0.18750        0.18750       -0.43750
 BRILLOUIN|   170           0.00391       -0.18750        0.18750       -0.31250
 BRILLOUIN|   171           0.00391       -0.18750        0.18750       -0.18750
 BRILLOUIN|   172           0.00391       -0.18750        0.18750       -0.06250
 BRILLOUIN|   173           0.00391       -0.18750        0.18750        0.06250
 BRILLOUIN|   174           0.00391       -0.18750        0.18750        0.18750
 BRILLOUIN|   175           0.00391       -0.18750        0.18750        0.31250
 BRILLOUIN|   176           0.00391       -0.18750        0.18750        0.43750
 BRILLOUIN|   177           0.00391       -0.18750        0.31250       -0.43750
 BRILLOUIN|   178           0.00391       -0.18750        0.31250       -0.31250
 BRILLOUIN|   179           0.00391       -0.18750        0.31250       -0.18750
 BRILLOUIN|   180           0.00391       -0.18750        0.31250       -0.06250
 BRILLOUIN|   181           0.00391       -0.18750        0.31250        0.06250
 BRILLOUIN|   182           0.00391       -0.18750        0.31250        0.18750
 BRILLOUIN|   183           0.00391       -0.18750        0.31250        0.31250
 BRILLOUIN|   184           0.00391       -0.18750        0.31250        0.43750
 BRILLOUIN|   185           0.00391       -0.18750        0.43750       -0.43750
 BRILLOUIN|   186           0.00391       -0.18750        0.43750       -0.31250
 BRILLOUIN|   187           0.00391       -0.18750        0.43750       -0.18750
 BRILLOUIN|   188           0.00391       -0.18750        0.43750       -0.06250
 BRILLOUIN|   189           0.00391       -0.18750        0.43750        0.06250
 BRILLOUIN|   190           0.00391       -0.18750        0.43750        0.18750
 BRILLOUIN|   191           0.00391       -0.18750        0.43750        0.31250
 BRILLOUIN|   192           0.00391       -0.18750        0.43750        0.43750
 BRILLOUIN|   193           0.00391       -0.06250       -0.43750       -0.43750
 BRILLOUIN|   194           0.00391       -0.06250       -0.43750       -0.31250
 BRILLOUIN|   195           0.00391       -0.06250       -0.43750       -0.18750
 BRILLOUIN|   196           0.00391       -0.06250       -0.43750       -0.06250
 BRILLOUIN|   197           0.00391       -0.06250       -0.43750        0.06250
 BRILLOUIN|   198           0.00391       -0.06250       -0.43750        0.18750
 BRILLOUIN|   199           0.00391       -0.06250       -0.43750        0.31250
 BRILLOUIN|   200           0.00391       -0.06250       -0.43750        0.43750
 BRILLOUIN|   201           0.00391       -0.06250       -0.31250       -0.43750
 BRILLOUIN|   202           0.00391       -0.06250       -0.31250       -0.31250
 BRILLOUIN|   203           0.00391       -0.06250       -0.31250       -0.18750
 BRILLOUIN|   204           0.00391       -0.06250       -0.31250       -0.06250
 BRILLOUIN|   205           0.00391       -0.06250       -0.31250        0.06250
 BRILLOUIN|   206           0.00391       -0.06250       -0.31250        0.18750
 BRILLOUIN|   207           0.00391       -0.06250       -0.31250        0.31250
 BRILLOUIN|   208           0.00391       -0.06250       -0.31250        0.43750
 BRILLOUIN|   209           0.00391       -0.06250       -0.18750       -0.43750
 BRILLOUIN|   210           0.00391       -0.06250       -0.18750       -0.31250
 BRILLOUIN|   211           0.00391       -0.06250       -0.18750       -0.18750
 BRILLOUIN|   212           0.00391       -0.06250       -0.18750       -0.06250
 BRILLOUIN|   213           0.00391       -0.06250       -0.18750        0.06250
 BRILLOUIN|   214           0.00391       -0.06250       -0.18750        0.18750
 BRILLOUIN|   215           0.00391       -0.06250       -0.18750        0.31250
 BRILLOUIN|   216           0.00391       -0.06250       -0.18750        0.43750
 BRILLOUIN|   217           0.00391       -0.06250       -0.06250       -0.43750
 BRILLOUIN|   218           0.00391       -0.06250       -0.06250       -0.31250
 BRILLOUIN|   219           0.00391       -0.06250       -0.06250       -0.18750
 BRILLOUIN|   220           0.00391       -0.06250       -0.06250       -0.06250
 BRILLOUIN|   221           0.00391       -0.06250       -0.06250        0.06250
 BRILLOUIN|   222           0.00391       -0.06250       -0.06250        0.18750
 BRILLOUIN|   223           0.00391       -0.06250       -0.06250        0.31250
 BRILLOUIN|   224           0.00391       -0.06250       -0.06250        0.43750
 BRILLOUIN|   225           0.00391       -0.06250        0.06250       -0.43750
 BRILLOUIN|   226           0.00391       -0.06250        0.06250       -0.31250
 BRILLOUIN|   227           0.00391       -0.06250        0.06250       -0.18750
 BRILLOUIN|   228           0.00391       -0.06250        0.06250       -0.06250
 BRILLOUIN|   229           0.00391       -0.06250        0.06250        0.06250
 BRILLOUIN|   230           0.00391       -0.06250        0.06250        0.18750
 BRILLOUIN|   231           0.00391       -0.06250        0.06250        0.31250
 BRILLOUIN|   232           0.00391       -0.06250        0.06250        0.43750
 BRILLOUIN|   233           0.00391       -0.06250        0.18750       -0.43750
 BRILLOUIN|   234           0.00391       -0.06250        0.18750       -0.31250
 BRILLOUIN|   235           0.00391       -0.06250        0.18750       -0.18750
 BRILLOUIN|   236           0.00391       -0.06250        0.18750       -0.06250
 BRILLOUIN|   237           0.00391       -0.06250        0.18750        0.06250
 BRILLOUIN|   238           0.00391       -0.06250        0.18750        0.18750
 BRILLOUIN|   239           0.00391       -0.06250        0.18750        0.31250
 BRILLOUIN|   240           0.00391       -0.06250        0.18750        0.43750
 BRILLOUIN|   241           0.00391       -0.06250        0.31250       -0.43750
 BRILLOUIN|   242           0.00391       -0.06250        0.31250       -0.31250
 BRILLOUIN|   243           0.00391       -0.06250        0.31250       -0.18750
 BRILLOUIN|   244           0.00391       -0.06250        0.31250       -0.06250
 BRILLOUIN|   245           0.00391       -0.06250        0.31250        0.06250
 BRILLOUIN|   246           0.00391       -0.06250        0.31250        0.18750
 BRILLOUIN|   247           0.00391       -0.06250        0.31250        0.31250
 BRILLOUIN|   248           0.00391       -0.06250        0.31250        0.43750
 BRILLOUIN|   249           0.00391       -0.06250        0.43750       -0.43750
 BRILLOUIN|   250           0.00391       -0.06250        0.43750       -0.31250
 BRILLOUIN|   251           0.00391       -0.06250        0.43750       -0.18750
 BRILLOUIN|   252           0.00391       -0.06250        0.43750       -0.06250
 BRILLOUIN|   253           0.00391       -0.06250        0.43750        0.06250
 BRILLOUIN|   254           0.00391       -0.06250        0.43750        0.18750
 BRILLOUIN|   255           0.00391       -0.06250        0.43750        0.31250
 BRILLOUIN|   256           0.00391       -0.06250        0.43750        0.43750
 *******************************************************************************

 *******************************************************************************
 *******************************************************************************
 **                                                                           **
 **     #####                         ##              ##                      **
 **    ##   ##            ##          ##              ##                      **
 **   ##     ##                       ##            ######                    **
 **   ##     ##  ##   ##  ##   #####  ##  ##   ####   ##    #####    #####    **
 **   ##     ##  ##   ##  ##  ##      ## ##   ##      ##   ##   ##  ##   ##   **
 **   ##  ## ##  ##   ##  ##  ##      ####     ###    ##   ######   ######    **
 **    ##  ###   ##   ##  ##  ##      ## ##      ##   ##   ##       ##        **
 **     #######   #####   ##   #####  ##  ##  ####    ##    #####   ##        **
 **           ##                                                    ##        **
 **                                                                           **
 **                                                ... make the atoms dance   **
 **                                                                           **
 **            Copyright (C) by CP2K developers group (2000-2025)             **
 **                      J. Chem. Phys. 152, 194103 (2020)                    **
 **                                                                           **
 *******************************************************************************

 DFT| Spin restricted Kohn-Sham (RKS) calculation                            RKS
 DFT| Multiplicity                                                             1
 DFT| Number of spin states                                                    1
 DFT| Charge                                                                   0
 DFT| Self-interaction correction (SIC)                                       NO
 DFT| Cutoffs: density                                              1.000000E-10
 DFT|          gradient                                             1.000000E-10
 DFT|          tau                                                  1.000000E-10
 DFT|          cutoff_smoothing_range                               0.000000E+00
 DFT| XC density smoothing                                                  NONE
 DFT| XC derivatives                                                          PW

 FUNCTIONAL| PBE:
 FUNCTIONAL| J.P.Perdew, K.Burke, M.Ernzerhof, Phys. Rev. Letter, vol. 77, n 18,
 FUNCTIONAL|  pp. 3865-3868, (1996) {spin unpolarized}                          


 QS| Method:                                                                 GPW
 QS| Density plane wave grid type                        NON-SPHERICAL FULLSPACE
 QS| Number of grid levels:                                                    4
 QS| Density cutoff [a.u.]:                                                500.0
 QS| Multi grid cutoff [a.u.]: 1) grid level                               500.0
 QS|                           2) grid level                               166.7
 QS|                           3) grid level                                55.6
 QS|                           4) grid level                                18.5
 QS| Grid level progression factor:                                          3.0
 QS| Relative density cutoff [a.u.]:                                        50.0
 QS| Interaction thresholds: eps_pgf_orb:                                1.0E-16
 QS|                         eps_filter_matrix:                          0.0E+00
 QS|                         eps_core_charge:                            1.0E-18
 QS|                         eps_rho_gspace:                             1.0E-16
 QS|                         eps_rho_rspace:                             1.0E-16
 QS|                         eps_gvg_rspace:                             1.0E-08
 QS|                         eps_ppl:                                    1.0E-02
 QS|                         eps_ppnl:                                   1.0E-10


 ATOMIC KIND INFORMATION

  1. Atomic kind: N                                     Number of atoms:       8

     Orbital Basis Set                                aug-DZVP-MOLOPT-GTH-tier-2

       Number of orbital shell sets:                                           1
       Number of orbital shells:                                               9
       Number of primitive Cartesian functions:                                7
       Number of Cartesian basis functions:                                   34
       Number of spherical basis functions:                                   29
       Norm type:                                                              2

       Normalised Cartesian orbitals:

                        Set   Shell   Orbital            Exponent    Coefficient

                          1       1    2s                0.039194       0.000722
                                                         0.084583       0.003860
                                                         0.222851       0.088647
                                                         0.586631       0.295369
                                                         1.512880       0.102064
                                                         3.882225      -0.265910
                                                         9.042730      -0.237404

                          1       2    3s                0.039194       0.004207
                                                         0.084583       0.069169
                                                         0.222851       0.175857
                                                         0.586631      -0.328079
                                                         1.512880      -0.043896
                                                         3.882225       0.251432
                                                         9.042730       0.259152

                          1       3    4s                0.039194       0.012017
                                                         0.084583       0.064956
                                                         0.222851       0.028638
                                                         0.586631      -0.008799
                                                         1.512880       0.318864
                                                         3.882225       0.000000
                                                         9.042730       0.000000

                          1       4    3px               0.039194      -0.000005
                                                         0.084583       0.004155
                                                         0.222851       0.063706
                                                         0.586631       0.321705
                                                         1.512880       0.665657
                                                         3.882225       0.990771
                                                         9.042730       0.822162
                          1       4    3py               0.039194      -0.000005
                                                         0.084583       0.004155
                                                         0.222851       0.063706
                                                         0.586631       0.321705
                                                         1.512880       0.665657
                                                         3.882225       0.990771
                                                         9.042730       0.822162
                          1       4    3pz               0.039194      -0.000005
                                                         0.084583       0.004155
                                                         0.222851       0.063706
                                                         0.586631       0.321705
                                                         1.512880       0.665657
                                                         3.882225       0.990771
                                                         9.042730       0.822162

                          1       5    4px               0.039194       0.000879
                                                         0.084583       0.034362
                                                         0.222851       0.136219
                                                         0.586631      -0.125283
                                                         1.512880      -0.200519
                                                         3.882225      -0.215479
                                                         9.042730      -0.251449
                          1       5    4py               0.039194       0.000879
                                                         0.084583       0.034362
                                                         0.222851       0.136219
                                                         0.586631      -0.125283
                                                         1.512880      -0.200519
                                                         3.882225      -0.215479
                                                         9.042730      -0.251449
                          1       5    4pz               0.039194       0.000879
                                                         0.084583       0.034362
                                                         0.222851       0.136219
                                                         0.586631      -0.125283
                                                         1.512880      -0.200519
                                                         3.882225      -0.215479
                                                         9.042730      -0.251449

                          1       6    5px               0.039194       0.009857
                                                         0.084583      -0.004510
                                                         0.222851       0.005737
                                                         0.586631       0.706615
                                                         1.512880      -0.292694
                                                         3.882225       0.000000
                                                         9.042730       0.000000
                          1       6    5py               0.039194       0.009857
                                                         0.084583      -0.004510
                                                         0.222851       0.005737
                                                         0.586631       0.706615
                                                         1.512880      -0.292694
                                                         3.882225       0.000000
                                                         9.042730       0.000000
                          1       6    5pz               0.039194       0.009857
                                                         0.084583      -0.004510
                                                         0.222851       0.005737
                                                         0.586631       0.706615
                                                         1.512880      -0.292694
                                                         3.882225       0.000000
                                                         9.042730       0.000000

                          1       7    4dx2              0.039194      -0.000086
                                                         0.084583      -0.000857
                                                         0.222851       0.017840
                                                         0.586631       0.456348
                                                         1.512880       0.873643
                                                         3.882225       0.532064
                                                         9.042730       1.099742
                          1       7    4dxy              0.039194      -0.000150
                                                         0.084583      -0.001484
                                                         0.222851       0.030900
                                                         0.586631       0.790419
                                                         1.512880       1.513195
                                                         3.882225       0.921562
                                                         9.042730       1.904809
                          1       7    4dxz              0.039194      -0.000150
                                                         0.084583      -0.001484
                                                         0.222851       0.030900
                                                         0.586631       0.790419
                                                         1.512880       1.513195
                                                         3.882225       0.921562
                                                         9.042730       1.904809
                          1       7    4dy2              0.039194      -0.000086
                                                         0.084583      -0.000857
                                                         0.222851       0.017840
                                                         0.586631       0.456348
                                                         1.512880       0.873643
                                                         3.882225       0.532064
                                                         9.042730       1.099742
                          1       7    4dyz              0.039194      -0.000150
                                                         0.084583      -0.001484
                                                         0.222851       0.030900
                                                         0.586631       0.790419
                                                         1.512880       1.513195
                                                         3.882225       0.921562
                                                         9.042730       1.904809
                          1       7    4dz2              0.039194      -0.000086
                                                         0.084583      -0.000857
                                                         0.222851       0.017840
                                                         0.586631       0.456348
                                                         1.512880       0.873643
                                                         3.882225       0.532064
                                                         9.042730       1.099742

                          1       8    5dx2              0.039194       0.005298
                                                         0.084583       0.000394
                                                         0.222851       0.022199
                                                         0.586631      -0.128917
                                                         1.512880       0.000000
                                                         3.882225       0.000000
                                                         9.042730       0.000000
                          1       8    5dxy              0.039194       0.009176
                                                         0.084583       0.000682
                                                         0.222851       0.038450
                                                         0.586631      -0.223290
                                                         1.512880       0.000000
                                                         3.882225       0.000000
                                                         9.042730       0.000000
                          1       8    5dxz              0.039194       0.009176
                                                         0.084583       0.000682
                                                         0.222851       0.038450
                                                         0.586631      -0.223290
                                                         1.512880       0.000000
                                                         3.882225       0.000000
                                                         9.042730       0.000000
                          1       8    5dy2              0.039194       0.005298
                                                         0.084583       0.000394
                                                         0.222851       0.022199
                                                         0.586631      -0.128917
                                                         1.512880       0.000000
                                                         3.882225       0.000000
                                                         9.042730       0.000000
                          1       8    5dyz              0.039194       0.009176
                                                         0.084583       0.000682
                                                         0.222851       0.038450
                                                         0.586631      -0.223290
                                                         1.512880       0.000000
                                                         3.882225       0.000000
                                                         9.042730       0.000000
                          1       8    5dz2              0.039194       0.005298
                                                         0.084583       0.000394
                                                         0.222851       0.022199
                                                         0.586631      -0.128917
                                                         1.512880       0.000000
                                                         3.882225       0.000000
                                                         9.042730       0.000000

                          1       9    5fx3              0.039194      -0.000489
                                                         0.084583      -0.000029
                                                         0.222851      -0.000184
                                                         0.586631       0.365702
                                                         1.512880       0.372507
                                                         3.882225       0.355059
                                                         9.042730       0.000000
                          1       9    5fx2y             0.039194      -0.001093
                                                         0.084583      -0.000065
                                                         0.222851      -0.000411
                                                         0.586631       0.817734
                                                         1.512880       0.832952
                                                         3.882225       0.793935
                                                         9.042730       0.000000
                          1       9    5fx2z             0.039194      -0.001093
                                                         0.084583      -0.000065
                                                         0.222851      -0.000411
                                                         0.586631       0.817734
                                                         1.512880       0.832952
                                                         3.882225       0.793935
                                                         9.042730       0.000000
                          1       9    5fxy2             0.039194      -0.001093
                                                         0.084583      -0.000065
                                                         0.222851      -0.000411
                                                         0.586631       0.817734
                                                         1.512880       0.832952
                                                         3.882225       0.793935
                                                         9.042730       0.000000
                          1       9    5fxyz             0.039194      -0.001893
                                                         0.084583      -0.000113
                                                         0.222851      -0.000711
                                                         0.586631       1.416357
                                                         1.512880       1.442714
                                                         3.882225       1.375136
                                                         9.042730       0.000000
                          1       9    5fxz2             0.039194      -0.001093
                                                         0.084583      -0.000065
                                                         0.222851      -0.000411
                                                         0.586631       0.817734
                                                         1.512880       0.832952
                                                         3.882225       0.793935
                                                         9.042730       0.000000
                          1       9    5fy3              0.039194      -0.000489
                                                         0.084583      -0.000029
                                                         0.222851      -0.000184
                                                         0.586631       0.365702
                                                         1.512880       0.372507
                                                         3.882225       0.355059
                                                         9.042730       0.000000
                          1       9    5fy2z             0.039194      -0.001093
                                                         0.084583      -0.000065
                                                         0.222851      -0.000411
                                                         0.586631       0.817734
                                                         1.512880       0.832952
                                                         3.882225       0.793935
                                                         9.042730       0.000000
                          1       9    5fyz2             0.039194      -0.001093
                                                         0.084583      -0.000065
                                                         0.222851      -0.000411
                                                         0.586631       0.817734
                                                         1.512880       0.832952
                                                         3.882225       0.793935
                                                         9.042730       0.000000
                          1       9    5fz3              0.039194      -0.000489
                                                         0.084583      -0.000029
                                                         0.222851      -0.000184
                                                         0.586631       0.365702
                                                         1.512880       0.372507
                                                         3.882225       0.355059
                                                         9.042730       0.000000

       Atomic covalent radius [Angstrom]:                                  0.750

       Atomic van der Waals radius [Angstrom]:                             1.550

     GTH Potential information for                                       GTH-PBE

       Description:                       Goedecker-Teter-Hutter pseudopotential
                                           Goedecker et al., PRB 54, 1703 (1996)
                                          Hartwigsen et al., PRB 58, 3641 (1998)
                                                      Krack, TCA 114, 145 (2005)

       Gaussian exponent of the core charge distribution:               6.208322
       Electronic configuration (s p d ...):                               2   3

       Parameters of the local part of the GTH pseudopotential:

                          rloc        C1          C2          C3          C4
                        0.283791  -12.415226    1.868096

       Parameters of the non-local part of the GTH (SOC) pseudopotential:

                   l      r(l)      h(i,j,l)
                                    k(i,j,l)
                   0    0.255405   13.630263
                   1    0.245495    0.000000
                                    0.004148


 MOLECULE KIND INFORMATION


 All atoms are their own molecule, skipping detailed information


 TOTAL NUMBERS AND MAXIMUM NUMBERS

  Total number of            - Atomic kinds:                                   1
                             - Atoms:                                          8
                             - Shell sets:                                     8
                             - Shells:                                        72
                             - Primitive Cartesian functions:                 56
                             - Cartesian basis functions:                    272
                             - Spherical basis functions:                    232

  Maximum angular momentum of- Orbital basis functions:                        3
                             - Local part of the GTH pseudopotential:          2
                             - Non-local part of the GTH pseudopotential:      1


 MODULE QUICKSTEP: ATOMIC COORDINATES IN ANGSTROM

   Atom Kind Element         X             Y             Z       Z(eff)     Mass
      1    1 N     7      0.321209      0.321209      0.321209   5.0000  14.0067
      2    1 N     7      5.868981      5.868981      5.868981   5.0000  14.0067
      3    1 N     7      2.773886      5.868981      3.416304   5.0000  14.0067
      4    1 N     7      3.416304      0.321209      2.773886   5.0000  14.0067
      5    1 N     7      5.868981      3.416304      2.773886   5.0000  14.0067
      6    1 N     7      0.321209      2.773886      3.416304   5.0000  14.0067
      7    1 N     7      3.416304      2.773886      5.868981   5.0000  14.0067
      8    1 N     7      2.773886      3.416304      0.321209   5.0000  14.0067



 SCF PARAMETERS         Density guess:                                    ATOMIC
                        --------------------------------------------------------
                        max_scf:                                             500
                        max_scf_history:                                       0
                        max_diis:                                              4
                        --------------------------------------------------------
                        eps_scf:                                        1.00E-09
                        eps_scf_history:                                0.00E+00
                        eps_diis:                                       1.00E-01
                        eps_eigval:                                     1.00E-05
                        --------------------------------------------------------
                        level_shift [a.u.]:                             0.000000
                        added MOs                                       212    0
                        --------------------------------------------------------
                        Mixing method:                            BROYDEN_MIXING
                                                charge density mixing in g-space
                        --------------------------------------------------------
                        No outer SCF

 PW_GRID| Information for grid number                                          1
 PW_GRID| Grid distributed over                                     8 processors
 PW_GRID| Real space group dimensions                                     8    1
 PW_GRID| the grid is blocked:                                                NO
 PW_GRID| Cutoff [a.u.]                                                    500.0
 PW_GRID| spherical cutoff:                                                   NO
 PW_GRID|   Bounds   1            -60      59                Points:         120
 PW_GRID|   Bounds   2            -60      59                Points:         120
 PW_GRID|   Bounds   3            -60      59                Points:         120
 PW_GRID| Volume element (a.u.^3)  0.9263E-03     Volume (a.u.^3)      1600.6948
 PW_GRID| Grid span                                                    FULLSPACE
 PW_GRID|   Distribution                         Average         Max         Min
 PW_GRID|   G-Vectors                           216000.0      216000      216000
 PW_GRID|   G-Rays                                1800.0        1800        1800
 PW_GRID|   Real Space Points                   216000.0      216000      216000

 PW_GRID| Information for grid number                                          2
 PW_GRID| Number of the reference grid                                         1
 PW_GRID| Grid distributed over                                     8 processors
 PW_GRID| Real space group dimensions                                     8    1
 PW_GRID| the grid is blocked:                                                NO
 PW_GRID| Cutoff [a.u.]                                                    166.7
 PW_GRID| spherical cutoff:                                                   NO
 PW_GRID|   Bounds   1            -36      35                Points:          72
 PW_GRID|   Bounds   2            -36      35                Points:          72
 PW_GRID|   Bounds   3            -36      35                Points:          72
 PW_GRID| Volume element (a.u.^3)  0.4289E-02     Volume (a.u.^3)      1600.6948
 PW_GRID| Grid span                                                    FULLSPACE
 PW_GRID|   Distribution                         Average         Max         Min
 PW_GRID|   G-Vectors                            46656.0       46872       46512
 PW_GRID|   G-Rays                                 648.0         651         646
 PW_GRID|   Real Space Points                    46656.0       46656       46656

 PW_GRID| Information for grid number                                          3
 PW_GRID| Number of the reference grid                                         1
 PW_GRID| Grid distributed over                                     8 processors
 PW_GRID| Real space group dimensions                                     8    1
 PW_GRID| the grid is blocked:                                                NO
 PW_GRID| Cutoff [a.u.]                                                     55.6
 PW_GRID| spherical cutoff:                                                   NO
 PW_GRID|   Bounds   1            -20      19                Points:          40
 PW_GRID|   Bounds   2            -20      19                Points:          40
 PW_GRID|   Bounds   3            -20      19                Points:          40
 PW_GRID| Volume element (a.u.^3)  0.2501E-01     Volume (a.u.^3)      1600.6948
 PW_GRID| Grid span                                                    FULLSPACE
 PW_GRID|   Distribution                         Average         Max         Min
 PW_GRID|   G-Vectors                             8000.0        8120        7920
 PW_GRID|   G-Rays                                 200.0         203         198
 PW_GRID|   Real Space Points                     8000.0        8000        8000

 PW_GRID| Information for grid number                                          4
 PW_GRID| Number of the reference grid                                         1
 PW_GRID| Grid distributed over                                     8 processors
 PW_GRID| Real space group dimensions                                     8    1
 PW_GRID| the grid is blocked:                                                NO
 PW_GRID| Cutoff [a.u.]                                                     18.5
 PW_GRID| spherical cutoff:                                                   NO
 PW_GRID|   Bounds   1            -12      11                Points:          24
 PW_GRID|   Bounds   2            -12      11                Points:          24
 PW_GRID|   Bounds   3            -12      11                Points:          24
 PW_GRID| Volume element (a.u.^3)  0.1158         Volume (a.u.^3)      1600.6948
 PW_GRID| Grid span                                                    FULLSPACE
 PW_GRID|   Distribution                         Average         Max         Min
 PW_GRID|   G-Vectors                             1728.0        1800        1680
 PW_GRID|   G-Rays                                  72.0          75          70
 PW_GRID|   Real Space Points                     1728.0        1728        1728

 POISSON| Solver                                                        PERIODIC
 POISSON| Periodicity                                                        XYZ

 RS_GRID| Information for grid number                                          1
 RS_GRID|   Bounds   1            -60      59                Points:         120
 RS_GRID|   Bounds   2            -60      59                Points:         120
 RS_GRID|   Bounds   3            -60      59                Points:         120
 RS_GRID| Real space fully replicated
 RS_GRID| Group size                                                           1

 RS_GRID| Information for grid number                                          2
 RS_GRID|   Bounds   1            -36      35                Points:          72
 RS_GRID|   Bounds   2            -36      35                Points:          72
 RS_GRID|   Bounds   3            -36      35                Points:          72
 RS_GRID| Real space fully replicated
 RS_GRID| Group size                                                           1

 RS_GRID| Information for grid number                                          3
 RS_GRID|   Bounds   1            -20      19                Points:          40
 RS_GRID|   Bounds   2            -20      19                Points:          40
 RS_GRID|   Bounds   3            -20      19                Points:          40
 RS_GRID| Real space fully replicated
 RS_GRID| Group size                                                           1

 RS_GRID| Information for grid number                                          4
 RS_GRID|   Bounds   1            -12      11                Points:          24
 RS_GRID|   Bounds   2            -12      11                Points:          24
 RS_GRID|   Bounds   3            -12      11                Points:          24
 RS_GRID| Real space fully replicated
 RS_GRID| Group size                                                           1

 Number of electrons:                                                         40
 Number of occupied orbitals:                                                 20
 Number of molecular orbitals:                                               232

 Number of orbital functions:                                                232
 Number of independent orbital functions:                                    232

 Extrapolation method: initial_guess

 Atomic guess: The first density matrix is obtained in terms of atomic orbitals
               and electronic configurations assigned to each atomic kind

 Guess for atomic kind: N

 Electronic structure
    Total number of core electrons                                          2.00
    Total number of valence electrons                                       5.00
    Total number of electrons                                               7.00
    Multiplicity                                                   not specified
    S   [  2.00] 2.00
    P      3.00


 *******************************************************************************
                  Iteration          Convergence                     Energy [au]
 *******************************************************************************
                          1        0.262404                      -9.510111581656
                          2        0.211275                      -9.518507219010
                          3        0.249617E-02                  -9.546187337244
                          4        0.392671E-03                  -9.546190191956
                          5        0.194987E-05                  -9.546190243218
                          6        0.885473E-06                  -9.546190243219

 Energy components [Hartree]           Total Energy ::           -9.546190243219
                                        Band Energy ::           -2.057369820266
                                     Kinetic Energy ::            6.761936359891
                                   Potential Energy ::          -16.308126603110
                                      Virial (-V/T) ::            2.411753931883
                                        Core Energy ::          -15.540770774774
                                          XC Energy ::           -2.162428932547
                                     Coulomb Energy ::            8.157009464101
                       Total Pseudopotential Energy ::          -22.340008183988
                       Local Pseudopotential Energy ::          -23.273409472550
                    Nonlocal Pseudopotential Energy ::            0.933401288563
                                        Confinement ::            0.373010493229

 Orbital energies  State     L     Occupation   Energy[a.u.]          Energy[eV]

                       1     0          2.000      -0.663956          -18.067164

                       1     1          3.000      -0.243153           -6.616517


 Total Electron Density at R=0:                                         0.000017
 Re-scaling the density matrix to get the right number of electrons
                  # Electrons              Trace(P)               Scaling factor
                           40                40.000                        1.000


 SCF WAVEFUNCTION OPTIMIZATION

  Step     Update method      Time    Convergence         Total energy    Change
  ------------------------------------------------------------------------------
     1 NoMix/Diag. 0.50E-01   13.5     0.56463751       -78.5709762155 -7.86E+01
     2 Broy./Diag. 0.50E-01   13.9     0.00220712       -74.3207605214  4.25E+00
     3 Broy./Diag. 0.50E-01   14.0     0.04868175       -77.3533102751 -3.03E+00
     4 Broy./Diag. 0.50E-01   13.9     0.00077176       -79.8041751354 -2.45E+00
     5 Broy./Diag. 0.50E-01   13.9     0.01023180       -79.4048396562  3.99E-01
     6 Broy./Diag. 0.50E-01   13.8     0.00050609       -79.4367113689 -3.19E-02
     7 Broy./Diag. 0.50E-01   13.9     0.00263815       -79.4971108224 -6.04E-02
     8 Broy./Diag. 0.50E-01   13.8     0.00066071       -79.6070718802 -1.10E-01
     9 Broy./Diag. 0.50E-01   13.9     0.00008258       -79.6240073047 -1.69E-02
    10 Broy./Diag. 0.50E-01   13.9     0.00027898       -79.6265815354 -2.57E-03
    11 Broy./Diag. 0.50E-01   13.9     0.00001324       -79.6278591851 -1.28E-03
    12 Broy./Diag. 0.50E-01   14.0     0.00012313       -79.6224000562  5.46E-03
    13 Broy./Diag. 0.50E-01   14.0     0.00000901       -79.6212965230  1.10E-03
    14 Broy./Diag. 0.50E-01   14.0     0.00007727       -79.6235211566 -2.22E-03
    15 Broy./Diag. 0.50E-01   13.9     0.00000226       -79.6252638316 -1.74E-03
    16 Broy./Diag. 0.50E-01   14.0     0.00001426       -79.6248058313  4.58E-04
    17 Broy./Diag. 0.50E-01   13.9     0.00000110       -79.6245842041  2.22E-04
    18 Broy./Diag. 0.50E-01   13.8     0.00000365       -79.6245252019  5.90E-05
    19 Broy./Diag. 0.50E-01   14.0     0.00000261       -79.6244901220  3.51E-05
    20 Broy./Diag. 0.50E-01   14.0     0.00000035       -79.6245272192 -3.71E-05
    21 Broy./Diag. 0.50E-01   13.9     0.00000061       -79.6245715699 -4.44E-05
    22 Broy./Diag. 0.50E-01   14.0     0.00000114       -79.6246240212 -5.25E-05
    23 Broy./Diag. 0.50E-01   14.0     0.00000033       -79.6246250415 -1.02E-06
    24 Broy./Diag. 0.50E-01   13.9     0.00000029       -79.6246256807 -6.39E-07
    25 Broy./Diag. 0.50E-01   13.9     0.00000010       -79.6246264111 -7.30E-07
    26 Broy./Diag. 0.50E-01   13.8     0.00000017       -79.6246392158 -1.28E-05
    27 Broy./Diag. 0.50E-01   13.8     0.00000010       -79.6246492011 -9.99E-06
    28 Broy./Diag. 0.50E-01   13.8     0.00000008       -79.6246477620  1.44E-06
    29 Broy./Diag. 0.50E-01   13.9     0.00000004       -79.6246428873  4.87E-06
    30 Broy./Diag. 0.50E-01   13.9     0.00000006       -79.6246388937  3.99E-06
    31 Broy./Diag. 0.50E-01   14.0     0.00000001       -79.6246387335  1.60E-07
    32 Broy./Diag. 0.50E-01   14.0     0.00000005       -79.6246396106 -8.77E-07
    33 Broy./Diag. 0.50E-01   14.0     4.1533E-09       -79.6246398897 -2.79E-07
    34 Broy./Diag. 0.50E-01   13.8     0.00000002       -79.6246397110  1.79E-07
    35 Broy./Diag. 0.50E-01   13.9     4.2086E-09       -79.6246390295  6.82E-07
    36 Broy./Diag. 0.50E-01   13.9     3.7934E-09       -79.6246386021  4.27E-07
    37 Broy./Diag. 0.50E-01   13.8     0.00000001       -79.6246380110  5.91E-07
    38 Broy./Diag. 0.50E-01   14.0     7.7393E-09       -79.6246381333 -1.22E-07
    39 Broy./Diag. 0.50E-01   13.9     1.5678E-09       -79.6246385149 -3.82E-07
    40 Broy./Diag. 0.50E-01   13.9     4.0494E-09       -79.6246386133 -9.84E-08
    41 Broy./Diag. 0.50E-01   14.0     1.5400E-09       -79.6246384510  1.62E-07
    42 Broy./Diag. 0.50E-01   13.8     2.7961E-09       -79.6246381794  2.72E-07
    43 Broy./Diag. 0.50E-01   14.0     5.7433E-10       -79.6246380700  1.09E-07

  *** SCF run converged in    43 steps ***


  Electronic density on regular grids:        -40.0000000000        0.0000000000
  Core density on regular grids:               40.0000000000       -0.0000000000
  Total charge density on r-space grids:       -0.0000000000
  Total charge density g-space grids:          -0.0000000000

  Overlap energy of the core charge distribution:               0.00000767021668
  Self energy of the core charge distribution:               -198.80495071796318
  Core Hamiltonian energy:                                     56.78538432676202
  Hartree energy:                                              81.96052307552659
  Exchange-correlation energy:                                -19.56560242457015

  Total energy:                                               -79.62463807002803

 !-----------------------------------------------------------------------------!
                     Mulliken Population Analysis

 #  Atom  Element  Kind  Atomic population                           Net charge
       1     N        1          5.000000                              0.000000
       2     N        1          5.000000                             -0.000000
       3     N        1          5.000000                              0.000000
       4     N        1          5.000000                             -0.000000
       5     N        1          5.000000                              0.000000
       6     N        1          5.000000                             -0.000000
       7     N        1          5.000000                              0.000000
       8     N        1          5.000000                             -0.000000
 # Total charge                             40.000000                  0.000000

 !-----------------------------------------------------------------------------!

 !-----------------------------------------------------------------------------!
                           Hirshfeld Charges

  #Atom  Element  Kind  Ref Charge     Population                    Net charge
      1       N      1       5.000          5.000                        -0.000
      2       N      1       5.000          5.000                        -0.000
      3       N      1       5.000          5.000                        -0.000
      4       N      1       5.000          5.000                        -0.000
      5       N      1       5.000          5.000                        -0.000
      6       N      1       5.000          5.000                        -0.000
      7       N      1       5.000          5.000                        -0.000
      8       N      1       5.000          5.000                        -0.000

  Total Charge                                                           -0.000
 !-----------------------------------------------------------------------------!

 KPOINTS| Band Structure Calculation
 KPOINTS| Number of k-point sets                                               1
 KPOINTS| Number of added MOs/bands                                           -1
 KPOINTS| Number of k-points in set    1                                     148
 KPOINTS| In units of b-vector [2pi/Bohr]
 KPOINTS| Special point     1 not specifi     0.000000     0.000000     0.000000
 KPOINTS| Special point     2 not specifi     0.000000     0.500000     0.000000
 KPOINTS| Special point     3 not specifi     0.500000     0.500000     0.000000
 KPOINTS| Special point     4 not specifi     0.000000     0.000000     0.000000
 KPOINTS| Time for k-point line                                            5.688

 ENERGY| Total FORCE_EVAL ( QS ) energy [hartree]            -79.624638070028027

 -------------------------------------------------------------------------------
 -                                                                             -
 -                                DBCSR STATISTICS                             -
 -                                                                             -
 -------------------------------------------------------------------------------
 COUNTER                                    TOTAL       BLAS       SMM       ACC
 flops inhomo. stacks                           0       0.0%      0.0%      0.0%
 flops total                         0.000000E+00       0.0%      0.0%      0.0%
 flops max/rank                      0.000000E+00       0.0%      0.0%      0.0%
[...]
 -------------------------------------------------------------------------------
 LP    KERNEL             BACKEND                              COUNT     PERCENT
 6     collocate ortho    CPU                                4482896      50.57%
 6     integrate ortho    CPU                                4381012      49.43%
 0     collocate general  CPU                                     16       0.00%
 0     integrate general  CPU                                      8       0.00%
 -------------------------------------------------------------------------------

 MEMORY| Estimated peak process memory [MiB]                                1032

 -------------------------------------------------------------------------------
 ----                             MULTIGRID INFO                            ----
 -------------------------------------------------------------------------------
 count for grid        1:          86880          cutoff [a.u.]          500.00
 count for grid        2:          43040          cutoff [a.u.]          166.67
 count for grid        3:          40912          cutoff [a.u.]           55.56
 count for grid        4:         111272          cutoff [a.u.]           18.52
 total gridlevel count  :         282104

 -------------------------------------------------------------------------------
 -                                                                             -
 -                         MESSAGE PASSING PERFORMANCE                         -
 -                                                                             -
 -------------------------------------------------------------------------------

 ROUTINE             CALLS      AVE VOLUME [Bytes]
 MP_Group                6
 MP_Bcast           400037                    684.
 MP_Allreduce       148830                    151.
 MP_Sync                 4
 MP_Alltoall           779                9596809.
 MP_SendRecv          1246                 558063.
 MP_ISendRecv         1211                 551607.
 MP_Wait            276175
 MP_comm_split           4
 MP_ISend           292364                  12280.
 MP_IRecv           467072                   7696.
 -------------------------------------------------------------------------------


 -------------------------------------------------------------------------------
 -                                                                             -
 -                           R E F E R E N C E S                               -
 -                                                                             -
 -------------------------------------------------------------------------------
 
 CP2K version 2025.1 (Development Version), the CP2K developers group (2025).
 CP2K is freely available from https://www.cp2k.org/ .
 
 T. D. Kuehne, M. Iannuzzi, M. Del Ben, V. V. Rybkin, P. Seewald, F. Stein, T. 
 Laino, R. Z. Khaliullin, O. Schuett, F. Schiffmann, D. Golze, J. Wilhelm, S. 
 Chulkov, M. H. Bani-Hashemian, V. Weber, U. Borstnik, M. Taillefumier, A. S. 
 Jakobovits, A. Lazzaro, H. Pabst, T. Mueller, R. Schade, M. Guidon, S. 
 Andermatt, N. Holmberg, G. K. Schenter, A. Hehn, A. Bussy, F. Belleflamme, G. 
 Tabacchi, A. Gloess, M. Lass, I. Bethune, C. J. Mundy, C. Plessl, M. Watkins, 
 J. VandeVondele, M. Krack, J. Hutter.
 J. Chem. Phys. 152, 194103 (2020).
 CP2K: An electronic structure and molecular dynamics software package - 
 Quickstep: Efficient and accurate electronic structure calculations.
 https://doi.org/10.1063/5.0007045

 O. Schuett, P. Messmer, J. Hutter, J. VandeVondele.
 Electronic Structure Calculations on Graphics Processing Units, 173-190 (2016).
 GPU-Accelerated Sparse Matrix-Matrix Multiplication for Linear Scaling Density 
 Functional Theory.
 https://doi.org/10.1002/9781118670712.ch8

 J. Hutter, M. Iannuzzi, F. Schiffmann, J. VandeVondele.
 WIREs Comput Mol Sci. 4, 15-25 (2014).
 CP2K: atomistic simulations of condensed matter systems.
 https://doi.org/10.1002/wcms.1159

 U. Borstnik, J. VandeVondele, V. Weber, J. Hutter.
 Parallel Comput. 40, 47-58 (2014).
 Sparse matrix multiplication: The distributed block-compressed sparse row 
 library.
 https://doi.org/10.1016/j.parco.2014.03.012

 J. VandeVondele, J. Hutter.
 J. Chem. Phys. 127, 114105 (2007).
 Gaussian basis sets for accurate calculations on molecular systems in gas and 
 condensed phases.
 https://doi.org/10.1063/1.2770708

 J. VandeVondele, M. Krack, F. Mohamed, M. Parrinello, T. Chassaing, J. Hutter.
 Comput. Phys. Commun. 167, 103-128 (2005).
 QUICKSTEP: Fast and accurate density functional calculations using a mixed 
 Gaussian and plane waves approach.
 https://doi.org/10.1016/j.cpc.2004.12.014

 M. Krack.
 Theor. Chem. Acc. 114, 145-152 (2005).
 Pseudopotentials for H to Kr optimized for gradient-corrected 
 exchange-correlation functionals.
 https://doi.org/10.1007/s00214-005-0655-y

 M. Frigo, S. G. Johnson.
 Proc. IEEE 93, 216-231 (2005).
 The design and implementation of FFTW3.
 https://doi.org/10.1109/JPROC.2004.840301

 C. Hartwigsen, S. Goedecker, J. Hutter.
 Phys. Rev. B 58, 3641-3662 (1998).
 Relativistic separable dual-space Gaussian pseudopotentials from H to Rn.
 https://doi.org/10.1103/PhysRevB.58.3641

 G. Lippert, J. Hutter, M. Parrinello.
 Mol. Phys. 92, 477-487 (1997).
 A hybrid Gaussian and plane wave density functional scheme.
 https://doi.org/10.1080/002689797170220

 S. Goedecker, M. Teter, J. Hutter.
 Phys. Rev. B 54, 1703-1710 (1996).
 Separable dual-space Gaussian pseudopotentials.
 https://doi.org/10.1103/PhysRevB.54.1703

 J. P. Perdew, K. Burke, M. Ernzerhof.
 Phys. Rev. Lett. 77, 3865-3868 (1996).
 Generalized gradient approximation made simple.
 https://doi.org/10.1103/PhysRevLett.77.3865


 -------------------------------------------------------------------------------
 -                                                                             -
 -                                T I M I N G                                  -
 -                                                                             -
 -------------------------------------------------------------------------------
 SUBROUTINE                       CALLS  ASD         SELF TIME        TOTAL TIME
                                MAXIMUM       AVERAGE  MAXIMUM  AVERAGE  MAXIMUM
 CP2K                                 1  1.0    0.015    0.019  612.025  612.025
 qs_energies                          1  2.0    0.019    0.120  611.690  611.748
 scf_env_do_scf                       1  3.0    0.000    0.000  602.848  602.849
 scf_env_do_scf_inner_loop           43  4.0    0.046    0.049  602.848  602.848
 do_general_diag_kp                  44  5.9    0.331    0.364  545.570  554.501
 qs_scf_new_mos_kp                   43  5.0    0.000    0.001  540.050  548.987
 rskp_transform                   22312  7.0  255.513  289.771  255.513  289.771
 mp_alltoall_i22                 162752  8.8   59.427  195.700   59.427  195.700
 kpoint_density_transform            43  7.0    0.144    0.155  160.613  160.734
 dbcsr_desymmetrize_deep          92680  7.4    2.608    2.719   54.498  149.456
 transform_dmat                   11008  8.0  120.169  136.407  120.169  136.407
 dbcsr_complete_redistribute      70072  8.2    4.762    4.902   43.992   85.322
 copy_fm_to_dbcsr                 22016  8.0    0.152    0.157   25.431   66.400
 qs_ks_update_qs_env                 43  5.0    0.000    0.000   32.387   36.061
 rebuild_ks_matrix                   43  6.0    0.000    0.000   30.261   33.934
 qs_ks_build_kohn_sham_matrix        43  7.0    0.085    0.086   30.261   33.934
 cp_cfm_geeig                      1413  6.9    0.018    0.020   33.141   33.482
 copy_dbcsr_to_fm                 48056  6.9    0.576    0.590   30.981   31.805
 sum_up_and_integrate                43  8.0    0.001    0.001   27.727   31.412
 integrate_v_rspace                  43  9.0    0.221    0.365   27.723   31.408
 grid_integrate_task_list            43 10.0   26.700   30.231   26.700   30.231
 cp_fm_start_copy_general         66640  7.3    4.531    5.032   24.294   24.465
 cp_cfm_heevd                      1413  7.9    0.003    0.003   23.624   23.855
 cp_cfm_heevd_base                 1413  8.9   23.621   23.852   23.621   23.852
 qs_rho_update_rho_low               44  5.0    0.000    0.000   22.568   22.586
 calculate_rho_elec                  44  6.0    0.128    0.145   22.568   22.585
 grid_collocate_task_list            44  7.0   18.655   21.120   18.655   21.120
 mp_allgather_i                  133280  8.3   16.825   16.998   16.825   16.998
 mp_alltoall_d11v                488256  9.4   10.543   11.553   10.543   11.553
 transfer_rs2pw                     178  8.0    0.002    0.003    3.555    9.989
 transfer_rs2pw_500                  46  8.9    0.272    0.291    3.368    9.821
 density_rs2pw                       44  7.0    0.002    0.002    3.780    9.805
 mp_sendrecv_dv                    1246 10.0    3.216    9.632    3.216    9.632
 dbcsr_finalize                  181576  8.5    0.869    0.932    6.645    7.042
 cp_cfm_triangular_multiply        4239  7.9    6.486    6.555    6.486    6.555
 hybrid_alltoall_any              92680  8.4    0.408    0.424    5.817    6.551
 write_kpoints_restart               43  5.0    0.014    0.020    4.860    4.861
 cp_fm_finish_copy_general        27668  7.8    4.525    4.564    4.602    4.646
 kpoint_density_matrices             43  7.0    0.083    0.088    4.572    4.640
 parallel_gemm_fm                  5504  8.0    0.007    0.007    4.346    4.407
 parallel_gemm_fm_gemm             5504  9.0    0.007    0.008    4.339    4.399
 cp_fm_gemm                        5504 10.0    4.332    4.393    4.332    4.393
 mp_alltoall_i11v                302896  9.0    3.512    4.173    3.512    4.173
 dbcsr_merge_all                  70072 10.2    1.783    2.075    3.838    4.162
 mp_cart_sub                      96114  8.9    4.055    4.073    4.055    4.073
 mp_cart_create                   48063  8.9    2.621    2.704    2.621    2.704
 cp_fm_write_unformatted           3432  6.0    1.026    2.276    1.387    2.624
 fft_wrap_pw1pw2                    779 10.0    0.010    0.011    2.312    2.317
 dbcsr_dot                        98385  8.0    1.138    1.225    2.098    2.221
 fft_wrap_pw1pw2_500                518 11.3    0.188    0.192    2.159    2.167
 evaluate_core_matrix_traces         43  6.0    0.000    0.000    2.126    2.126
 calculate_ptrace_kp                 86  7.0    0.074    0.075    2.126    2.126
 mp_bcast_iv                     266583  8.3    1.718    1.955    1.718    1.955
 qs_energies_init_hamiltonians        1  3.0    0.000    0.000    1.828    1.828
 fft3d_ps                           779 12.0    0.810    0.831    1.792    1.803
 dbcsr_work_create               162752  8.8    1.047    1.121    1.689    1.791
 dbcsr_copy                      121544  6.9    0.676    0.699    1.666    1.786
 dbcsr_create_new                339521  8.1    1.417    1.468    1.712    1.779
 qs_vxc_create                       43  8.0    0.001    0.001    1.687    1.690
 xc_vxc_pw_create                    43  9.0    0.071    0.071    1.686    1.689
 gspace_mixing                       42  5.0    0.065    0.065    1.622    1.622
 self_consistency_check              43  5.0    0.073    0.074    1.419    1.581
 cp_dbcsr_alloc_block_from_nbl     8268  5.1    1.149    1.299    1.375    1.551
 build_core_hamiltonian_matrix        1  4.0    0.004    0.004    1.282    1.514
 copy_dbcsr_to_fm_bc              48056  7.9    0.928    0.947    1.490    1.513
 cp_cfm_cholesky_decompose         1413  7.9    1.420    1.438    1.420    1.438
 cp_cfm_triangular_invert          1413  7.9    1.419    1.437    1.419    1.437
 broyden_mixing                      42  6.0    1.332    1.350    1.363    1.372
 copy_fm_to_dbcsr_bc              22016  9.0    0.390    0.407    1.296    1.358
 dbcsr_iterator_start            590619  8.9    1.096    1.121    1.292    1.328
 cp_sm_mix                        49192  6.0    0.543    0.592    1.100    1.325
 dbcsr_work_destroy_all          162752  9.8    0.778    0.786    1.291    1.318
 tree_to_linear_d                 70072 11.2    1.196    1.226    1.196    1.226
 mp_send_dv                        3432  7.0    0.317    1.215    0.317    1.215
 mp_sum_d                         99151  9.0    0.734    1.192    0.734    1.192
 dbcsr_data_new                 1756722  9.7    1.114    1.169    1.114    1.169
 dbcsr_data_release             2532701 10.1    1.078    1.127    1.078    1.127
 xc_pw_derive                       258 11.0    0.001    0.001    1.070    1.073
 xc_rho_set_and_dset_create          43 10.0    0.034    0.035    0.932    0.936
 kpoint_set_mo_occupation            43  7.0    0.138    0.140    0.609    0.924
 dbcsr_copy_into_existing         23160  9.8    0.679    0.779    0.817    0.917
 dbcsr_destroy                   241137  8.1    0.437    0.452    0.846    0.897
 dbcsr_set                       220117  7.6    0.227    0.232    0.801    0.881
 mp_alltoall_z22v                   779 14.0    0.846    0.862    0.846    0.862
 qs_env_update_s_mstruct              1  4.0    0.000    0.000    0.503    0.832
 dbcsr_iterator_stop             590619  8.9    0.679    0.684    0.808    0.817
 potential_pw2rs                     43 10.0    0.005    0.005    0.802    0.812
 mp_max_d                         49194  7.0    0.441    0.809    0.441    0.809
 mp_sum_dm3                          43  8.0    0.471    0.785    0.471    0.785
 init_scf_run                         1  3.0    0.000    0.000    0.639    0.764
 scf_env_initial_rho_setup            1  4.0    0.000    0.000    0.639    0.764
 mp_waitall_1                    276175  8.3    0.433    0.693    0.433    0.693
 xc_pw_divergence                    43 10.0    0.001    0.001    0.675    0.678
 calculate_rho_core                   1  5.0    0.002    0.002    0.261    0.667
 dbcsr_zero                      220117  8.6    0.574    0.649    0.574    0.649
 quick_finalize                   92680  9.4    0.326    0.336    0.570    0.589
 x_to_yz                            430 13.2    0.080    0.083    0.564    0.581
 dbcsr_data_copy_aa2              70072 11.2    0.528    0.580    0.528    0.580
 mp_bcast_im                     133280  8.3    0.512    0.575    0.512    0.575
 transfer_pw2rs                     173 11.0    0.001    0.002    0.556    0.557
 mp_isend_dv                      67232  8.3    0.491    0.557    0.491    0.557
 dbcsr_reserve_blocks             30284  9.7    0.459    0.487    0.490    0.518
 cp_cfm_scale_and_add_fm           5652  6.9    0.468    0.488    0.468    0.488
 mp_comm_free                    144211  8.9    0.432    0.486    0.432    0.486
 mixing_allocate                      1  3.0    0.007    0.007    0.402    0.447
 yz_to_x                            349 12.8    0.048    0.051    0.410    0.426
 transfer_pw2rs_500                  44 11.9    0.220    0.236    0.409    0.425
 build_core_ppl                       1  5.0    0.297    0.405    0.297    0.405
 mp_recv_dv                       10296  7.0    0.044    0.348    0.044    0.348
 dbcsr_reserve_all_blocks         22016 10.0    0.043    0.044    0.310    0.337
 xc_functional_eval                  43 11.0    0.000    0.001    0.315    0.320
 pbe_lda_eval                        43 12.0    0.314    0.320    0.314    0.320
 dbcsr_sort_indices              193036 10.8    0.287    0.299    0.287    0.299
 build_kinetic_matrix_low             1  5.0    0.062    0.085    0.254    0.296
 build_overlap_matrix_low             1  5.0    0.064    0.081    0.257    0.293
 build_core_ppnl                      1  5.0    0.232    0.263    0.232    0.263
 cp_cfm_to_fm                      1413  6.9    0.247    0.254    0.247    0.254
 qs_env_rebuild_rho                   1  5.0    0.000    0.000    0.199    0.221
 qs_rho_rebuild                       1  6.0    0.003    0.003    0.199    0.221
 dbcsr_iterator_seek             590619  9.9    0.196    0.209    0.196    0.209
 dbcsr_make_index_exist          339521  9.1    0.191    0.203    0.191    0.203
 mp_sum_dv                          338  3.5    0.086    0.184    0.086    0.184
 pw_scatter_p                       430 12.2    0.180    0.182    0.180    0.182
 calculate_first_density_matrix       1  5.0    0.001    0.001    0.056    0.181
 cp_cfm_to_cfm_columns             1413  7.9    0.174    0.179    0.174    0.179
 transfer_rs2pw_170                  44  9.0    0.053    0.055    0.148    0.177
 calculate_atomic_block_dm            1  6.0    0.001    0.001    0.049    0.176
 mp_isendrecv_dv                   1211 13.0    0.057    0.157    0.057    0.157
 mp_irecv_iv                     266560  8.3    0.020    0.156    0.020    0.156
 merge_index                      70072 11.2    0.145    0.152    0.145    0.152
 pw_poisson_solve                    43  8.0    0.001    0.001    0.146    0.146
 cp_fm_to_fm_matrix                2752  8.0    0.141    0.145    0.141    0.145
 transfer_pw2rs_170                  43 12.0    0.055    0.060    0.111    0.126
 mp_sum_iv                           24  5.3    0.050    0.124    0.050    0.124
 qs_scf_ensure_work_matrices          1  3.0    0.000    0.000    0.050    0.124
 dbcsr_switch_data_area           92680 10.4    0.087    0.092    0.113    0.118
 restraint_control                    1  2.0    0.000    0.000    0.058    0.115
 mp_sum_i                             4  2.8    0.058    0.115    0.058    0.115
 cp_fm_cleanup_copy_general       47376  7.0    0.075    0.076    0.111    0.114
 mp_isend_iv                     150088  8.3    0.030    0.110    0.030    0.110
 calculate_ecore_overlap              1  4.0    0.000    0.000    0.028    0.106
 fft_wrap_pw1pw2_170                 87 10.5    0.008    0.009    0.102    0.104
 pw_integral_ab_c1d_c1d_gs           43  9.0    0.092    0.093    0.096    0.097
 qs_init_subsys                       1  2.0    0.002    0.002    0.085    0.085
 parser_read_line                  4242  4.1    0.001    0.001    0.083    0.085
 parser_read_line_low                22  6.3    0.008    0.032    0.082    0.083
 dbcsr_get_data_size_used        162752  9.8    0.077    0.083    0.077    0.083
 qs_env_setup                         1  3.0    0.000    0.000    0.082    0.083
 qs_env_rebuild_pw_env                2  3.5    0.000    0.000    0.081    0.082
 pw_env_rebuild                       1  5.0    0.001    0.001    0.081    0.082
 dbcsr_distribution_new           70074  8.6    0.073    0.080    0.073    0.080
 broadcast_input_information         22  7.3    0.025    0.029    0.074    0.079
 pw_gather_p                        349 11.8    0.075    0.077    0.075    0.077
 cp_fm_create                       466  4.1    0.071    0.073    0.071    0.073
 pw_grid_setup                        4  6.0    0.000    0.000    0.069    0.069
 pw_grid_setup_internal               4  7.0    0.002    0.002    0.069    0.069
 mp_irecv_im2                    133280  8.3    0.009    0.069    0.009    0.069
 dbcsr_make_dbcsr_index          193036 10.8    0.060    0.064    0.060    0.064
 topology_control                     1  2.0    0.000    0.000    0.063    0.063
 -------------------------------------------------------------------------------

 The number of warnings for this run is : 1
 
 -------------------------------------------------------------------------------
  **** **** ******  **  PROGRAM ENDED AT                 2025-08-05 00:51:29.670
 ***** ** ***  *** **   PROGRAM RAN ON                              i05r09c02s10
 **    ****   ******    PROGRAM RAN BY                                   di38fab
 ***** **    ** ** **   PROGRAM PROCESS ID                               1978524
  **** **  *******  **  PROGRAM STOPPED IN /hppfs/scratch/04/di38fab/09_GTH/Delt
                                           a_Set/N/aug-DZVP-MOLOPT-GTH-tier-2/8x
                                           8x8
