Te                                      
   1.00000000000000     
     4.507880    0.000000    0.000000
    -2.253940    3.903939    0.000000
     0.000000    0.000000    5.963460
   Te
     3
Direct
  0.269660  0.000000  0.333333
  0.000000  0.269660  0.666667
  0.730340  0.730340  0.000000
 
   36   36   48
  28.362      24.544      20.864      17.471      14.469      11.910      9.8023      8.1172      6.7992      5.7820    
  5.0038      4.4187      4.0002      3.7394      3.6402      3.7161      3.9922      4.5116      5.3400      6.5650    
  8.2865      10.594      13.541      17.115      21.214      25.644      30.122      34.299      37.750      40.098    
  41.231      41.217      40.183      38.244      35.504      32.118      24.544      21.544      18.586      15.808    
  13.308      11.142      9.3299      7.8564      6.6832      5.7594      5.0349      4.4697      4.0393      3.7343    
  3.5562      3.5144      3.6250      3.9138      4.4209      5.2032      6.3315      7.8801      9.9081      12.437    
  15.429      18.774      22.288      25.726      28.810      31.271      32.887      33.531      33.188      31.944    
  29.951      27.413      20.864      18.586      16.277      14.062      12.032      10.247      8.7313      7.4803    
  6.4687      5.6588      5.0107      4.4912      4.0779      3.7604      3.5384      3.4187      3.4133      3.5396    
  3.8227      4.2979      5.0116      6.0175      7.3669      9.0937      11.197      13.627      16.274      18.976    
  21.533      23.729      25.372      26.318      26.498      25.930      24.703      22.959      17.471      15.808    
  14.062      12.343      10.737      9.3015      8.0652      7.0317      6.1853      5.4988      4.9416      4.4863    
  4.1128      3.8099      3.5750      3.4121      3.3306      3.3440      3.4703      3.7327      4.1611      4.7910    
  5.6601      6.8008      8.2283      9.9282      11.846      13.882      15.901      17.745      19.254      20.295    
  20.781      20.682      20.035      18.924      14.469      13.308      12.033      10.737      9.4983      8.3713    
  7.3870      6.5548      5.8668      5.3047      4.8452      4.4662      4.1495      3.8833      3.6620      3.4864    
  3.3627      3.3021      3.3194      3.4324      3.6621      4.0322      4.5687      5.2962      6.2326      7.3805    
  8.7182      10.193      11.719      13.188      14.479      15.479      16.098      16.289      16.047      15.414    
  11.910      11.142      10.247      9.3016      8.3713      7.5073      6.7418      6.0885      5.5463      5.1037    
  4.7438      4.4485      4.2013      3.9893      3.8041      3.6424      3.5066      3.4048      3.3499      3.3574    
  3.4449      3.6304      3.9328      4.3705      4.9587      5.7050      6.6037      7.6301      8.7364      9.8532    
  10.896      11.775      12.413      12.752      12.769      12.474      9.8023      9.3299      8.7313      8.0652    
  7.3869      6.7417      6.1614      5.6632      5.2516      4.9214      4.6607      4.4545      4.2874      4.1451    
  4.0160      3.8924      3.7720      3.6587      3.5623      3.4974      3.4803      3.5281      3.6571      3.8828    
  4.2185      4.6729      5.2469      5.9301      6.6977      7.5089      8.3085      9.0321      9.6158      10.006    
  10.169      10.095      8.1172      7.8564      7.4803      7.0317      6.5547      6.0884      5.6631      5.2986    
  5.0039      4.7793      4.6176      4.5065      4.4310      4.3749      4.3231      4.2625      4.1851      4.0889    
  3.9798      3.8697      3.7750      3.7138      3.7037      3.7607      3.8988      4.1284      4.4544      4.8738    
  5.3738      5.9311      6.5115      7.0717      7.5637      7.9416      8.1697      8.2281      6.7992      6.6832    
  6.4687      6.1853      5.8669      5.5463      5.2516      5.0039      4.8163      4.6937      4.6334      4.6263    
  4.6575      4.7091      4.7610      4.7939      4.7918      4.7453      4.6534      4.5242      4.3730      4.2199    
  4.0863      3.9926      3.9567      3.9928      4.1100      4.3110      4.5901      4.9337      5.3205      5.7223    
  6.1052      6.4326      6.6713      6.7970      5.7819      5.7594      5.6588      5.4988      5.3047      5.1038    
  4.9214      4.7793      4.6937      4.6739      4.7223      4.8329      4.9926      5.1812      5.3733      5.5411    
  5.6581      5.7039      5.6676      5.5498      5.3630      5.1284      4.8732      4.6259      4.4132      4.2566    
  4.1715      4.1662      4.2411      4.3892      4.5969      4.8447      5.1085      5.3605      5.5720      5.7179    
  5.0038      5.0349      5.0108      4.9415      4.8452      4.7439      4.6607      4.6176      4.6334      4.7223    
  4.8917      5.1407      5.4587      5.8244      6.2066      6.5670      6.8651      7.0646      7.1389      7.0767    
  6.8830      6.5784      6.1959      5.7754      5.3578      4.9785      4.6646      4.4329      4.2904      4.2353    
  4.2587      4.3459      4.4781      4.6335      4.7879      4.9178      4.4187      4.4697      4.4913      4.4862    
  4.4661      4.4485      4.4545      4.5065      4.6262      4.8330      5.1408      5.5553      6.0704      6.6652    
  7.3030      7.9335      8.4982      8.9387      9.2060      9.2680      9.1158      8.7648      8.2518      7.6296    
  6.9583      6.2957      5.6898      5.1740      4.7659      4.4698      4.2793      4.1818      4.1601      4.1945    
  4.2634      4.3449      4.0002      4.0393      4.0779      4.1127      4.1495      4.2013      4.2874      4.4309    
  4.6575      4.9926      5.4588      6.0704      6.8286      7.7152      8.6891      9.6873      10.630      11.431    
  12.008      12.300      12.271      11.923      11.293      10.445      9.4609      8.4305      7.4337      6.5327    
  5.7664      5.1509      4.6845      4.3538      4.1396      4.0197      3.9712      3.9717      3.7394      3.7342    
  3.7603      3.8099      3.8833      3.9893      4.1451      4.3750      4.7091      5.1812      5.8244      6.6652    
  7.7152      8.9621      10.364      11.844      13.301      14.612      15.657      16.327      16.551      16.300    
  15.599      14.521      13.173      11.681      10.167      8.7395      7.4727      6.4086      5.5581      4.9095    
  4.4380      4.1140      3.9074      3.7905      3.6402      3.5562      3.5383      3.5750      3.6620      3.8041    
  4.0160      4.3231      4.7610      5.3733      6.2066      7.3030      8.6891      10.363      12.286      14.373    
  16.496      18.496      20.201      21.447      22.105      22.101      21.433      20.166      18.430      16.390    
  14.225      12.100      10.147      8.4523      7.0541      5.9519      5.1181      4.5116      4.0886      3.8092    
  3.7161      3.5144      3.4187      3.4121      3.4864      3.6424      3.8924      4.2625      4.7939      5.5411    
  6.5670      7.9334      9.6873      11.844      14.373      17.184      20.129      23.009      25.593      27.650    
  28.979      29.439      28.975      27.629      25.536      22.899      19.961      16.963      14.113      11.562    
  9.3976      7.6484      6.2937      5.2835      4.5559      4.0504      3.9922      3.6250      3.4134      3.3306    
  3.3627      3.5066      3.7720      4.1850      4.7918      5.6581      6.8651      8.4982      10.630      13.301    
  16.496      20.129      24.036      27.979      31.667      34.773      36.995      38.156      38.165      36.989    
  34.688      31.480      27.698      23.673      19.711      16.055      12.867      10.225      8.1344      6.5465    
  5.3832      4.5578      4.5116      3.9138      3.5396      3.3440      3.3021      3.4048      3.6586      4.0889    
  4.7452      5.7039      7.0645      8.9387      11.431      14.613      18.496      23.009      27.979      33.131    
  37.976      41.990      44.920      46.716      47.388      46.889      45.107      41.969      37.607      32.493    
  27.242      22.241      17.756      13.943      10.855      8.4629      6.6828      5.4030      5.3400      4.4209    
  3.8227      3.4703      3.3194      3.3498      3.5623      3.9798      4.6534      5.6676      7.1389      9.2060    
  12.008      15.657      20.201      25.593      31.667      37.976      43.633      48.037      51.060      52.918    
  53.918      54.200      53.612      51.772      48.311      43.183      36.874      30.350      24.318      19.052    
  14.683      11.224      8.6012      6.6882      6.5651      5.2032      4.2979      3.7327      3.4324      3.3574    
  3.4974      3.8697      4.5242      5.5499      7.0768      9.2680      12.300      16.327      21.447      27.650    
  34.773      41.990      48.037      52.182      54.416      55.315      55.690      56.150      56.768      57.016    
  56.005      52.929      47.530      40.358      32.694      25.736      19.815      15.016      11.298      8.5380    
  8.2865      6.3315      5.0116      4.1611      3.6621      3.4449      3.4803      3.7750      4.3730      5.3630    
  6.8830      9.1158      12.271      16.551      22.105      28.979      36.995      44.920      51.060      54.416    
  54.988      53.714      52.053      51.370      52.332      54.597      56.928      57.712      55.654      50.367    
  42.602      34.039      26.355      19.972      14.913      11.078      10.594      7.8800      6.0175      4.7910    
  4.0323      3.6304      3.5281      3.7138      4.2199      5.1284      6.5783      8.7647      11.923      16.300    
  22.101      29.439      38.156      46.716      52.918      55.315      53.714      49.263      44.071      40.466    
  40.102      43.277      48.782      54.362      57.598      56.821      51.728      43.478      34.258      26.124    
  19.521      14.400      13.541      9.9081      7.3668      5.6601      4.5687      3.9328      3.6571      3.7037    
  4.0863      4.8732      6.1958      8.2517      11.293      15.599      21.433      28.975      38.165      47.388    
  53.918      55.690      52.053      44.071      34.301      26.050      22.243      24.320      31.638      41.698    
  51.097      56.757      56.947      51.766      42.988      33.355      25.092      18.529      17.115      12.437    
  9.0938      6.8008      5.2962      4.3705      3.8828      3.7607      3.9926      4.6260      5.7755      7.6296    
  10.445      14.521      20.166      27.629      36.989      46.889      54.200      56.150      51.370      40.466    
  26.050      12.141      2.9700      1.5014      8.2726      21.153      36.158      48.915      56.105      56.387    
  50.585      41.205      31.460      23.391      21.214      15.429      11.197      8.2283      6.2326      4.9587    
  4.2185      3.8988      3.9566      4.4132      5.3578      6.9583      9.4609      13.173      18.430      25.536    
  34.687      45.107      53.612      56.768      52.332      40.102      22.243      2.9700     -12.506     -19.631    
 -16.196     -3.2385      15.350      34.305      48.814      55.922      55.126      48.177      38.266      28.796    
  25.644      18.774      13.627      9.9282      7.3805      5.7050      4.6729      4.1284      3.9927      4.2565    
  4.9786      6.2957      8.4304      11.681      16.390      22.899      31.480      41.969      51.772      57.016    
  54.597      43.277      24.320      1.5014     -19.631     -33.309     -35.532     -25.634     -6.5901      16.159    
  36.710      50.572      55.741      52.838      44.522      34.432      30.122      22.288      16.274      11.846    
  8.7182      6.6037      5.2469      4.4544      4.1100      4.1715      4.6647      5.6898      7.4336      10.167    
  14.225      19.961      27.698      37.607      48.311      56.005      56.928      48.782      31.638      8.2726    
 -16.197     -35.532     -44.327     -40.018     -23.942     -.81808      23.087      42.134      52.879      54.633    
  49.154      39.756      34.299      25.726      18.976      13.882      10.193      7.6300      5.9301      4.8738    
  4.3110      4.1661      4.4329      5.1741      6.5327      8.7394      12.100      16.964      23.673      32.493    
  43.183      52.929      57.712      54.362      41.698      21.153     -3.2386     -25.634     -40.018     -42.273    
 -31.809     -11.828      11.953      33.442      48.104      53.982      51.737      43.992      37.750      28.810    
  21.532      15.901      11.719      8.7364      6.6977      5.3739      4.5901      4.2410      4.2904      4.7660    
  5.7665      7.4727      10.147      14.113      19.711      27.242      36.874      47.530      55.654      57.598    
  51.097      36.158      15.351     -6.5901     -23.942     -31.809     -27.938     -13.649      6.6975      27.414    
  43.493      51.997      52.505      46.741      40.098      31.271      23.729      17.745      13.188      9.8532    
  7.5089      5.9312      4.9337      4.3892      4.2353      4.4698      5.1510      6.4086      8.4523      11.562    
  16.055      22.241      30.350      40.358      50.367      56.821      56.757      48.915      34.305      16.159    
 -.81804     -11.828     -13.649     -5.8920      8.8359      25.996      40.845      49.976      52.101      48.033    
  41.231      32.887      25.372      19.254      14.479      10.896      8.3085      6.5115      5.3206      4.5969    
  4.2586      4.2793      4.6845      5.5581      7.0541      9.3976      12.867      17.756      24.318      32.694    
  42.602      51.728      56.947      56.105      48.814      36.710      23.087      11.953      6.6975      8.8359    
  17.412      29.413      40.985      48.835      51.205      48.147      41.217      33.531      26.318      20.295    
  15.479      11.775      9.0321      7.0716      5.7223      4.8447      4.3459      4.1818      4.3538      4.9095    
  5.9519      7.6484      10.225      13.943      19.052      25.736      34.040      43.478      51.767      56.387    
  55.922      50.572      42.134      33.442      27.414      25.996      29.413      36.118      43.463      48.755    
  50.201      47.384      40.183      33.188      26.498      20.781      16.098      12.413      9.6158      7.5636    
  6.1051      5.1085      4.4781      4.1601      4.1396      4.4380      5.1181      6.2937      8.1344      10.855    
  14.683      19.815      26.355      34.258      42.988      50.585      55.126      55.741      52.879      48.104    
  43.493      40.845      40.985      43.463      46.801      49.151      49.041      45.898      38.244      31.944    
  25.930      20.682      16.289      12.752      10.006      7.9416      6.4326      5.3605      4.6335      4.1945    
  4.0197      4.1140      4.5116      5.2835      6.5465      8.4629      11.224      15.016      19.972      26.124    
  33.355      41.205      48.177      52.838      54.634      53.982      51.997      49.976      48.835      48.755    
  49.151      48.999      47.330      43.668      35.504      29.951      24.703      20.035      16.047      12.769    
  10.169      8.1697      6.6714      5.5720      4.7879      4.2634      3.9712      3.9073      4.0886      4.5559    
  5.3832      6.6828      8.6012      11.298      14.913      19.521      25.092      31.460      38.266      44.522    
  49.154      51.737      52.505      52.101      51.205      50.201      49.041      47.330      44.598      40.597    
  32.118      27.413      22.959      18.925      15.414      12.474      10.095      8.2281      6.7971      5.7180    
  4.9178      4.3449      3.9717      3.7905      3.8091      4.0504      4.5578      5.4030      6.6882      8.5380    
  11.078      14.400      18.529      23.391      28.796      34.432      39.756      43.992      46.741      48.033    
  48.147      47.384      45.898      43.668      40.597      36.673      28.276      24.775      21.389      18.252    
  15.456      13.053      11.052      9.4272      8.1289      7.0958      6.2718      5.6165      5.1098      4.7491    
  4.5442      4.5141      4.6875      5.1093      5.8444      6.9781      8.6053      10.811      13.642      17.083    
  21.033      25.297      29.597      33.592      36.885      39.115      40.177      40.149      39.171      37.363    
  34.830      31.716      24.240      21.544      18.881      16.371      14.101      12.122      10.451      9.0753    
  7.9575      7.0508      6.3085      5.6953      5.1920      4.7952      4.5132      4.3618      4.3623      4.5443    
  4.9490      5.6324      6.6616      8.1060      10.019      12.419      15.266      18.449      21.789      25.046    
  27.954      30.258      31.760      32.351      32.035      30.901      29.100      26.817      20.361      18.364    
  16.338      14.392      12.605      11.029      9.6824      8.5611      7.6393      6.8803      6.2461      5.7059    
  5.2415      4.8476      4.5304      4.3038      4.1861      4.2001      4.3741      4.7441      5.3547      6.2556    
  7.4930      9.0966      11.062      13.339      15.820      18.349      20.732      22.770      24.284      25.151    
  25.321      24.819      23.736      22.201      16.805      15.388      13.904      12.444      11.082      9.8655    
  8.8181      7.9395      7.2123      6.6083      6.0966      5.6505      5.2521      4.8941      4.5793      4.3185    
  4.1283      4.0286      4.0424      4.1954      4.5174      5.0416      5.8019      6.8258      8.1251      9.6836    
  11.447      13.320      15.174      16.860      18.234      19.178      19.620      19.546      18.994      18.045    
  13.678      12.725      11.682      10.626      9.6227      8.7156      7.9294      7.2686      6.7222      6.2690    
  5.8840      5.5437      5.2303      4.9338      4.6528      4.3941      4.1709      4.0016      3.9069      3.9090    
  4.0305      4.2947      4.7248      5.3417      6.1596      7.1785      8.3758      9.7002      11.072      12.389    
  13.543      14.433      14.986      15.165      14.975      14.456      11.034      10.434      9.7369      9.0057    
  8.2940      7.6424      7.0754      6.6013      6.2148      5.9009      5.6394      5.4095      5.1929      4.9768    
  4.7552      4.5294      4.3083      4.1069      3.9448      3.8431      3.8225      3.9024      4.1005      4.4327    
  4.9111      5.5402      6.3126      7.2037      8.1684      9.1430      10.051      10.815      11.369      11.669    
  11.700      11.475      8.8779      8.5324      8.0957      7.6148      7.1334      6.6866      6.2981      5.9793    
  5.7300      5.5409      5.3962      5.2772      5.1652      5.0441      4.9029      4.7367      4.5485      4.3487    
  4.1539      3.9847      3.8621      3.8056      3.8324      3.9569      4.1899      4.5375      4.9983      5.5607    
  6.2011      6.8821      7.5542      8.1621      8.6524      8.9828      9.1290      9.0881      7.1739      7.0026    
  6.7527      6.4583      6.1532      5.8669      5.6216      5.4307      5.2983      5.2205      5.1859      5.1781    
  5.1777      5.1655      5.1246      5.0435      4.9176      4.7506      4.5547      4.3482      4.1529      3.9905    
  3.8808      3.8403      3.8817      4.0133      4.2376      4.5498      4.9370      5.3772      5.8401      6.2888    
  6.6837      6.9888      7.1777      7.2383      5.8616      5.8017      5.6798      5.5194      5.3461      5.1843    
  5.0540      4.9697      4.9392      4.9634      5.0354      5.1416      5.2629      5.3766      5.4600      5.4930    
  5.4617      5.3611      5.1960      4.9804      4.7356      4.4860      4.2564      4.0690      3.9416      3.8874    
  3.9132      4.0195      4.1995      4.4396      4.7208      5.0187      5.3059      5.5541      5.7385      5.8427    
  4.8698      4.8751      4.8366      4.7695      4.6933      4.6279      4.5914      4.5991      4.6616      4.7840    
  4.9646      5.1933      5.4522      5.7162      5.9561      6.1419      6.2475      6.2553      6.1594      5.9663    
  5.6941      5.3693      5.0230      4.6866      4.3880      4.1483      3.9813      3.8931      3.8822      3.9407    
  4.0555      4.2098      4.3837      4.5556      4.7044      4.8125      4.1328      4.1691      4.1807      4.1767    
  4.1713      4.1811      4.2232      4.3132      4.4649      4.6876      4.9848      5.3516      5.7726      6.2218    
  6.6631      7.0550      7.3560      7.5312      7.5583      7.4312      7.1607      6.7729      6.3055      5.8021    
  5.3052      4.8509      4.4650      4.1622      3.9473      3.8168      3.7613      3.7673      3.8188      3.8983    
  3.9877      4.0702      3.6004      3.6401      3.6760      3.7117      3.7570      3.8262      3.9352      4.1015    
  4.3416      4.6704      5.0978      5.6253      6.2423      6.9231      7.6258      8.2961      8.8732      9.2992    
  9.5281      9.5331      9.3112      8.8836      8.2927      7.5952      6.8533      6.1259      5.4598      4.8863    
  4.4205      4.0643      3.8104      3.6460      3.5555      3.5223      3.5294      3.5601      3.2418      3.2595    
  3.2964      3.3518      3.4313      3.5465      3.7131      3.9503      4.2794      4.7216      5.2954      6.0112    
  6.8654      7.8351      8.8741      9.9145      10.873      11.664      12.206      12.444      12.349      11.929    
  11.227      10.311      9.2682      8.1862      7.1444      6.2026      5.3962      4.7387      4.2265      3.8455    
  3.5772      3.4015      3.2988      3.2508      3.0442      3.0131      3.0274      3.0824      3.1797      3.3280    
  3.5427      3.8452      4.2622      4.8239      5.5596      6.4919      7.6277      8.9501      10.411      11.930    
  13.400      14.699      15.706      16.320      16.474      16.150      15.380      14.242      12.846      11.318    
  9.7792      8.3323      7.0483      5.9650      5.0903      4.4113      3.9036      3.5388      3.2894      3.1311    
  3.0074      2.8983      2.8641      2.8963      2.9930      3.1599      3.4112      3.7708      4.2717      4.9547    
  5.8630      7.0351      8.4933      10.231      12.203      14.319      16.446      18.425      20.083      21.261    
  21.839      21.754      21.011      19.686      17.911      15.852      13.685      11.569      9.6292      7.9446    
  6.5502      5.4430      4.5951      3.9666      3.5158      3.2059      3.1421      2.9208      2.8089      2.7930    
  2.8676      3.0351      3.3085      3.7131      4.2888      5.0877      6.1704      7.5951      9.4048      11.610    
  14.173      17.000      19.936      22.779      25.300      27.272      28.502      28.862      28.309      26.896    
  24.766      22.124      19.208      16.251      13.450      10.947      8.8233      7.1021      5.7618      4.7534    
  4.0173      3.4960      3.4718      3.0938      2.8702      2.7777      2.8051      2.9517      3.2282      3.6612    
  4.2958      5.1967      6.4429      8.1169      10.288      12.990      16.203      19.835      23.715      27.602    
  31.207      34.213      36.324      37.365      37.253      35.975      33.614      30.403      26.662      22.711    
  18.841      15.280      12.179      9.6073      7.5680      6.0127      4.8654      4.0432      4.0380      3.4417    
  3.0629      2.8606      2.8128      2.9133      3.1701      3.6093      4.2805      5.2592      6.6436      8.5431    
  11.058      14.256      18.141      22.634      27.557      32.635      37.407      41.350      44.199      45.887    
  46.418      45.757      43.827      40.596      36.233      31.211      26.096      21.243      16.901      13.212    
  10.222      7.9027      6.1700      4.9175      4.9057      4.0036      3.4109      3.0574      2.9025      2.9291    
  3.1398      3.5589      4.2379      5.2610      6.7438      8.8233      11.636      15.287      19.819      25.175    
  31.183      37.429      43.055      47.456      50.482      52.309      53.207      53.302      52.465      50.377    
  46.747      41.584      35.384      29.062      23.237      18.160      13.948      10.611      8.0750      6.2197    
  6.1622      4.8364      3.9493      3.3907      3.0903      3.0121      3.1484      3.5181      4.1719      5.1986    
  6.7281      8.9225      11.955      15.976      21.074      27.230      34.280      41.462      47.537      51.775    
  54.142      55.163      55.570      55.907      56.231      56.073      54.654      51.291      45.800      38.740    
  31.328      24.632      18.937      14.320      10.739      8.0735      7.9078      6.0118      4.7251      3.8904    
  3.3964      3.1783      3.2100      3.5002      4.0940      5.0803      6.5973      8.8272      11.978      16.246    
  21.774      28.596      36.543      44.464      50.690      54.235      55.095      54.149      52.748      52.128    
  52.871      54.650      56.344      56.516      54.035      48.597      40.947      32.674      25.295      19.165    
  14.300      10.604      10.235      7.6061      5.7938      4.5933      3.8454      3.4454      3.3401      3.5208    
  4.0211      4.9237      6.3676      8.5478      11.699      16.063      21.839      29.126      37.783      46.363    
  52.695      55.358      54.178      50.267      45.615      42.367      42.005      44.760      49.499      54.168    
  56.587      55.273      49.998      41.879      32.984      25.180      18.838      13.908      13.201      9.6821    
  7.2097      5.5399      4.4648      3.8331      3.5550      3.5962      3.9724      4.7525      6.0681      8.1166    
  11.150      15.445      21.257      28.757      37.892      47.150      53.835      55.916      52.783      45.504    
  36.540      28.985      25.517      27.400      33.987      42.959      51.193      55.890      55.497      50.150    
  41.541      32.259      24.328      18.014      16.798      12.266      9.0110      6.7657      5.2822      4.3619    
  3.8712      3.7426      3.9668      4.5927      5.7350      7.5819      10.390      14.458      20.087      27.518    
  36.828      46.766      54.241      56.508      52.256      42.136      28.710      15.802      7.3463      6.0309    
  12.278      24.067      37.695      49.126      55.316      55.056      49.155      39.995      30.615      22.855    
  20.933      15.325      11.201      8.2900      6.3190      5.0499      4.3043      3.9749      4.0224      4.4696    
  5.4064      6.9998      9.4961      13.202      18.449      25.534      34.645      45.089      53.752      57.214    
  53.284      41.833      25.034      6.9602     -7.4721     -14.057     -10.816      1.2212      18.398      35.807    
  48.978      55.174      53.958      47.009      37.369      28.252      25.418      18.753      13.733      10.102    
  7.5814      5.9082      4.8658      4.3061      4.1549      4.4053      5.1169      6.4260      8.5546      11.800    
  16.503      23.002      31.556      42.043      51.982      57.509      55.550      44.944      27.007      5.4464    
 -14.435     -27.236     -29.275     -20.000     -2.2314      18.924      37.938      50.603      55.052      51.898    
  43.688      33.903      29.976      22.372      16.501      12.149      9.0497      6.9338      5.5597      4.7438    
  4.3759      4.4170      4.8944      5.9081      7.6439      10.372      14.426      20.157      27.880      37.768    
  48.563      56.501      57.830      50.305      34.067      11.889     -11.275     -29.517     -37.791     -33.746    
 -18.678      2.9674      25.295      42.989      52.795      54.074      48.517      39.309      34.264      25.937    
  19.343      14.331      10.671      8.1028      6.3774      5.2875      4.6906      4.5155      4.7578      5.4809    
  6.8268      9.0248      12.380      17.239      23.941      32.744      43.459      53.387      58.512      55.685    
  43.781      24.266      1.0923     -20.147     -33.777     -35.958     -26.164     -7.4175      14.894      35.012    
  48.629      53.878      51.397      43.717      37.868      29.165      22.052      16.509      12.358      9.3657    
  7.2936      5.9254      5.0954      4.7037      4.7170      5.1644      6.1439      7.8348      10.499      14.456    
  20.047      27.566      37.182      47.929      56.308      58.671      52.781      38.678      18.907     -1.9547    
 -18.461     -26.000     -22.461     -9.0856      10.019      29.474      44.515      52.328      52.500      46.698    
  40.394      31.775      24.406      18.516      13.992      10.647      8.2638      6.6322      5.5764      4.9758    
  4.7723      4.9655      5.6141      6.8466      8.8709      11.965      16.446      22.617      30.708      40.713    
  50.861      57.615      58.013      50.809      37.014      19.773      3.5996     -6.9481     -8.8233     -1.6472    
  12.137      28.245      42.166      50.632      52.394      48.230      41.690      33.529      26.192      20.178    
  15.443      11.853      9.2249      7.3682      6.1091      5.3169      4.9149      4.8797      5.2381      6.0735    
  7.5385      9.8563      13.303      18.171      24.708      33.054      42.971      52.253      57.779      57.387    
  50.687      39.270      26.316      15.658      10.524      12.368      20.314      31.529      42.358      49.648    
  51.693      48.534      41.780      34.272      27.248      21.344      16.581      12.880      10.102      8.0812    
  6.6586      5.7032      5.1281      4.8937      5.0036      5.5060      6.5032      8.1609      10.703      14.388    
  19.463      26.107      34.364      43.806      52.233      57.120      57.036      52.154      44.204      35.912    
  30.075      28.562      31.622      37.815      44.641      49.527      50.740      47.863      40.763      33.967    