Te                                      
   1.00000000000000     
     4.507880    0.000000    0.000000
    -2.253940    3.903939    0.000000
     0.000000    0.000000    5.963460
   Te
     3
Direct
  0.269660  0.000000  0.333333
  0.000000  0.269660  0.666667
  0.730340  0.730340  0.000000
 
   36   36   48
 0.28362237230E+02 0.24543974109E+02 0.20863690179E+02 0.17471490500E+02 0.14469061194E+02
 0.11909818387E+02 0.98022941739E+01 0.81172233277E+01 0.67991972275E+01 0.57819563460E+01
 0.50037975170E+01 0.44186541338E+01 0.40001679535E+01 0.37394487798E+01 0.36402313167E+01
 0.37160574180E+01 0.39922404277E+01 0.45116438563E+01 0.53399561701E+01 0.65650477512E+01
 0.82864593735E+01 0.10594358921E+02 0.13541446081E+02 0.17114660466E+02 0.21214120993E+02
 0.25644489211E+02 0.30121927895E+02 0.34298996087E+02 0.37749579958E+02 0.40097751748E+02
 0.41230938686E+02 0.41216983075E+02 0.40183198851E+02 0.38243909212E+02 0.35503581982E+02
 0.32117788480E+02 0.24543951820E+02 0.21543580989E+02 0.18585791973E+02 0.15808003358E+02
 0.13307766132E+02 0.11142165095E+02 0.93298850635E+01 0.78564476153E+01 0.66832127544E+01
 0.57594297900E+01 0.50348514621E+01 0.44696542270E+01 0.40393238232E+01 0.37342756195E+01
 0.35561988022E+01 0.35143967557E+01 0.36249999887E+01 0.39138215585E+01 0.44209126386E+01
 0.52031816206E+01 0.63314961165E+01 0.78800566867E+01 0.99080976004E+01 0.12437052827E+02
 0.15429169042E+02 0.18774107321E+02 0.22287896363E+02 0.25725953996E+02 0.28810491693E+02
 0.31270548779E+02 0.32887435842E+02 0.33530800007E+02 0.33187864789E+02 0.31943898734E+02
 0.29951334056E+02 0.27413466465E+02 0.20863663783E+02 0.18585782008E+02 0.16276882734E+02
 0.14061673436E+02 0.12032459147E+02 0.10247340325E+02 0.87312965364E+01 0.74803223900E+01
 0.64687267607E+01 0.56587686451E+01 0.50107417152E+01 0.44912329884E+01 0.40778943347E+01
 0.37603706433E+01 0.35383682786E+01 0.34187074603E+01 0.34133452858E+01 0.35396405630E+01
 0.38226686694E+01 0.42978772035E+01 0.50116465638E+01 0.60175399722E+01 0.73668649009E+01
 0.90937429424E+01 0.11197423278E+02 0.13626997623E+02 0.16273990476E+02 0.18976094870E+02
 0.21532507640E+02 0.23729397758E+02 0.25372103676E+02 0.26317599030E+02 0.26498366570E+02
 0.25930330868E+02 0.24703297943E+02 0.22958829568E+02 0.17471455972E+02 0.15808002944E+02
 0.14061702029E+02 0.12342843061E+02 0.10737007469E+02 0.93015180202E+01 0.80652450587E+01
 0.70317411076E+01 0.61852987751E+01 0.54987725915E+01 0.49415682265E+01 0.44862587160E+01
 0.41127742746E+01 0.38099466914E+01 0.35750210737E+01 0.34121233571E+01 0.33306045984E+01
 0.33440251060E+01 0.34702803616E+01 0.37327014957E+01 0.41610673533E+01 0.47909739340E+01
 0.56601436952E+01 0.68007989691E+01 0.82283032158E+01 0.99281860663E+01 0.11845662305E+02
 0.13882152215E+02 0.15901421085E+02 0.17745025431E+02 0.19254403255E+02 0.20295469152E+02
 0.20780525989E+02 0.20682057115E+02 0.20034591879E+02 0.18924480644E+02 0.14469021627E+02
 0.13307765292E+02 0.12032508783E+02 0.10737051020E+02 0.94983353769E+01 0.83712554941E+01
 0.73869686223E+01 0.65547609497E+01 0.58668457020E+01 0.53046687252E+01 0.48452005740E+01
 0.44661503571E+01 0.41495091015E+01 0.38833071890E+01 0.36620309865E+01 0.34863789304E+01
 0.33626979971E+01 0.33020890976E+01 0.33193690138E+01 0.34324092585E+01 0.36620797952E+01
 0.40322398640E+01 0.45687125092E+01 0.52962211296E+01 0.62326191028E+01 0.73805467605E+01
 0.87182127692E+01 0.10192654225E+02 0.11719061585E+02 0.13187910444E+02 0.14478881092E+02
 0.15478574819E+02 0.16098367747E+02 0.16288738823E+02 0.16046727837E+02 0.15414427843E+02
 0.11909809310E+02 0.11142158528E+02 0.10247368321E+02 0.93015532742E+01 0.83712607142E+01
 0.75072920249E+01 0.67417593226E+01 0.60884927932E+01 0.55462894012E+01 0.51036849929E+01
 0.47438170647E+01 0.44485203097E+01 0.42013281440E+01 0.39893206539E+01 0.38040921968E+01
 0.36423817610E+01 0.35066014800E+01 0.34048405176E+01 0.33498669386E+01 0.33574390382E+01
 0.34448701160E+01 0.36303873930E+01 0.39328097111E+01 0.43704868101E+01 0.49586554567E+01
 0.57049787972E+01 0.66037490776E+01 0.76301006757E+01 0.87364139474E+01 0.98532063014E+01
 0.10895678891E+02 0.11775112059E+02 0.12412594033E+02 0.12751912518E+02 0.12768713890E+02
 0.12473809568E+02 0.98023236773E+01 0.93298843802E+01 0.87312909693E+01 0.80652391236E+01
 0.73869408804E+01 0.67417227751E+01 0.61613543942E+01 0.56631768941E+01 0.52516485695E+01
 0.49213922477E+01 0.46606623417E+01 0.44545160714E+01 0.42874020010E+01 0.41450740008E+01
 0.40159601794E+01 0.38924007692E+01 0.37720043666E+01 0.36586587947E+01 0.35623278235E+01
 0.34973876117E+01 0.34803421721E+01 0.35280826026E+01 0.36570691039E+01 0.38827816483E+01
 0.42184857653E+01 0.46728816070E+01 0.52468825129E+01 0.59300913648E+01 0.66976975999E+01
 0.75089154863E+01 0.83084665380E+01 0.90321282509E+01 0.96158053395E+01 0.10005948087E+02
 0.10168607357E+02 0.10094989876E+02 0.81172390603E+01 0.78564480717E+01 0.74803028077E+01
 0.70317208352E+01 0.65547343319E+01 0.60884495387E+01 0.56631434856E+01 0.52985502511E+01
 0.50039277332E+01 0.47793402651E+01 0.46176090101E+01 0.45065169376E+01 0.44309747028E+01
 0.43749346712E+01 0.43230698702E+01 0.42625428123E+01 0.41850852674E+01 0.40889484199E+01
 0.39797592042E+01 0.38696526726E+01 0.37750069132E+01 0.37138167947E+01 0.37036867803E+01
 0.37607301094E+01 0.38988323120E+01 0.41284166291E+01 0.44543825895E+01 0.48737550073E+01
 0.53738273007E+01 0.59311438831E+01 0.65115014905E+01 0.70716593339E+01 0.75636549712E+01
 0.79416410517E+01 0.81696627015E+01 0.82281332478E+01 0.67991689714E+01 0.66832063411E+01
 0.64687068941E+01 0.61852891010E+01 0.58668648720E+01 0.55463054658E+01 0.52516408146E+01
 0.50039189593E+01 0.48162557749E+01 0.46936539764E+01 0.46334385324E+01 0.46262607830E+01
 0.46575335407E+01 0.47090867562E+01 0.47610043122E+01 0.47939007039E+01 0.47918182255E+01
 0.47452724567E+01 0.46533750176E+01 0.45241530683E+01 0.43729994397E+01 0.42198884864E+01
 0.40862805117E+01 0.39926004457E+01 0.39566877343E+01 0.39927529421E+01 0.41100152200E+01
 0.43109554841E+01 0.45900618865E+01 0.49336815654E+01 0.53205357247E+01 0.57223457470E+01
 0.61051588808E+01 0.64326074671E+01 0.66713091802E+01 0.67969757838E+01 0.57819332790E+01
 0.57594485076E+01 0.56587636441E+01 0.54987589262E+01 0.53047048572E+01 0.51037533142E+01
 0.49214291259E+01 0.47793434714E+01 0.46936599916E+01 0.46739295793E+01 0.47222610289E+01
 0.48329455863E+01 0.49926378043E+01 0.51811853863E+01 0.53732637647E+01 0.55410649292E+01
 0.56581489344E+01 0.57039327560E+01 0.56675522822E+01 0.55498370723E+01 0.53629950441E+01
 0.51284123514E+01 0.48731675840E+01 0.46259267625E+01 0.44131664648E+01 0.42565536090E+01
 0.41714813380E+01 0.41661647497E+01 0.42410971088E+01 0.43892271741E+01 0.45968708849E+01
 0.48447061787E+01 0.51085240319E+01 0.53604864835E+01 0.55719531219E+01 0.57179334529E+01
 0.50038243554E+01 0.50349273523E+01 0.50107748917E+01 0.49415390083E+01 0.48451922802E+01
 0.47438625983E+01 0.46606932260E+01 0.46175922779E+01 0.46334317300E+01 0.47222883983E+01
 0.48916578941E+01 0.51407009679E+01 0.54587194114E+01 0.58244007987E+01 0.62065726062E+01
 0.65669860969E+01 0.68651480745E+01 0.70645515222E+01 0.71389106671E+01 0.70767073446E+01
 0.68829903988E+01 0.65784069087E+01 0.61958959954E+01 0.57754494343E+01 0.53577794544E+01
 0.49785355023E+01 0.46646225748E+01 0.44328931485E+01 0.42903815254E+01 0.42353193889E+01
 0.42586695166E+01 0.43458540940E+01 0.44781252886E+01 0.46334833111E+01 0.47879003634E+01
 0.49177921011E+01 0.44186932694E+01 0.44697419101E+01 0.44912898141E+01 0.44862279212E+01
 0.44660943181E+01 0.44485112124E+01 0.44545141691E+01 0.45064633784E+01 0.46262068079E+01
 0.48329676662E+01 0.51407580385E+01 0.55552701260E+01 0.60703938247E+01 0.66652159367E+01
 0.73030130016E+01 0.79334537837E+01 0.84981523345E+01 0.89387346990E+01 0.92059640012E+01
 0.92680012123E+01 0.91158442818E+01 0.87647783401E+01 0.82517979678E+01 0.76296226976E+01
 0.69582541040E+01 0.62956577738E+01 0.56898066474E+01 0.51739968213E+01 0.47659441544E+01
 0.44697616365E+01 0.42793436244E+01 0.41818107460E+01 0.41601058506E+01 0.41944893523E+01
 0.42634391071E+01 0.43449101029E+01 0.40001697927E+01 0.40393424969E+01 0.40779127109E+01
 0.41127464329E+01 0.41494539501E+01 0.42013090858E+01 0.42874103755E+01 0.44309422538E+01
 0.46574670787E+01 0.49926235240E+01 0.54587763489E+01 0.60704419580E+01 0.68286351990E+01
 0.77151794015E+01 0.86891125622E+01 0.96873125969E+01 0.10630066534E+02 0.11430777992E+02
 0.12008259268E+02 0.12299591718E+02 0.12270904065E+02 0.11923372218E+02 0.11292995786E+02
 0.10444509418E+02 0.94609090359E+01 0.84304776716E+01 0.74336671823E+01 0.65327119077E+01
 0.57664393971E+01 0.51509380977E+01 0.46844735750E+01 0.43538129265E+01 0.41395730818E+01
 0.40196709917E+01 0.39712164326E+01 0.39716816857E+01 0.37394358707E+01 0.37342261035E+01
 0.37603239520E+01 0.38099126753E+01 0.38832852004E+01 0.39893326216E+01 0.41451220129E+01
 0.43749705963E+01 0.47090795524E+01 0.51811720696E+01 0.58244178909E+01 0.66652354465E+01
 0.77151716308E+01 0.89621318878E+01 0.10363508848E+02 0.11844123373E+02 0.13300674145E+02
 0.14612468647E+02 0.15656883323E+02 0.16327309271E+02 0.16550519495E+02 0.16299625583E+02
 0.15599225715E+02 0.14521363422E+02 0.13173414398E+02 0.11680715834E+02 0.10167452893E+02
 0.87395046435E+01 0.74726880601E+01 0.64086206636E+01 0.55581048326E+01 0.49094538066E+01
 0.44380199300E+01 0.41139880667E+01 0.39073599696E+01 0.37905330093E+01 0.36402426976E+01
 0.35561568389E+01 0.35383122988E+01 0.35749972199E+01 0.36620435111E+01 0.38041254464E+01
 0.40160063238E+01 0.43231187122E+01 0.47610404415E+01 0.53732843578E+01 0.62065800071E+01
 0.73029946476E+01 0.86890645508E+01 0.10363467147E+02 0.12286165930E+02 0.14372574683E+02
 0.16495509132E+02 0.18495822542E+02 0.20200633833E+02 0.21446594626E+02 0.22104575492E+02
 0.22101249784E+02 0.21432717176E+02 0.20166354839E+02 0.18429813592E+02 0.16389626692E+02
 0.14224621410E+02 0.12100046521E+02 0.10147288568E+02 0.84523182133E+01 0.70541041333E+01
 0.59519265861E+01 0.51181177142E+01 0.45115979364E+01 0.40885866367E+01 0.38091666560E+01
 0.37160710311E+01 0.35143930087E+01 0.34186980868E+01 0.34121396132E+01 0.34864206229E+01
 0.36424141971E+01 0.38924009464E+01 0.42625244241E+01 0.47938916361E+01 0.55410754729E+01
 0.65670003453E+01 0.79334459179E+01 0.96872760432E+01 0.11844083456E+02 0.14372559047E+02
 0.17183731512E+02 0.20128907482E+02 0.23008696361E+02 0.25593150882E+02 0.27650384059E+02
 0.28979001659E+02 0.29438910571E+02 0.28975115154E+02 0.27629383108E+02 0.25535753099E+02
 0.22899129488E+02 0.19961372932E+02 0.16963482923E+02 0.14112866322E+02 0.11561588206E+02
 0.93976329621E+01 0.76484064178E+01 0.62936892453E+01 0.52835283744E+01 0.45559226511E+01
 0.40504130360E+01 0.39922239379E+01 0.36249949204E+01 0.34133612869E+01 0.33306473795E+01
 0.33627498347E+01 0.35066242882E+01 0.37719740902E+01 0.41850178716E+01 0.47917543360E+01
 0.56581163105E+01 0.68651442477E+01 0.84981600135E+01 0.10630076966E+02 0.13300690430E+02
 0.16495530385E+02 0.20128921415E+02 0.24036170387E+02 0.27979163845E+02 0.31667245563E+02
 0.34773076132E+02 0.36995138803E+02 0.38156447090E+02 0.38165151795E+02 0.36989074563E+02
 0.34687560504E+02 0.31479826293E+02 0.27697836286E+02 0.23673033475E+02 0.19710959580E+02
 0.16054994071E+02 0.12867004077E+02 0.10225086581E+02 0.81343709980E+01 0.65465264062E+01
 0.53831595676E+01 0.45578116505E+01 0.45116249556E+01 0.39137994471E+01 0.35396386366E+01
 0.33440481636E+01 0.33021140659E+01 0.34048397906E+01 0.36586283178E+01 0.40889084552E+01
 0.47452439310E+01 0.57039186245E+01 0.70645429495E+01 0.89387313887E+01 0.11430793801E+02
 0.14612510869E+02 0.18495871907E+02 0.23008722329E+02 0.27979162307E+02 0.33130916721E+02
 0.37975926322E+02 0.41989717298E+02 0.44919725709E+02 0.46716132079E+02 0.47387740286E+02
 0.46888812508E+02 0.45107103439E+02 0.41968649229E+02 0.37606825205E+02 0.32492810812E+02
 0.27241936481E+02 0.22240969629E+02 0.17755856003E+02 0.13942564552E+02 0.10854608331E+02
 0.84629139122E+01 0.66827733011E+01 0.54029853143E+01 0.53399704301E+01 0.44209065909E+01
 0.38226589122E+01 0.34702767665E+01 0.33193560198E+01 0.33498330487E+01 0.35622948727E+01
 0.39797626966E+01 0.46534219041E+01 0.56676113055E+01 0.71389433892E+01 0.92059605075E+01
 0.12008244127E+02 0.15656885559E+02 0.20200651295E+02 0.25593154520E+02 0.31667223175E+02
 0.37975903062E+02 0.43632560860E+02 0.48036763176E+02 0.51060106532E+02 0.52918362844E+02
 0.53917863499E+02 0.54200298252E+02 0.53612197033E+02 0.51771594809E+02 0.48310864773E+02
 0.43182985733E+02 0.36873606008E+02 0.30349962455E+02 0.24317759484E+02 0.19052008320E+02
 0.14683010577E+02 0.11223975186E+02 0.86011648145E+01 0.66881891239E+01 0.65650721268E+01
 0.52031964161E+01 0.42978840738E+01 0.37327062338E+01 0.34323959339E+01 0.33573985140E+01
 0.34973510842E+01 0.38696628655E+01 0.45242122374E+01 0.55499076193E+01 0.70767531671E+01
 0.92680100477E+01 0.12299570577E+02 0.16327276287E+02 0.21446565662E+02 0.27650357723E+02
 0.34773044284E+02 0.41989689393E+02 0.48036755042E+02 0.52182442668E+02 0.54415701226E+02
 0.55314627690E+02 0.55690200423E+02 0.56149818937E+02 0.56767553043E+02 0.57016079268E+02
 0.56004925467E+02 0.52928931832E+02 0.47529806571E+02 0.40358203689E+02 0.32694307759E+02
 0.25735941131E+02 0.19814828134E+02 0.15015680887E+02 0.11298407266E+02 0.85380064441E+01
 0.82864647750E+01 0.63314965671E+01 0.50116474003E+01 0.41610848602E+01 0.36620976956E+01
 0.34448620240E+01 0.34803251289E+01 0.37750172984E+01 0.43730269308E+01 0.53629971285E+01
 0.68829635293E+01 0.91158241720E+01 0.12270901461E+02 0.16550510278E+02 0.22104551589E+02
 0.28978982295E+02 0.36995133626E+02 0.44919728602E+02 0.51060117769E+02 0.54415717611E+02
 0.54988321273E+02 0.53714136643E+02 0.52053350201E+02 0.51369588825E+02 0.52331780281E+02
 0.54596622604E+02 0.56927621738E+02 0.57711560425E+02 0.55654320712E+02 0.50366774221E+02
 0.42602111153E+02 0.34039472108E+02 0.26354792790E+02 0.19971875400E+02 0.14913374071E+02
 0.11077514938E+02 0.10594367758E+02 0.78800441779E+01 0.60175082039E+01 0.47909662675E+01
 0.40322676678E+01 0.36304103658E+01 0.35280880633E+01 0.37138376086E+01 0.42199157448E+01
 0.51283818206E+01 0.65783110197E+01 0.87647028448E+01 0.11923375533E+02 0.16299663286E+02
 0.22101264656E+02 0.29438917424E+02 0.38156477960E+02 0.46716170596E+02 0.52918384941E+02
 0.55314645351E+02 0.53714157325E+02 0.49262779515E+02 0.44070808887E+02 0.40466068331E+02
 0.40102239343E+02 0.43277447587E+02 0.48781916197E+02 0.54362110633E+02 0.57597792928E+02
 0.56820949201E+02 0.51727557933E+02 0.43477536469E+02 0.34258414527E+02 0.26123953157E+02
 0.19521058548E+02 0.14399561991E+02 0.13541468691E+02 0.99081122654E+01 0.73668320387E+01
 0.56601006540E+01 0.45687158934E+01 0.39328350228E+01 0.36570688767E+01 0.37036872455E+01
 0.40863153787E+01 0.48731827536E+01 0.61958361232E+01 0.82517258385E+01 0.11293004901E+02
 0.15599289667E+02 0.21432746460E+02 0.28975110367E+02 0.38165175777E+02 0.47387784250E+02
 0.53917867462E+02 0.55690173274E+02 0.52053351327E+02 0.44070836181E+02 0.34301422489E+02
 0.26049966377E+02 0.22243131853E+02 0.24320150272E+02 0.31637914003E+02 0.41698365187E+02
 0.51097345702E+02 0.56757290325E+02 0.56947426564E+02 0.51766487068E+02 0.42988277289E+02
 0.33355309792E+02 0.25091750929E+02 0.18528803755E+02 0.17114641926E+02 0.12437090667E+02
 0.90937563443E+01 0.68007608246E+01 0.52962033776E+01 0.43705102900E+01 0.38827765546E+01
 0.37606833226E+01 0.39925894078E+01 0.46259698110E+01 0.57754737420E+01 0.76296146524E+01
 0.10444541323E+02 0.14521435903E+02 0.20166372640E+02 0.27629328012E+02 0.36989042938E+02
 0.46888836998E+02 0.54200291980E+02 0.56149747139E+02 0.51369539335E+02 0.40466094194E+02
 0.26050004221E+02 0.12140564011E+02 0.29699899022E+01 0.15014189558E+01 0.82725745561E+01
 0.21152848313E+02 0.36158262106E+02 0.48914594530E+02 0.56104922371E+02 0.56386946643E+02
 0.50584760144E+02 0.41205025012E+02 0.31459573422E+02 0.23391396078E+02 0.21214030658E+02
 0.15429182637E+02 0.11197478777E+02 0.82283014100E+01 0.62325970958E+01 0.49586854109E+01
 0.42185153562E+01 0.38987848956E+01 0.39566194894E+01 0.44131701763E+01 0.53578276169E+01
 0.69582792478E+01 0.94609360137E+01 0.13173472417E+02 0.18429828444E+02 0.25535673420E+02
 0.34687480493E+02 0.45107113358E+02 0.53612224913E+02 0.56767503605E+02 0.52331713305E+02
 0.40102252545E+02 0.22243181375E+02 0.29699914019E+01 -.12505589749E+02 -.19630828512E+02
 -.16196452629E+02 -.32385390066E+01 0.15350482713E+02 0.34305215279E+02 0.48814081750E+02
 0.55921683917E+02 0.55125907827E+02 0.48176599295E+02 0.38265722028E+02 0.28796323483E+02
 0.25644400614E+02 0.18774095284E+02 0.13627063255E+02 0.99282118639E+01 0.73805135487E+01
 0.57049881440E+01 0.46729459792E+01 0.41284299476E+01 0.39926942827E+01 0.42565235492E+01
 0.49785643042E+01 0.62956662858E+01 0.84304480168E+01 0.11680713908E+02 0.16389643001E+02
 0.22899087385E+02 0.31479755915E+02 0.41968659998E+02 0.51771671166E+02 0.57016101042E+02
 0.54596586939E+02 0.43277462876E+02 0.24320210566E+02 0.15014060768E+01 -.19630906892E+02
 -.33308921163E+02 -.35531548653E+02 -.25634336064E+02 -.65901278822E+01 0.16159161464E+02
 0.36710143874E+02 0.50572291523E+02 0.55740746418E+02 0.52837785065E+02 0.44521576591E+02
 0.34432009478E+02 0.30121925469E+02 0.22287903507E+02 0.16274052120E+02 0.11845698733E+02
 0.87181627201E+01 0.66037010888E+01 0.52469209639E+01 0.44544376218E+01 0.41100046819E+01
 0.41714616960E+01 0.46646572094E+01 0.56898255041E+01 0.74336024950E+01 0.10167378978E+02
 0.14224619883E+02 0.19961393523E+02 0.27697822741E+02 0.37606836871E+02 0.48310942341E+02
 0.56004983905E+02 0.56927607451E+02 0.48781916702E+02 0.31637979750E+02 0.82725954424E+01
 -.16196551569E+02 -.35531653571E+02 -.44327023350E+02 -.40018053778E+02 -.23942100568E+02
 -.81807758424E+00 0.23087079341E+02 0.42134248340E+02 0.52878808430E+02 0.54633457149E+02
 0.49154129944E+02 0.39755589765E+02 0.34299057356E+02 0.25725977268E+02 0.18976131552E+02
 0.13882186206E+02 0.10192613227E+02 0.76300180848E+01 0.59300731324E+01 0.48737944532E+01
 0.43109596891E+01 0.41661426868E+01 0.44329292197E+01 0.51740609118E+01 0.65326932769E+01
 0.87394205111E+01 0.12100023136E+02 0.16963540062E+02 0.23673074567E+02 0.32492811651E+02
 0.43183006554E+02 0.52928960390E+02 0.57711530828E+02 0.54362059776E+02 0.41698385223E+02
 0.21152905631E+02 -.32385539409E+01 -.25634408776E+02 -.40018083640E+02 -.42273479830E+02
 -.31808932910E+02 -.11828041330E+02 0.11952719926E+02 0.33441766432E+02 0.48103520687E+02
 0.53981518093E+02 0.51736916338E+02 0.43992149439E+02 0.37749631059E+02 0.28810480016E+02
 0.21532477550E+02 0.15901425551E+02 0.11719055696E+02 0.87363656819E+01 0.66976699995E+01
 0.53738519353E+01 0.45900655881E+01 0.42410475027E+01 0.42903644682E+01 0.47660028604E+01
 0.57664824928E+01 0.74726563423E+01 0.10147266599E+02 0.14112923260E+02 0.19711021005E+02
 0.27241922272E+02 0.36873560791E+02 0.47529788180E+02 0.55654290756E+02 0.57597721791E+02
 0.51097300013E+02 0.36158289146E+02 0.15350527591E+02 -.65901069826E+01 -.23942062833E+02
 -.31808874603E+02 -.27938366359E+02 -.13648943124E+02 0.66974554414E+01 0.27414371551E+02
 0.43492772045E+02 0.51997380152E+02 0.52504696705E+02 0.46741292478E+02 0.40097783570E+02
 0.31270505315E+02 0.23729305489E+02 0.17744984988E+02 0.13187932043E+02 0.98532243207E+01
 0.75089250129E+01 0.59311824641E+01 0.49337141362E+01 0.43891916898E+01 0.42352548565E+01
 0.44697544516E+01 0.51509747709E+01 0.64086274107E+01 0.84523069682E+01 0.11561621908E+02
 0.16055042969E+02 0.22240948972E+02 0.30349888003E+02 0.40358168306E+02 0.50366789554E+02
 0.56820944943E+02 0.56757252635E+02 0.48914577563E+02 0.34305232799E+02 0.16159184954E+02
 -.81803732332E+00 -.11827963835E+02 -.13648876956E+02 -.58919586459E+01 0.88358695154E+01
 0.25995932091E+02 0.40845143964E+02 0.49975656806E+02 0.52101180432E+02 0.48033076182E+02
 0.41230982179E+02 0.32887422312E+02 0.25372027280E+02 0.19254356103E+02 0.14478913238E+02
 0.10895733482E+02 0.83084922658E+01 0.65115258907E+01 0.53205789833E+01 0.45968880437E+01
 0.42586355995E+01 0.42793069468E+01 0.46844707127E+01 0.55581062073E+01 0.70540898832E+01
 0.93976344374E+01 0.12867023960E+02 0.17755839903E+02 0.24317699011E+02 0.32694281473E+02
 0.42602166569E+02 0.51727636241E+02 0.56947458685E+02 0.56104918744E+02 0.48814074625E+02
 0.36710122267E+02 0.23087037857E+02 0.11952698416E+02 0.66974755169E+01 0.88358947328E+01
 0.17412341822E+02 0.29413007618E+02 0.40984615538E+02 0.48835413553E+02 0.51204873589E+02
 0.48147274654E+02 0.41217021281E+02 0.33530823462E+02 0.26317590686E+02 0.20295467663E+02
 0.15478616328E+02 0.11775162615E+02 0.90321306008E+01 0.70716232004E+01 0.57223294039E+01
 0.48447257601E+01 0.43458743285E+01 0.41818133541E+01 0.43538122366E+01 0.49094522780E+01
 0.59519122669E+01 0.76483879770E+01 0.10225079834E+02 0.13942556493E+02 0.19051985259E+02
 0.25735934208E+02 0.34039517926E+02 0.43477609677E+02 0.51766531499E+02 0.56386956601E+02
 0.55921691574E+02 0.50572289806E+02 0.42134197972E+02 0.33441676035E+02 0.27414302507E+02
 0.25995916720E+02 0.29413017453E+02 0.36118217512E+02 0.43462716684E+02 0.48754906960E+02
 0.50201408401E+02 0.47383753008E+02 0.40183194905E+02 0.33187858392E+02 0.26498379235E+02
 0.20780561149E+02 0.16098411226E+02 0.12412619327E+02 0.96157842176E+01 0.75635870468E+01
 0.61050866327E+01 0.51084950366E+01 0.44781431077E+01 0.41601377771E+01 0.41395960564E+01
 0.44380337252E+01 0.51181225931E+01 0.62936809147E+01 0.81343564730E+01 0.10854603216E+02
 0.14683020605E+02 0.19814847530E+02 0.26354812202E+02 0.34258418093E+02 0.42988250569E+02
 0.50584719401E+02 0.55125897657E+02 0.55740781810E+02 0.52878843022E+02 0.48103505705E+02
 0.43492724856E+02 0.40845119146E+02 0.40984626324E+02 0.43462730271E+02 0.46801174593E+02
 0.49150797089E+02 0.49040899415E+02 0.45897714989E+02 0.38243884328E+02 0.31943839117E+02
 0.25930303184E+02 0.20682080001E+02 0.16288763926E+02 0.12751902506E+02 0.10005916630E+02
 0.79416099982E+01 0.64325779329E+01 0.53604630662E+01 0.46334808495E+01 0.41945040356E+01
 0.40196819788E+01 0.41139927837E+01 0.45116102732E+01 0.52835429851E+01 0.65465247164E+01
 0.84629053218E+01 0.11223990096E+02 0.15015717915E+02 0.19971893093E+02 0.26123920867E+02
 0.33355238210E+02 0.41204947492E+02 0.48176550896E+02 0.52837792403E+02 0.54633516341E+02
 0.53981588105E+02 0.51997425303E+02 0.49975683690E+02 0.48835440595E+02 0.48754923719E+02
 0.49150792058E+02 0.48998998596E+02 0.47330216345E+02 0.43668137582E+02 0.35503582970E+02
 0.29951283933E+02 0.24703254232E+02 0.20034598169E+02 0.16046739591E+02 0.12768679064E+02
 0.10168561354E+02 0.81696722653E+01 0.66713683234E+01 0.55720041169E+01 0.47879200328E+01
 0.42634405416E+01 0.39712010571E+01 0.39073294009E+01 0.40885701446E+01 0.45559373364E+01
 0.53831749650E+01 0.66827637471E+01 0.86011579283E+01 0.11298430609E+02 0.14913396604E+02
 0.19521040347E+02 0.25091711319E+02 0.31459553815E+02 0.38265718297E+02 0.44521564045E+02
 0.49154121146E+02 0.51736939060E+02 0.52504742287E+02 0.52101220217E+02 0.51204898414E+02
 0.50201415938E+02 0.49040880129E+02 0.47330186037E+02 0.44598182184E+02 0.40596851729E+02
 0.32117808283E+02 0.27413470228E+02 0.22958826240E+02 0.18924504740E+02 0.15414456457E+02
 0.12473787362E+02 0.10094937032E+02 0.82281345795E+01 0.67970521154E+01 0.57180132358E+01
 0.49178227505E+01 0.43449100771E+01 0.39716706152E+01 0.37905001795E+01 0.38091263326E+01
 0.40504060583E+01 0.45578330123E+01 0.54029869133E+01 0.66881649608E+01 0.85379968874E+01
 0.11077523085E+02 0.14399553354E+02 0.18528794136E+02 0.23391443501E+02 0.28796416722E+02
 0.34432058880E+02 0.39755553625E+02 0.43992084627E+02 0.46741256192E+02 0.48033058861E+02
 0.48147253817E+02 0.47383735556E+02 0.45897700832E+02 0.43668110002E+02 0.40596822350E+02
 0.36673485275E+02 0.28276178165E+02 0.24775464315E+02 0.21389028939E+02 0.18251557093E+02
 0.15456065225E+02 0.13052917840E+02 0.11051791854E+02 0.94272273979E+01 0.81288649517E+01
 0.70958135974E+01 0.62718160100E+01 0.56165307800E+01 0.51097686681E+01 0.47490541006E+01
 0.45442456317E+01 0.45140738059E+01 0.46875400683E+01 0.51092564427E+01 0.58444186793E+01
 0.69781211716E+01 0.86052847955E+01 0.10810632370E+02 0.13641942593E+02 0.17082914874E+02
 0.21032672878E+02 0.25297214741E+02 0.29596606739E+02 0.33591625082E+02 0.36885099936E+02
 0.39115218314E+02 0.40177037663E+02 0.40149357816E+02 0.39170881364E+02 0.37363207215E+02
 0.34829897233E+02 0.31716033503E+02 0.24239743941E+02 0.21544040817E+02 0.18880898962E+02
 0.16371020170E+02 0.14101038903E+02 0.12122230187E+02 0.10451483354E+02 0.90752897344E+01
 0.79575477843E+01 0.70507831575E+01 0.63085044123E+01 0.56953081222E+01 0.51920071571E+01
 0.47952097469E+01 0.45132397064E+01 0.43617829220E+01 0.43623210580E+01 0.45442776501E+01
 0.49490429126E+01 0.56323525322E+01 0.66615966429E+01 0.81059744350E+01 0.10019464381E+02
 0.12419366166E+02 0.15265913750E+02 0.18449299900E+02 0.21788781505E+02 0.25046178953E+02
 0.27954339769E+02 0.30258139142E+02 0.31759544125E+02 0.32351277578E+02 0.32034514514E+02
 0.30900933052E+02 0.29099999452E+02 0.26816795272E+02 0.20361475697E+02 0.18363711227E+02
 0.16338058178E+02 0.14392011821E+02 0.12605460552E+02 0.11028635604E+02 0.96823583564E+01
 0.85611142495E+01 0.76393299923E+01 0.68803043988E+01 0.62460853723E+01 0.57059404579E+01
 0.52414545694E+01 0.48475774715E+01 0.45304387831E+01 0.43037821224E+01 0.41861280893E+01
 0.42001208320E+01 0.43740613710E+01 0.47440874502E+01 0.53547044781E+01 0.62555520345E+01
 0.74930060835E+01 0.90965830355E+01 0.11062492331E+02 0.13339170549E+02 0.15820250561E+02
 0.18348562108E+02 0.20731991311E+02 0.22769621657E+02 0.24283868471E+02 0.25150977755E+02
 0.25320715525E+02 0.24819215939E+02 0.23735829110E+02 0.22200740118E+02 0.16805138298E+02
 0.15388415536E+02 0.13903508367E+02 0.12443838336E+02 0.11081818469E+02 0.98655496222E+01
 0.88180615543E+01 0.79395114848E+01 0.72123068593E+01 0.66082982005E+01 0.60966136727E+01
 0.56505405481E+01 0.52521493626E+01 0.48941388291E+01 0.45792999294E+01 0.43185143894E+01
 0.41282694110E+01 0.40286232941E+01 0.40423568486E+01 0.41953656233E+01 0.45173937640E+01
 0.50416468810E+01 0.58018601068E+01 0.68258016010E+01 0.81251481581E+01 0.96835611132E+01
 0.11446903624E+02 0.13320153214E+02 0.15173847237E+02 0.16859874721E+02 0.18233620345E+02
 0.19177517957E+02 0.19620198591E+02 0.19546224730E+02 0.18994230877E+02 0.18045149396E+02
 0.13678346707E+02 0.12725051924E+02 0.11681700423E+02 0.10626342821E+02 0.96226784080E+01
 0.87156202533E+01 0.79293916297E+01 0.72686115899E+01 0.67221948110E+01 0.62690144912E+01
 0.58840164485E+01 0.55437124508E+01 0.52302650096E+01 0.49337558835E+01 0.46528065774E+01
 0.43940675800E+01 0.41709238229E+01 0.40015723470E+01 0.39069120934E+01 0.39090072930E+01
 0.40305267789E+01 0.42947009832E+01 0.47247515837E+01 0.53416880307E+01 0.61596194557E+01
 0.71784913220E+01 0.83757555482E+01 0.97002434110E+01 0.11071873615E+02 0.12389035764E+02
 0.13542557879E+02 0.14432849397E+02 0.14986010615E+02 0.15165178175E+02 0.14974628948E+02
 0.14456016637E+02 0.11034413711E+02 0.10433868650E+02 0.97369031553E+01 0.90056665231E+01
 0.82939831226E+01 0.76423849519E+01 0.70753711732E+01 0.66012972439E+01 0.62148036084E+01
 0.59008776636E+01 0.56394053222E+01 0.54094532454E+01 0.51928545696E+01 0.49767719865E+01
 0.47551630717E+01 0.45294090014E+01 0.43082710817E+01 0.41069172084E+01 0.39448249213E+01
 0.38431298328E+01 0.38225302108E+01 0.39023779490E+01 0.41005123691E+01 0.44327491218E+01
 0.49110796547E+01 0.55401907108E+01 0.63126061882E+01 0.72036590619E+01 0.81684293480E+01
 0.91429789298E+01 0.10051034675E+02 0.10815094095E+02 0.11369057930E+02 0.11669011796E+02
 0.11699626938E+02 0.11475033079E+02 0.88779011490E+01 0.85323667256E+01 0.80956620692E+01
 0.76148238402E+01 0.71334030831E+01 0.66865777472E+01 0.62981095076E+01 0.59793264400E+01
 0.57300442136E+01 0.55408727926E+01 0.53961745443E+01 0.52772042873E+01 0.51651984185E+01
 0.50441296949E+01 0.49028646143E+01 0.47367259939E+01 0.45485159892E+01 0.43486588143E+01
 0.41539116623E+01 0.39846991840E+01 0.38620862372E+01 0.38056191272E+01 0.38324218695E+01
 0.39568794297E+01 0.41899353390E+01 0.45375236111E+01 0.49982554463E+01 0.55607425797E+01
 0.62011447195E+01 0.68820524549E+01 0.75542333511E+01 0.81621481129E+01 0.86524085221E+01
 0.89827597619E+01 0.91289795488E+01 0.90881396872E+01 0.71739297893E+01 0.70025572300E+01
 0.67526936544E+01 0.64582519871E+01 0.61531543647E+01 0.58669004119E+01 0.56216304561E+01
 0.54306807465E+01 0.52983447265E+01 0.52205034846E+01 0.51859082648E+01 0.51780704928E+01
 0.51777057496E+01 0.51654685698E+01 0.51246289290E+01 0.50435088516E+01 0.49175511318E+01
 0.47505924636E+01 0.45546900129E+01 0.43482352558E+01 0.41529014021E+01 0.39905161826E+01
 0.38808089475E+01 0.38402831288E+01 0.38816888848E+01 0.40132906205E+01 0.42375867362E+01
 0.45498472210E+01 0.49370179219E+01 0.53772289718E+01 0.58401332266E+01 0.62887693696E+01
 0.66836578658E+01 0.69887734359E+01 0.71777368593E+01 0.72382904993E+01 0.58615702598E+01
 0.58016737716E+01 0.56798032604E+01 0.55193611314E+01 0.53460970103E+01 0.51842689082E+01
 0.50539850627E+01 0.49696831837E+01 0.49392456335E+01 0.49633904319E+01 0.50354151075E+01
 0.51416489391E+01 0.52628674079E+01 0.53765876568E+01 0.54599557970E+01 0.54929696960E+01
 0.54617339358E+01 0.53611167346E+01 0.51959694763E+01 0.49804326691E+01 0.47355578549E+01
 0.44859618659E+01 0.42563828735E+01 0.40689597455E+01 0.39416406590E+01 0.38873525759E+01
 0.39131929634E+01 0.40195067804E+01 0.41994800671E+01 0.44396364971E+01 0.47207563632E+01
 0.50187379134E+01 0.53059467485E+01 0.55540682977E+01 0.57384706673E+01 0.58427143498E+01
 0.48698353152E+01 0.48751338893E+01 0.48365839318E+01 0.47695468579E+01 0.46933206112E+01
 0.46278637185E+01 0.45914257871E+01 0.45990817935E+01 0.46615791838E+01 0.47840422774E+01