   3   3   0   0
  0.3498262E+02  0.4507880E-09  0.4507880E-09  0.5963460E-09  0.5000000E-15
  1.000000000000000E-004
  CAR 
 Te                                      
     32.15197219     -9.71863923  301      5.79093309      1.00000000
     -9.719  0.0000E+00  0.0000E+00
     -9.579  0.0000E+00  0.0000E+00
     -9.440  0.0000E+00  0.0000E+00
     -9.300  0.0000E+00  0.0000E+00
     -9.160  0.0000E+00  0.0000E+00
     -9.021  0.0000E+00  0.0000E+00
     -8.881  0.0000E+00  0.0000E+00
     -8.742  0.0000E+00  0.0000E+00
     -8.602  0.0000E+00  0.0000E+00
     -8.463  0.0000E+00  0.0000E+00
     -8.323  0.0000E+00  0.0000E+00
     -8.183  0.0000E+00  0.0000E+00
     -8.044  0.1468E-11  0.2049E-12
     -7.904  0.1693E-03  0.2363E-04
     -7.765  0.6508E-01  0.9107E-02
     -7.625  0.4820E+00  0.7638E-01
     -7.486  0.5846E+00  0.1580E+00
     -7.346  0.8821E+00  0.2811E+00
     -7.206  0.9708E+00  0.4166E+00
     -7.067  0.1279E+01  0.5951E+00
     -6.927  0.1683E+01  0.8300E+00
     -6.788  0.2138E+01  0.1128E+01
     -6.648  0.2858E+01  0.1527E+01
     -6.509  0.1727E+01  0.1768E+01
     -6.369  0.1911E+01  0.2035E+01
     -6.229  0.1403E+01  0.2231E+01
     -6.090  0.9723E+00  0.2367E+01
     -5.950  0.1238E+01  0.2539E+01
     -5.811  0.1857E+01  0.2799E+01
     -5.671  0.1282E+01  0.2978E+01
     -5.532  0.1687E+01  0.3213E+01
     -5.392  0.7873E+00  0.3323E+01
     -5.252  0.2287E+01  0.3642E+01
     -5.113  0.1532E+01  0.3856E+01
     -4.973  0.3203E+00  0.3900E+01
     -4.834  0.4015E+00  0.3956E+01
     -4.694  0.8289E+00  0.4072E+01
     -4.555  0.2082E+01  0.4363E+01
     -4.415  0.2563E+01  0.4720E+01
     -4.275  0.2641E+01  0.5089E+01
     -4.136  0.1320E+01  0.5273E+01
     -3.996  0.1342E+01  0.5461E+01
     -3.857  0.9466E+00  0.5593E+01
     -3.717  0.6578E+00  0.5685E+01
     -3.578  0.3845E+00  0.5738E+01
     -3.438  0.6417E+00  0.5828E+01
     -3.298  0.5361E+00  0.5903E+01
     -3.159  0.1134E+00  0.5918E+01
     -3.019  0.3103E+00  0.5962E+01
     -2.880  0.2089E+00  0.5991E+01
     -2.740  0.4393E-01  0.5997E+01
     -2.601  0.2134E-01  0.6000E+01
     -2.461  0.1721E-04  0.6000E+01
     -2.321  0.9788E-14  0.6000E+01
     -2.182  0.0000E+00  0.6000E+01
     -2.042  0.0000E+00  0.6000E+01
     -1.903  0.0000E+00  0.6000E+01
     -1.763  0.0000E+00  0.6000E+01
     -1.624  0.0000E+00  0.6000E+01
     -1.484  0.0000E+00  0.6000E+01
     -1.345  0.0000E+00  0.6000E+01
     -1.205  0.0000E+00  0.6000E+01
     -1.065  0.0000E+00  0.6000E+01
     -0.926  0.0000E+00  0.6000E+01
     -0.786  0.0000E+00  0.6000E+01
     -0.647  0.0000E+00  0.6000E+01
     -0.507  0.0000E+00  0.6000E+01
     -0.368  0.0000E+00  0.6000E+01
     -0.228  0.0000E+00  0.6000E+01
     -0.088  0.5925E-09  0.6000E+01
      0.051  0.3553E-02  0.6000E+01
      0.191  0.1160E+00  0.6017E+01
      0.330  0.7743E+00  0.6125E+01
      0.470  0.9449E+00  0.6257E+01
      0.609  0.1275E+01  0.6435E+01
      0.749  0.1692E+01  0.6671E+01
      0.889  0.2335E+01  0.6997E+01
      1.028  0.2453E+01  0.7339E+01
      1.168  0.3140E+01  0.7777E+01
      1.307  0.3496E+01  0.8265E+01
      1.447  0.2749E+01  0.8649E+01
      1.586  0.3711E+01  0.9167E+01
      1.726  0.1891E+01  0.9431E+01
      1.866  0.1625E+01  0.9658E+01
      2.005  0.2575E+01  0.1002E+02
      2.145  0.2778E+01  0.1040E+02
      2.284  0.3665E+01  0.1092E+02
      2.424  0.2302E+01  0.1124E+02
      2.563  0.2310E+01  0.1156E+02
      2.703  0.2475E+01  0.1191E+02
      2.843  0.2137E+01  0.1220E+02
      2.982  0.1189E+01  0.1237E+02
      3.122  0.1907E+01  0.1264E+02
      3.261  0.1755E+01  0.1288E+02
      3.401  0.1696E+01  0.1312E+02
      3.540  0.1964E+01  0.1339E+02
      3.680  0.2892E+01  0.1380E+02
      3.820  0.2023E+01  0.1408E+02
      3.959  0.2037E+01  0.1436E+02
      4.099  0.3073E+01  0.1479E+02
      4.238  0.4224E+01  0.1538E+02
      4.378  0.2490E+01  0.1573E+02
      4.517  0.2190E+01  0.1603E+02
      4.657  0.3543E+01  0.1653E+02
      4.797  0.3680E+01  0.1704E+02
      4.936  0.2053E+01  0.1733E+02
      5.076  0.1927E+01  0.1760E+02
      5.215  0.9116E+00  0.1772E+02
      5.355  0.1438E+01  0.1793E+02
      5.494  0.3755E+00  0.1798E+02
      5.634  0.1596E+00  0.1800E+02
      5.773  0.2070E-02  0.1800E+02
      5.913  0.6111E-04  0.1800E+02
      6.053  0.1116E+00  0.1802E+02
      6.192  0.1058E+01  0.1816E+02
      6.332  0.2819E+01  0.1856E+02
      6.471  0.3356E+01  0.1903E+02
      6.611  0.3314E+01  0.1949E+02
      6.750  0.2263E+01  0.1980E+02
      6.890  0.2529E+01  0.2016E+02
      7.030  0.4108E+01  0.2073E+02
      7.169  0.2586E+01  0.2109E+02
      7.309  0.2346E+01  0.2142E+02
      7.448  0.3093E+01  0.2185E+02
      7.588  0.3050E+01  0.2228E+02
      7.727  0.1642E+01  0.2250E+02
      7.867  0.2403E+01  0.2284E+02
      8.007  0.2182E+01  0.2314E+02
      8.146  0.1305E+01  0.2333E+02
      8.286  0.1029E+01  0.2347E+02
      8.425  0.1311E+01  0.2365E+02
      8.565  0.9018E+00  0.2378E+02
      8.704  0.4329E+00  0.2384E+02
      8.844  0.7033E+00  0.2394E+02
      8.984  0.9463E+00  0.2407E+02
      9.123  0.3068E+00  0.2411E+02
      9.263  0.1017E+01  0.2425E+02
      9.402  0.8845E+00  0.2438E+02
      9.542  0.9566E+00  0.2451E+02
      9.681  0.6520E+00  0.2460E+02
      9.821  0.1378E+01  0.2479E+02
      9.961  0.1719E+01  0.2503E+02
     10.100  0.1602E+01  0.2526E+02
     10.240  0.2136E+01  0.2556E+02
     10.379  0.1801E+01  0.2581E+02
     10.519  0.1463E+01  0.2601E+02
     10.658  0.1511E+01  0.2622E+02
     10.798  0.1605E+01  0.2645E+02
     10.938  0.1501E+01  0.2666E+02
     11.077  0.1466E+01  0.2686E+02
     11.217  0.1698E+01  0.2710E+02
     11.356  0.1290E+01  0.2728E+02
     11.496  0.2205E+01  0.2759E+02
     11.635  0.1451E+01  0.2779E+02
     11.775  0.2656E+01  0.2816E+02
     11.915  0.1704E+01  0.2840E+02
     12.054  0.3713E+01  0.2891E+02
     12.194  0.2846E+01  0.2931E+02
     12.333  0.1118E+01  0.2947E+02
     12.473  0.1944E+01  0.2974E+02
     12.612  0.1692E+01  0.2998E+02
     12.752  0.2493E+01  0.3032E+02
     12.891  0.3794E+01  0.3085E+02
     13.031  0.3214E+01  0.3130E+02
     13.171  0.2118E+01  0.3160E+02
     13.310  0.3061E+01  0.3202E+02
     13.450  0.2723E+01  0.3240E+02
     13.589  0.3074E+01  0.3283E+02
     13.729  0.3642E+01  0.3334E+02
     13.868  0.3344E+01  0.3381E+02
     14.008  0.3160E+01  0.3425E+02
     14.148  0.3450E+01  0.3473E+02
     14.287  0.3184E+01  0.3518E+02
     14.427  0.2860E+01  0.3557E+02
     14.566  0.3560E+01  0.3607E+02
     14.706  0.4268E+01  0.3667E+02
     14.845  0.3757E+01  0.3719E+02
     14.985  0.2885E+01  0.3759E+02
     15.125  0.2950E+01  0.3801E+02
     15.264  0.2424E+01  0.3834E+02
     15.404  0.2638E+01  0.3871E+02
     15.543  0.3501E+01  0.3920E+02
     15.683  0.2196E+01  0.3951E+02
     15.822  0.3368E+01  0.3998E+02
     15.962  0.4688E+01  0.4063E+02
     16.102  0.2885E+01  0.4104E+02
     16.241  0.2326E+01  0.4136E+02
     16.381  0.4429E+01  0.4198E+02
     16.520  0.3534E+01  0.4247E+02
     16.660  0.1705E+01  0.4271E+02
     16.799  0.3789E+01  0.4324E+02
     16.939  0.4182E+01  0.4382E+02
     17.079  0.2823E+01  0.4422E+02
     17.218  0.3578E+01  0.4471E+02
     17.358  0.3817E+01  0.4525E+02
     17.497  0.3755E+01  0.4577E+02
     17.637  0.4819E+01  0.4644E+02
     17.776  0.3677E+01  0.4696E+02
     17.916  0.2236E+01  0.4727E+02
     18.056  0.2906E+01  0.4767E+02
     18.195  0.3729E+01  0.4820E+02
     18.335  0.4266E+01  0.4879E+02
     18.474  0.2480E+01  0.4914E+02
     18.614  0.4031E+01  0.4970E+02
     18.753  0.3713E+01  0.5022E+02
     18.893  0.3781E+01  0.5075E+02
     19.033  0.3558E+01  0.5124E+02
     19.172  0.4730E+01  0.5190E+02
     19.312  0.3020E+01  0.5232E+02
     19.451  0.3424E+01  0.5280E+02
     19.591  0.3552E+01  0.5330E+02
     19.730  0.4438E+01  0.5392E+02
     19.870  0.4103E+01  0.5449E+02
     20.009  0.4577E+01  0.5513E+02
     20.149  0.3787E+01  0.5566E+02
     20.289  0.3779E+01  0.5618E+02
     20.428  0.3301E+01  0.5665E+02
     20.568  0.3678E+01  0.5716E+02
     20.707  0.5295E+01  0.5790E+02
     20.847  0.2825E+01  0.5829E+02
     20.986  0.2480E+01  0.5864E+02
     21.126  0.4065E+01  0.5920E+02
     21.266  0.3766E+01  0.5973E+02
     21.405  0.4279E+01  0.6033E+02
     21.545  0.3807E+01  0.6086E+02
     21.684  0.4712E+01  0.6152E+02
     21.824  0.3691E+01  0.6203E+02
     21.963  0.3911E+01  0.6258E+02
     22.103  0.3349E+01  0.6305E+02
     22.243  0.4627E+01  0.6369E+02
     22.382  0.3420E+01  0.6417E+02
     22.522  0.2699E+01  0.6454E+02
     22.661  0.4454E+01  0.6517E+02
     22.801  0.4622E+01  0.6581E+02
     22.940  0.4705E+01  0.6647E+02
     23.080  0.4866E+01  0.6715E+02
     23.220  0.4582E+01  0.6779E+02
     23.359  0.4736E+01  0.6845E+02
     23.499  0.3501E+01  0.6894E+02
     23.638  0.4427E+01  0.6955E+02
     23.778  0.4255E+01  0.7015E+02
     23.917  0.4774E+01  0.7081E+02
     24.057  0.3641E+01  0.7132E+02
     24.197  0.3258E+01  0.7178E+02
     24.336  0.4531E+01  0.7241E+02
     24.476  0.4262E+01  0.7300E+02
     24.615  0.4635E+01  0.7365E+02
     24.755  0.3320E+01  0.7411E+02
     24.894  0.4581E+01  0.7475E+02
     25.034  0.4880E+01  0.7544E+02
     25.174  0.4292E+01  0.7603E+02
     25.313  0.4829E+01  0.7671E+02
     25.453  0.5294E+01  0.7745E+02
     25.592  0.4591E+01  0.7809E+02
     25.732  0.3555E+01  0.7858E+02
     25.871  0.5035E+01  0.7929E+02
     26.011  0.5319E+01  0.8003E+02
     26.151  0.3906E+01  0.8057E+02
     26.290  0.4921E+01  0.8126E+02
     26.430  0.4387E+01  0.8187E+02
     26.569  0.4341E+01  0.8248E+02
     26.709  0.4762E+01  0.8314E+02
     26.848  0.5946E+01  0.8397E+02
     26.988  0.4825E+01  0.8465E+02
     27.127  0.4399E+01  0.8526E+02
     27.267  0.5260E+01  0.8600E+02
     27.407  0.4243E+01  0.8659E+02
     27.546  0.4353E+01  0.8720E+02
     27.686  0.5601E+01  0.8798E+02
     27.825  0.3698E+01  0.8849E+02
     27.965  0.4075E+01  0.8906E+02
     28.104  0.5140E+01  0.8978E+02
     28.244  0.5415E+01  0.9053E+02
     28.384  0.3766E+01  0.9106E+02
     28.523  0.3829E+01  0.9160E+02
     28.663  0.5949E+01  0.9243E+02
     28.802  0.4809E+01  0.9310E+02
     28.942  0.4515E+01  0.9373E+02
     29.081  0.2974E+01  0.9414E+02
     29.221  0.3690E+01  0.9466E+02
     29.361  0.3034E+01  0.9508E+02
     29.500  0.2384E+01  0.9541E+02
     29.640  0.2585E+01  0.9577E+02
     29.779  0.1259E+01  0.9595E+02
     29.919  0.3334E+00  0.9600E+02
     30.058  0.2804E-03  0.9600E+02
     30.198  0.2115E-02  0.9600E+02
     30.338  0.2570E-01  0.9600E+02
     30.477  0.1679E-03  0.9600E+02
     30.617  0.1468E-11  0.9600E+02
     30.756  0.0000E+00  0.9600E+02
     30.896  0.0000E+00  0.9600E+02
     31.035  0.0000E+00  0.9600E+02
     31.175  0.0000E+00  0.9600E+02
     31.315  0.0000E+00  0.9600E+02
     31.454  0.0000E+00  0.9600E+02
     31.594  0.0000E+00  0.9600E+02
     31.733  0.0000E+00  0.9600E+02
     31.873  0.0000E+00  0.9600E+02
     32.012  0.0000E+00  0.9600E+02
     32.152  0.0000E+00  0.9600E+02
