Te                                      
           1
     4.507880    0.000000    0.000000
    -2.253940    3.903939    0.000000
     0.000000    0.000000    5.963460
   Te
     3
Direct configuration=     1
   0.26966000  0.00000000  0.33333333
   0.00000000  0.26966000  0.66666667
   0.73034000  0.73034000  0.00000000
