 DBCSR| CPU Multiplication driver                                           BLAS (U)
 DBCSR| Multrec recursion limit                                              512 (U)
 DBCSR| Multiplication stack size                                           1000 (D)
 DBCSR| Maximum elements for images                                    UNLIMITED (U)
 DBCSR| Multiplicative factor virtual images                                   1 (U)
 DBCSR| Use multiplication densification                                       T (D)
 DBCSR| Multiplication size stacks                                             3 (U)
 DBCSR| Use memory pool for CPU allocation                                     F (U)
 DBCSR| Number of 3D layers                                               SINGLE (U)
 DBCSR| Use MPI memory allocation                                              F (U)
 DBCSR| Use RMA algorithm                                                      F (U)
 DBCSR| Use Communication thread                                               T (U)
 DBCSR| Communication thread load                                             45 (D)
 DBCSR| MPI: My process id                                                     0
 DBCSR| MPI: Number of processes                                               8
 DBCSR| OMP: Current number of threads                                        12
 DBCSR| OMP: Max number of threads                                            12
 DBCSR| Split modifier for TAS multiplication algorithm                  1.0E+00 (U)


  **** **** ******  **  PROGRAM STARTED AT               2025-08-04 17:31:00.461
 ***** ** ***  *** **   PROGRAM STARTED ON                          i04r10c01s08
 **    ****   ******    PROGRAM STARTED BY                               di38fab
 ***** **    ** ** **   PROGRAM PROCESS ID                               2422365
  **** **  *******  **  PROGRAM STARTED IN /hppfs/scratch/04/di38fab/09_GTH/Delt
                                           a_Set/B/aug-SZV-MOLOPT-GTH-tier-1/8x8
                                           x8

 CP2K| version string:                 CP2K version 2025.1 (Development Version)
 CP2K| source code revision number:                                  git:3130539
 CP2K| cp2kflags: omp libint fftw3 libxc parallel scalapack max_contr=4         
 CP2K| is freely available from                            https://www.cp2k.org/
 CP2K| Program compiled at                         Tue Jun  3 16:14:32 CEST 2025
 CP2K| Program compiled on                                               login01
 CP2K| Program compiled for                                        Supermuc-foss
 CP2K| Data directory path                  /hppfs/work/pn36zo/di38fab/cp2k/data
 CP2K| Input file name                                                    GW.inp

 GLOBAL| Force Environment number                                              1
 GLOBAL| Basis set file name            /hppfs/scratch/04/di38fab/09_GTH/BASIS_A
 GLOBAL| Potential file name            /hppfs/work/pn36zo/di38fab/cp2k/data/GTH
 GLOBAL| MM Potential file name                                     MM_POTENTIAL
 GLOBAL| Coordinate file name                                              B.cif
 GLOBAL| Method name                                                        CP2K
 GLOBAL| Project name                                                       WSe2
 GLOBAL| Run type                                                         ENERGY
 GLOBAL| FFT library                                                       FFTW3
 GLOBAL| Diagonalization library                                       ScaLAPACK
 GLOBAL| Cholesky decomposition library                                ScaLAPACK
 GLOBAL| DGEMM library                                                      BLAS
 GLOBAL| Orthonormality check for eigenvectors                          DISABLED
 GLOBAL| Matrix multiplication library                                 ScaLAPACK
 GLOBAL| All-to-all communication in single precision                          F
 GLOBAL| FFTs using library dependent lengths                                  F
 GLOBAL| Grid backend                                                       AUTO
 GLOBAL| Global print level                                               MEDIUM
 GLOBAL| MPI I/O enabled                                                       T
 GLOBAL| Total number of message passing processes                             8
 GLOBAL| Number of threads for this process                                   12
 GLOBAL| This output is from process                                           0
 GLOBAL| OpenMP stack size per thread (OMP_STACKSIZE)                    default
 GLOBAL| CPU model name             Intel(R) Xeon(R) Platinum 8174 CPU @ 3.10GHz

 MEMORY| system memory details [Kb]
 MEMORY|                        rank 0           min           max       average
 MEMORY| MemTotal             98436664      98436664      98436664      98436664
 MEMORY| MemFree              84601932      84528932      84601932      84565432
 MEMORY| Buffers                     0             0             0             0
 MEMORY| Cached                2392960       2376912       2392960       2384936
 MEMORY| Slab                  1309912       1309912       1320356       1315134
 MEMORY| SReclaimable           284500        277932        284500        281216
 MEMORY| MemLikelyFree        87279392      87183776      87279392      87231584


 *** Fundamental physical constants (SI units) ***

 *** Literature: B. J. Mohr and B. N. Taylor,
 ***             CODATA recommended values of the fundamental physical
 ***             constants: 2006, Web Version 5.1
 ***             http://physics.nist.gov/constants

 Speed of light in vacuum [m/s]                             2.99792458000000E+08
 Magnetic constant or permeability of vacuum [N/A**2]       1.25663706143592E-06
 Electric constant or permittivity of vacuum [F/m]          8.85418781762039E-12
 Planck constant (h) [J*s]                                  6.62606896000000E-34
 Planck constant (h-bar) [J*s]                              1.05457162825177E-34
 Elementary charge [C]                                      1.60217648700000E-19
 Electron mass [kg]                                         9.10938215000000E-31
 Electron g factor [ ]                                     -2.00231930436220E+00
 Proton mass [kg]                                           1.67262163700000E-27
 Fine-structure constant                                    7.29735253760000E-03
 Rydberg constant [1/m]                                     1.09737315685270E+07
 Avogadro constant [1/mol]                                  6.02214179000000E+23
 Boltzmann constant [J/K]                                   1.38065040000000E-23
 Atomic mass unit [kg]                                      1.66053878200000E-27
 Bohr radius [m]                                            5.29177208590000E-11

 *** Conversion factors ***

 [u] -> [a.u.]                                              1.82288848426455E+03
 [Angstrom] -> [Bohr] = [a.u.]                              1.88972613288564E+00
 [a.u.] = [Bohr] -> [Angstrom]                              5.29177208590000E-01
 [a.u.] -> [s]                                              2.41888432650478E-17
 [a.u.] -> [fs]                                             2.41888432650478E-02
 [a.u.] -> [J]                                              4.35974393937059E-18
 [a.u.] -> [N]                                              8.23872205491840E-08
 [a.u.] -> [K]                                              3.15774647902944E+05
 [a.u.] -> [kJ/mol]                                         2.62549961709828E+03
 [a.u.] -> [kcal/mol]                                       6.27509468713739E+02
 [a.u.] -> [Pa]                                             2.94210107994716E+13
 [a.u.] -> [bar]                                            2.94210107994716E+08
 [a.u.] -> [atm]                                            2.90362800883016E+08
 [a.u.] -> [eV]                                             2.72113838565563E+01
 [a.u.] -> [Hz]                                             6.57968392072181E+15
 [a.u.] -> [1/cm] (wave numbers)                            2.19474631370540E+05
 [a.u./Bohr**2] -> [1/cm]                                   5.14048714338585E+03
 

 CELL_TOP| Volume [angstrom^3]:                                        87.025411
 CELL_TOP| Vector a [angstrom     4.901     0.000     0.000   |a| =     4.900670
 CELL_TOP| Vector b [angstrom    -2.450     4.244     0.000   |b| =     4.900670
 CELL_TOP| Vector c [angstrom     2.450    -1.415     4.184   |c| =     5.050980
 CELL_TOP| Angle (b,c), alpha [degree]:                               119.020350
 CELL_TOP| Angle (a,c), beta  [degree]:                                60.979650
 CELL_TOP| Angle (a,b), gamma [degree]:                               120.000000
 CELL_TOP| Numerically orthorhombic:                                          NO
 CELL_TOP| Periodicity                                                       XYZ

 CELL_CIF| Volume [angstrom^3]:                                        87.025411
 CELL_CIF| Vector a [angstrom     4.901     0.000     0.000   |a| =     4.900670
 CELL_CIF| Vector b [angstrom    -2.450     4.244     0.000   |b| =     4.900670
 CELL_CIF| Vector c [angstrom     2.450    -1.415     4.184   |c| =     5.050980
 CELL_CIF| Angle (b,c), alpha [degree]:                               119.020350
 CELL_CIF| Angle (a,c), beta  [degree]:                                60.979650
 CELL_CIF| Angle (a,b), gamma [degree]:                               120.000000
 CELL_CIF| Numerically orthorhombic:                                          NO
 CELL_CIF| Periodicity                                                       XYZ

 GENERATE|  Preliminary Number of Bonds generated:                             0
 GENERATE|  Achieved consistency in connectivity generation.

 CELL| Volume [angstrom^3]:                                            87.025411
 CELL| Vector a [angstrom]:       4.901     0.000     0.000   |a| =     4.900670
 CELL| Vector b [angstrom]:      -2.450     4.244     0.000   |b| =     4.900670
 CELL| Vector c [angstrom]:       2.450    -1.415     4.184   |c| =     5.050980
 CELL| Angle (b,c), alpha [degree]:                                   119.020350
 CELL| Angle (a,c), beta  [degree]:                                    60.979650
 CELL| Angle (a,b), gamma [degree]:                                   120.000000
 CELL| Numerically orthorhombic:                                              NO
 CELL| Periodicity                                                           XYZ

 CELL_REF| Volume [angstrom^3]:                                        87.025411
 CELL_REF| Vector a [angstrom     4.901     0.000     0.000   |a| =     4.900670
 CELL_REF| Vector b [angstrom    -2.450     4.244     0.000   |b| =     4.900670
 CELL_REF| Vector c [angstrom     2.450    -1.415     4.184   |c| =     5.050980
 CELL_REF| Angle (b,c), alpha [degree]:                               119.020350
 CELL_REF| Angle (a,c), beta  [degree]:                                60.979650
 CELL_REF| Angle (a,b), gamma [degree]:                               120.000000
 CELL_REF| Numerically orthorhombic:                                          NO
 CELL_REF| Periodicity                                                       XYZ

 *** WARNING in cryssym.F:180 :: Symmetry library SPGLIB not available ***


 *******************************************************************************
                                    Kpoints
 *******************************************************************************
 BRILLOUIN| K-point scheme                                        Monkhorst-Pack
 BRILLOUIN| K-Point grid                                             8    8    8
 BRILLOUIN| Accuracy in Symmetry determination                      0.100000E-05
 BRILLOUIN| K-Point point group symmetrization                               OFF
 BRILLOUIN| Wavefunction type                                            COMPLEX
 BRILLOUIN| List of Kpoints [2 Pi/Bohr]                                      256
 BRILLOUIN| Number           Weight            X              Y              Z
 BRILLOUIN|     1           0.00391       -0.43750       -0.43750       -0.43750
 BRILLOUIN|     2           0.00391       -0.43750       -0.43750       -0.31250
 BRILLOUIN|     3           0.00391       -0.43750       -0.43750       -0.18750
 BRILLOUIN|     4           0.00391       -0.43750       -0.43750       -0.06250
 BRILLOUIN|     5           0.00391       -0.43750       -0.43750        0.06250
 BRILLOUIN|     6           0.00391       -0.43750       -0.43750        0.18750
 BRILLOUIN|     7           0.00391       -0.43750       -0.43750        0.31250
 BRILLOUIN|     8           0.00391       -0.43750       -0.43750        0.43750
 BRILLOUIN|     9           0.00391       -0.43750       -0.31250       -0.43750
 BRILLOUIN|    10           0.00391       -0.43750       -0.31250       -0.31250
 BRILLOUIN|    11           0.00391       -0.43750       -0.31250       -0.18750
 BRILLOUIN|    12           0.00391       -0.43750       -0.31250       -0.06250
 BRILLOUIN|    13           0.00391       -0.43750       -0.31250        0.06250
 BRILLOUIN|    14           0.00391       -0.43750       -0.31250        0.18750
 BRILLOUIN|    15           0.00391       -0.43750       -0.31250        0.31250
 BRILLOUIN|    16           0.00391       -0.43750       -0.31250        0.43750
 BRILLOUIN|    17           0.00391       -0.43750       -0.18750       -0.43750
 BRILLOUIN|    18           0.00391       -0.43750       -0.18750       -0.31250
 BRILLOUIN|    19           0.00391       -0.43750       -0.18750       -0.18750
 BRILLOUIN|    20           0.00391       -0.43750       -0.18750       -0.06250
 BRILLOUIN|    21           0.00391       -0.43750       -0.18750        0.06250
 BRILLOUIN|    22           0.00391       -0.43750       -0.18750        0.18750
 BRILLOUIN|    23           0.00391       -0.43750       -0.18750        0.31250
 BRILLOUIN|    24           0.00391       -0.43750       -0.18750        0.43750
 BRILLOUIN|    25           0.00391       -0.43750       -0.06250       -0.43750
 BRILLOUIN|    26           0.00391       -0.43750       -0.06250       -0.31250
 BRILLOUIN|    27           0.00391       -0.43750       -0.06250       -0.18750
 BRILLOUIN|    28           0.00391       -0.43750       -0.06250       -0.06250
 BRILLOUIN|    29           0.00391       -0.43750       -0.06250        0.06250
 BRILLOUIN|    30           0.00391       -0.43750       -0.06250        0.18750
 BRILLOUIN|    31           0.00391       -0.43750       -0.06250        0.31250
 BRILLOUIN|    32           0.00391       -0.43750       -0.06250        0.43750
 BRILLOUIN|    33           0.00391       -0.43750        0.06250       -0.43750
 BRILLOUIN|    34           0.00391       -0.43750        0.06250       -0.31250
 BRILLOUIN|    35           0.00391       -0.43750        0.06250       -0.18750
 BRILLOUIN|    36           0.00391       -0.43750        0.06250       -0.06250
 BRILLOUIN|    37           0.00391       -0.43750        0.06250        0.06250
 BRILLOUIN|    38           0.00391       -0.43750        0.06250        0.18750
 BRILLOUIN|    39           0.00391       -0.43750        0.06250        0.31250
 BRILLOUIN|    40           0.00391       -0.43750        0.06250        0.43750
 BRILLOUIN|    41           0.00391       -0.43750        0.18750       -0.43750
 BRILLOUIN|    42           0.00391       -0.43750        0.18750       -0.31250
 BRILLOUIN|    43           0.00391       -0.43750        0.18750       -0.18750
 BRILLOUIN|    44           0.00391       -0.43750        0.18750       -0.06250
 BRILLOUIN|    45           0.00391       -0.43750        0.18750        0.06250
 BRILLOUIN|    46           0.00391       -0.43750        0.18750        0.18750
 BRILLOUIN|    47           0.00391       -0.43750        0.18750        0.31250
 BRILLOUIN|    48           0.00391       -0.43750        0.18750        0.43750
 BRILLOUIN|    49           0.00391       -0.43750        0.31250       -0.43750
 BRILLOUIN|    50           0.00391       -0.43750        0.31250       -0.31250
 BRILLOUIN|    51           0.00391       -0.43750        0.31250       -0.18750
 BRILLOUIN|    52           0.00391       -0.43750        0.31250       -0.06250
 BRILLOUIN|    53           0.00391       -0.43750        0.31250        0.06250
 BRILLOUIN|    54           0.00391       -0.43750        0.31250        0.18750
 BRILLOUIN|    55           0.00391       -0.43750        0.31250        0.31250
 BRILLOUIN|    56           0.00391       -0.43750        0.31250        0.43750
 BRILLOUIN|    57           0.00391       -0.43750        0.43750       -0.43750
 BRILLOUIN|    58           0.00391       -0.43750        0.43750       -0.31250
 BRILLOUIN|    59           0.00391       -0.43750        0.43750       -0.18750
 BRILLOUIN|    60           0.00391       -0.43750        0.43750       -0.06250
 BRILLOUIN|    61           0.00391       -0.43750        0.43750        0.06250
 BRILLOUIN|    62           0.00391       -0.43750        0.43750        0.18750
 BRILLOUIN|    63           0.00391       -0.43750        0.43750        0.31250
 BRILLOUIN|    64           0.00391       -0.43750        0.43750        0.43750
 BRILLOUIN|    65           0.00391       -0.31250       -0.43750       -0.43750
 BRILLOUIN|    66           0.00391       -0.31250       -0.43750       -0.31250
 BRILLOUIN|    67           0.00391       -0.31250       -0.43750       -0.18750
 BRILLOUIN|    68           0.00391       -0.31250       -0.43750       -0.06250
 BRILLOUIN|    69           0.00391       -0.31250       -0.43750        0.06250
 BRILLOUIN|    70           0.00391       -0.31250       -0.43750        0.18750
 BRILLOUIN|    71           0.00391       -0.31250       -0.43750        0.31250
 BRILLOUIN|    72           0.00391       -0.31250       -0.43750        0.43750
 BRILLOUIN|    73           0.00391       -0.31250       -0.31250       -0.43750
 BRILLOUIN|    74           0.00391       -0.31250       -0.31250       -0.31250
 BRILLOUIN|    75           0.00391       -0.31250       -0.31250       -0.18750
 BRILLOUIN|    76           0.00391       -0.31250       -0.31250       -0.06250
 BRILLOUIN|    77           0.00391       -0.31250       -0.31250        0.06250
 BRILLOUIN|    78           0.00391       -0.31250       -0.31250        0.18750
 BRILLOUIN|    79           0.00391       -0.31250       -0.31250        0.31250
 BRILLOUIN|    80           0.00391       -0.31250       -0.31250        0.43750
 BRILLOUIN|    81           0.00391       -0.31250       -0.18750       -0.43750
 BRILLOUIN|    82           0.00391       -0.31250       -0.18750       -0.31250
 BRILLOUIN|    83           0.00391       -0.31250       -0.18750       -0.18750
 BRILLOUIN|    84           0.00391       -0.31250       -0.18750       -0.06250
 BRILLOUIN|    85           0.00391       -0.31250       -0.18750        0.06250
 BRILLOUIN|    86           0.00391       -0.31250       -0.18750        0.18750
 BRILLOUIN|    87           0.00391       -0.31250       -0.18750        0.31250
 BRILLOUIN|    88           0.00391       -0.31250       -0.18750        0.43750
 BRILLOUIN|    89           0.00391       -0.31250       -0.06250       -0.43750
 BRILLOUIN|    90           0.00391       -0.31250       -0.06250       -0.31250
 BRILLOUIN|    91           0.00391       -0.31250       -0.06250       -0.18750
 BRILLOUIN|    92           0.00391       -0.31250       -0.06250       -0.06250
 BRILLOUIN|    93           0.00391       -0.31250       -0.06250        0.06250
 BRILLOUIN|    94           0.00391       -0.31250       -0.06250        0.18750
 BRILLOUIN|    95           0.00391       -0.31250       -0.06250        0.31250
 BRILLOUIN|    96           0.00391       -0.31250       -0.06250        0.43750
 BRILLOUIN|    97           0.00391       -0.31250        0.06250       -0.43750
 BRILLOUIN|    98           0.00391       -0.31250        0.06250       -0.31250
 BRILLOUIN|    99           0.00391       -0.31250        0.06250       -0.18750
 BRILLOUIN|   100           0.00391       -0.31250        0.06250       -0.06250
 BRILLOUIN|   101           0.00391       -0.31250        0.06250        0.06250
 BRILLOUIN|   102           0.00391       -0.31250        0.06250        0.18750
 BRILLOUIN|   103           0.00391       -0.31250        0.06250        0.31250
 BRILLOUIN|   104           0.00391       -0.31250        0.06250        0.43750
 BRILLOUIN|   105           0.00391       -0.31250        0.18750       -0.43750
 BRILLOUIN|   106           0.00391       -0.31250        0.18750       -0.31250
 BRILLOUIN|   107           0.00391       -0.31250        0.18750       -0.18750
 BRILLOUIN|   108           0.00391       -0.31250        0.18750       -0.06250
 BRILLOUIN|   109           0.00391       -0.31250        0.18750        0.06250
 BRILLOUIN|   110           0.00391       -0.31250        0.18750        0.18750
 BRILLOUIN|   111           0.00391       -0.31250        0.18750        0.31250
 BRILLOUIN|   112           0.00391       -0.31250        0.18750        0.43750
 BRILLOUIN|   113           0.00391       -0.31250        0.31250       -0.43750
 BRILLOUIN|   114           0.00391       -0.31250        0.31250       -0.31250
 BRILLOUIN|   115           0.00391       -0.31250        0.31250       -0.18750
 BRILLOUIN|   116           0.00391       -0.31250        0.31250       -0.06250
 BRILLOUIN|   117           0.00391       -0.31250        0.31250        0.06250
 BRILLOUIN|   118           0.00391       -0.31250        0.31250        0.18750
 BRILLOUIN|   119           0.00391       -0.31250        0.31250        0.31250
 BRILLOUIN|   120           0.00391       -0.31250        0.31250        0.43750
 BRILLOUIN|   121           0.00391       -0.31250        0.43750       -0.43750
 BRILLOUIN|   122           0.00391       -0.31250        0.43750       -0.31250
 BRILLOUIN|   123           0.00391       -0.31250        0.43750       -0.18750
 BRILLOUIN|   124           0.00391       -0.31250        0.43750       -0.06250
 BRILLOUIN|   125           0.00391       -0.31250        0.43750        0.06250
 BRILLOUIN|   126           0.00391       -0.31250        0.43750        0.18750
 BRILLOUIN|   127           0.00391       -0.31250        0.43750        0.31250
 BRILLOUIN|   128           0.00391       -0.31250        0.43750        0.43750
 BRILLOUIN|   129           0.00391       -0.18750       -0.43750       -0.43750
 BRILLOUIN|   130           0.00391       -0.18750       -0.43750       -0.31250
 BRILLOUIN|   131           0.00391       -0.18750       -0.43750       -0.18750
 BRILLOUIN|   132           0.00391       -0.18750       -0.43750       -0.06250
 BRILLOUIN|   133           0.00391       -0.18750       -0.43750        0.06250
 BRILLOUIN|   134           0.00391       -0.18750       -0.43750        0.18750
 BRILLOUIN|   135           0.00391       -0.18750       -0.43750        0.31250
 BRILLOUIN|   136           0.00391       -0.18750       -0.43750        0.43750
 BRILLOUIN|   137           0.00391       -0.18750       -0.31250       -0.43750
 BRILLOUIN|   138           0.00391       -0.18750       -0.31250       -0.31250
 BRILLOUIN|   139           0.00391       -0.18750       -0.31250       -0.18750
 BRILLOUIN|   140           0.00391       -0.18750       -0.31250       -0.06250
 BRILLOUIN|   141           0.00391       -0.18750       -0.31250        0.06250
 BRILLOUIN|   142           0.00391       -0.18750       -0.31250        0.18750
 BRILLOUIN|   143           0.00391       -0.18750       -0.31250        0.31250
 BRILLOUIN|   144           0.00391       -0.18750       -0.31250        0.43750
 BRILLOUIN|   145           0.00391       -0.18750       -0.18750       -0.43750
 BRILLOUIN|   146           0.00391       -0.18750       -0.18750       -0.31250
 BRILLOUIN|   147           0.00391       -0.18750       -0.18750       -0.18750
 BRILLOUIN|   148           0.00391       -0.18750       -0.18750       -0.06250
 BRILLOUIN|   149           0.00391       -0.18750       -0.18750        0.06250
 BRILLOUIN|   150           0.00391       -0.18750       -0.18750        0.18750
 BRILLOUIN|   151           0.00391       -0.18750       -0.18750        0.31250
 BRILLOUIN|   152           0.00391       -0.18750       -0.18750        0.43750
 BRILLOUIN|   153           0.00391       -0.18750       -0.06250       -0.43750
 BRILLOUIN|   154           0.00391       -0.18750       -0.06250       -0.31250
 BRILLOUIN|   155           0.00391       -0.18750       -0.06250       -0.18750
 BRILLOUIN|   156           0.00391       -0.18750       -0.06250       -0.06250
 BRILLOUIN|   157           0.00391       -0.18750       -0.06250        0.06250
 BRILLOUIN|   158           0.00391       -0.18750       -0.06250        0.18750
 BRILLOUIN|   159           0.00391       -0.18750       -0.06250        0.31250
 BRILLOUIN|   160           0.00391       -0.18750       -0.06250        0.43750
 BRILLOUIN|   161           0.00391       -0.18750        0.06250       -0.43750
 BRILLOUIN|   162           0.00391       -0.18750        0.06250       -0.31250
 BRILLOUIN|   163           0.00391       -0.18750        0.06250       -0.18750
 BRILLOUIN|   164           0.00391       -0.18750        0.06250       -0.06250
 BRILLOUIN|   165           0.00391       -0.18750        0.06250        0.06250
 BRILLOUIN|   166           0.00391       -0.18750        0.06250        0.18750
 BRILLOUIN|   167           0.00391       -0.18750        0.06250        0.31250
 BRILLOUIN|   168           0.00391       -0.18750        0.06250        0.43750
 BRILLOUIN|   169           0.00391       -0.18750        0.18750       -0.43750
 BRILLOUIN|   170           0.00391       -0.18750        0.18750       -0.31250
 BRILLOUIN|   171           0.00391       -0.18750        0.18750       -0.18750
 BRILLOUIN|   172           0.00391       -0.18750        0.18750       -0.06250
 BRILLOUIN|   173           0.00391       -0.18750        0.18750        0.06250
 BRILLOUIN|   174           0.00391       -0.18750        0.18750        0.18750
 BRILLOUIN|   175           0.00391       -0.18750        0.18750        0.31250
 BRILLOUIN|   176           0.00391       -0.18750        0.18750        0.43750
 BRILLOUIN|   177           0.00391       -0.18750        0.31250       -0.43750
 BRILLOUIN|   178           0.00391       -0.18750        0.31250       -0.31250
 BRILLOUIN|   179           0.00391       -0.18750        0.31250       -0.18750
 BRILLOUIN|   180           0.00391       -0.18750        0.31250       -0.06250
 BRILLOUIN|   181           0.00391       -0.18750        0.31250        0.06250
 BRILLOUIN|   182           0.00391       -0.18750        0.31250        0.18750
 BRILLOUIN|   183           0.00391       -0.18750        0.31250        0.31250
 BRILLOUIN|   184           0.00391       -0.18750        0.31250        0.43750
 BRILLOUIN|   185           0.00391       -0.18750        0.43750       -0.43750
 BRILLOUIN|   186           0.00391       -0.18750        0.43750       -0.31250
 BRILLOUIN|   187           0.00391       -0.18750        0.43750       -0.18750
 BRILLOUIN|   188           0.00391       -0.18750        0.43750       -0.06250
 BRILLOUIN|   189           0.00391       -0.18750        0.43750        0.06250
 BRILLOUIN|   190           0.00391       -0.18750        0.43750        0.18750
 BRILLOUIN|   191           0.00391       -0.18750        0.43750        0.31250
 BRILLOUIN|   192           0.00391       -0.18750        0.43750        0.43750
 BRILLOUIN|   193           0.00391       -0.06250       -0.43750       -0.43750
 BRILLOUIN|   194           0.00391       -0.06250       -0.43750       -0.31250
 BRILLOUIN|   195           0.00391       -0.06250       -0.43750       -0.18750
 BRILLOUIN|   196           0.00391       -0.06250       -0.43750       -0.06250
 BRILLOUIN|   197           0.00391       -0.06250       -0.43750        0.06250
 BRILLOUIN|   198           0.00391       -0.06250       -0.43750        0.18750
 BRILLOUIN|   199           0.00391       -0.06250       -0.43750        0.31250
 BRILLOUIN|   200           0.00391       -0.06250       -0.43750        0.43750
 BRILLOUIN|   201           0.00391       -0.06250       -0.31250       -0.43750
 BRILLOUIN|   202           0.00391       -0.06250       -0.31250       -0.31250
 BRILLOUIN|   203           0.00391       -0.06250       -0.31250       -0.18750
 BRILLOUIN|   204           0.00391       -0.06250       -0.31250       -0.06250
 BRILLOUIN|   205           0.00391       -0.06250       -0.31250        0.06250
 BRILLOUIN|   206           0.00391       -0.06250       -0.31250        0.18750
 BRILLOUIN|   207           0.00391       -0.06250       -0.31250        0.31250
 BRILLOUIN|   208           0.00391       -0.06250       -0.31250        0.43750
 BRILLOUIN|   209           0.00391       -0.06250       -0.18750       -0.43750
 BRILLOUIN|   210           0.00391       -0.06250       -0.18750       -0.31250
 BRILLOUIN|   211           0.00391       -0.06250       -0.18750       -0.18750
 BRILLOUIN|   212           0.00391       -0.06250       -0.18750       -0.06250
 BRILLOUIN|   213           0.00391       -0.06250       -0.18750        0.06250
 BRILLOUIN|   214           0.00391       -0.06250       -0.18750        0.18750
 BRILLOUIN|   215           0.00391       -0.06250       -0.18750        0.31250
 BRILLOUIN|   216           0.00391       -0.06250       -0.18750        0.43750
 BRILLOUIN|   217           0.00391       -0.06250       -0.06250       -0.43750
 BRILLOUIN|   218           0.00391       -0.06250       -0.06250       -0.31250
 BRILLOUIN|   219           0.00391       -0.06250       -0.06250       -0.18750
 BRILLOUIN|   220           0.00391       -0.06250       -0.06250       -0.06250
 BRILLOUIN|   221           0.00391       -0.06250       -0.06250        0.06250
 BRILLOUIN|   222           0.00391       -0.06250       -0.06250        0.18750
 BRILLOUIN|   223           0.00391       -0.06250       -0.06250        0.31250
 BRILLOUIN|   224           0.00391       -0.06250       -0.06250        0.43750
 BRILLOUIN|   225           0.00391       -0.06250        0.06250       -0.43750
 BRILLOUIN|   226           0.00391       -0.06250        0.06250       -0.31250
 BRILLOUIN|   227           0.00391       -0.06250        0.06250       -0.18750
 BRILLOUIN|   228           0.00391       -0.06250        0.06250       -0.06250
 BRILLOUIN|   229           0.00391       -0.06250        0.06250        0.06250
 BRILLOUIN|   230           0.00391       -0.06250        0.06250        0.18750
 BRILLOUIN|   231           0.00391       -0.06250        0.06250        0.31250
 BRILLOUIN|   232           0.00391       -0.06250        0.06250        0.43750
 BRILLOUIN|   233           0.00391       -0.06250        0.18750       -0.43750
 BRILLOUIN|   234           0.00391       -0.06250        0.18750       -0.31250
 BRILLOUIN|   235           0.00391       -0.06250        0.18750       -0.18750
 BRILLOUIN|   236           0.00391       -0.06250        0.18750       -0.06250
 BRILLOUIN|   237           0.00391       -0.06250        0.18750        0.06250
 BRILLOUIN|   238           0.00391       -0.06250        0.18750        0.18750
 BRILLOUIN|   239           0.00391       -0.06250        0.18750        0.31250
 BRILLOUIN|   240           0.00391       -0.06250        0.18750        0.43750
 BRILLOUIN|   241           0.00391       -0.06250        0.31250       -0.43750
 BRILLOUIN|   242           0.00391       -0.06250        0.31250       -0.31250
 BRILLOUIN|   243           0.00391       -0.06250        0.31250       -0.18750
 BRILLOUIN|   244           0.00391       -0.06250        0.31250       -0.06250
 BRILLOUIN|   245           0.00391       -0.06250        0.31250        0.06250
 BRILLOUIN|   246           0.00391       -0.06250        0.31250        0.18750
 BRILLOUIN|   247           0.00391       -0.06250        0.31250        0.31250
 BRILLOUIN|   248           0.00391       -0.06250        0.31250        0.43750
 BRILLOUIN|   249           0.00391       -0.06250        0.43750       -0.43750
 BRILLOUIN|   250           0.00391       -0.06250        0.43750       -0.31250
 BRILLOUIN|   251           0.00391       -0.06250        0.43750       -0.18750
 BRILLOUIN|   252           0.00391       -0.06250        0.43750       -0.06250
 BRILLOUIN|   253           0.00391       -0.06250        0.43750        0.06250
 BRILLOUIN|   254           0.00391       -0.06250        0.43750        0.18750
 BRILLOUIN|   255           0.00391       -0.06250        0.43750        0.31250
 BRILLOUIN|   256           0.00391       -0.06250        0.43750        0.43750
 *******************************************************************************

 *******************************************************************************
 *******************************************************************************
 **                                                                           **
 **     #####                         ##              ##                      **
 **    ##   ##            ##          ##              ##                      **
 **   ##     ##                       ##            ######                    **
 **   ##     ##  ##   ##  ##   #####  ##  ##   ####   ##    #####    #####    **
 **   ##     ##  ##   ##  ##  ##      ## ##   ##      ##   ##   ##  ##   ##   **
 **   ##  ## ##  ##   ##  ##  ##      ####     ###    ##   ######   ######    **
 **    ##  ###   ##   ##  ##  ##      ## ##      ##   ##   ##       ##        **
 **     #######   #####   ##   #####  ##  ##  ####    ##    #####   ##        **
 **           ##                                                    ##        **
 **                                                                           **
 **                                                ... make the atoms dance   **
 **                                                                           **
 **            Copyright (C) by CP2K developers group (2000-2025)             **
 **                      J. Chem. Phys. 152, 194103 (2020)                    **
 **                                                                           **
 *******************************************************************************

 DFT| Spin restricted Kohn-Sham (RKS) calculation                            RKS
 DFT| Multiplicity                                                             1
 DFT| Number of spin states                                                    1
 DFT| Charge                                                                   0
 DFT| Self-interaction correction (SIC)                                       NO
 DFT| Cutoffs: density                                              1.000000E-10
 DFT|          gradient                                             1.000000E-10
 DFT|          tau                                                  1.000000E-10
 DFT|          cutoff_smoothing_range                               0.000000E+00
 DFT| XC density smoothing                                                  NONE
 DFT| XC derivatives                                                          PW

 FUNCTIONAL| PBE:
 FUNCTIONAL| J.P.Perdew, K.Burke, M.Ernzerhof, Phys. Rev. Letter, vol. 77, n 18,
 FUNCTIONAL|  pp. 3865-3868, (1996) {spin unpolarized}                          


 QS| Method:                                                                 GPW
 QS| Density plane wave grid type                        NON-SPHERICAL FULLSPACE
 QS| Number of grid levels:                                                    4
 QS| Density cutoff [a.u.]:                                                500.0
 QS| Multi grid cutoff [a.u.]: 1) grid level                               500.0
 QS|                           2) grid level                               166.7
 QS|                           3) grid level                                55.6
 QS|                           4) grid level                                18.5
 QS| Grid level progression factor:                                          3.0
 QS| Relative density cutoff [a.u.]:                                        50.0
 QS| Interaction thresholds: eps_pgf_orb:                                1.0E-16
 QS|                         eps_filter_matrix:                          0.0E+00
 QS|                         eps_core_charge:                            1.0E-18
 QS|                         eps_rho_gspace:                             1.0E-16
 QS|                         eps_rho_rspace:                             1.0E-16
 QS|                         eps_gvg_rspace:                             1.0E-08
 QS|                         eps_ppl:                                    1.0E-02
 QS|                         eps_ppnl:                                   1.0E-10


 ATOMIC KIND INFORMATION

  1. Atomic kind: B                                     Number of atoms:      12

     Orbital Basis Set                                 aug-SZV-MOLOPT-GTH-tier-1

       Number of orbital shell sets:                                           1
       Number of orbital shells:                                               4
       Number of primitive Cartesian functions:                                5
       Number of Cartesian basis functions:                                    8
       Number of spherical basis functions:                                    8
       Norm type:                                                              2

       Normalised Cartesian orbitals:

                        Set   Shell   Orbital            Exponent    Coefficient

                          1       1    2s                0.101655      -0.057697
                                                         0.150000       0.000000
                                                         0.329920      -0.219689
                                                         0.915484       0.050494
                                                         3.053444       0.252403

                          1       2    3s                0.101655       0.128307
                                                         0.150000       0.000001
                                                         0.329920       0.000002
                                                         0.915484       0.000004
                                                         3.053444       0.000000

                          1       3    3px               0.101655      -0.024010
                                                         0.150000       0.000000
                                                         0.329920      -0.182602
                                                         0.915484      -0.388731
                                                         3.053444      -0.570047
                          1       3    3py               0.101655      -0.024010
                                                         0.150000       0.000000
                                                         0.329920      -0.182602
                                                         0.915484      -0.388731
                                                         3.053444      -0.570047
                          1       3    3pz               0.101655      -0.024010
                                                         0.150000       0.000000
                                                         0.329920      -0.182602
                                                         0.915484      -0.388731
                                                         3.053444      -0.570047

                          1       4    4px               0.101655       0.081235
                                                         0.150000       0.000499
                                                         0.329920       0.001336
                                                         0.915484       0.004786
                                                         3.053444       0.000000
                          1       4    4py               0.101655       0.081235
                                                         0.150000       0.000499
                                                         0.329920       0.001336
                                                         0.915484       0.004786
                                                         3.053444       0.000000
                          1       4    4pz               0.101655       0.081235
                                                         0.150000       0.000499
                                                         0.329920       0.001336
                                                         0.915484       0.004786
                                                         3.053444       0.000000

       Atomic covalent radius [Angstrom]:                                  0.820

       Atomic van der Waals radius [Angstrom]:                             1.920

     GTH Potential information for                                       GTH-PBE

       Description:                       Goedecker-Teter-Hutter pseudopotential
                                           Goedecker et al., PRB 54, 1703 (1996)
                                          Hartwigsen et al., PRB 58, 3641 (1998)
                                                      Krack, TCA 114, 145 (2005)

       Gaussian exponent of the core charge distribution:               2.848129
       Electronic configuration (s p d ...):                               2   1

       Parameters of the local part of the GTH pseudopotential:

                          rloc        C1          C2          C3          C4
                        0.418991   -5.859462    0.903756

       Parameters of the non-local part of the GTH (SOC) pseudopotential:

                   l      r(l)      h(i,j,l)
                                    k(i,j,l)
                   0    0.371320    6.297280
                   1    0.364563    0.000000
                                    0.000855


 MOLECULE KIND INFORMATION


 All atoms are their own molecule, skipping detailed information


 TOTAL NUMBERS AND MAXIMUM NUMBERS

  Total number of            - Atomic kinds:                                   1
                             - Atoms:                                         12
                             - Shell sets:                                    12
                             - Shells:                                        48
                             - Primitive Cartesian functions:                 60
                             - Cartesian basis functions:                     96
                             - Spherical basis functions:                     96

  Maximum angular momentum of- Orbital basis functions:                        1
                             - Local part of the GTH pseudopotential:          2
                             - Non-local part of the GTH pseudopotential:      1


 MODULE QUICKSTEP: ATOMIC COORDINATES IN ANGSTROM

   Atom Kind Element         X             Y             Z       Z(eff)     Mass
      1    1 B     5      6.477998     -0.910671      2.822819   3.0000  10.8110
      2    1 B     5     -1.577330      3.740075      1.361305   3.0000  10.8110
      3    1 B     5      4.900644      1.821387      2.822819   3.0000  10.8110
      4    1 B     5      0.000024      1.008018      1.361305   3.0000  10.8110
      5    1 B     5      3.323290     -0.910671      2.822819   3.0000  10.8110
      6    1 B     5      1.577378      3.740075      1.361305   3.0000  10.8110
      7    1 B     5      3.453232      0.835678      0.304353   3.0000  10.8110
      8    1 B     5      1.447435      1.993726      3.879771   3.0000  10.8110
      9    1 B     5      2.450359      2.572706      0.304353   3.0000  10.8110
     10    1 B     5      2.450308      0.256699      3.879771   3.0000  10.8110
     11    1 B     5      1.447486      0.835678      0.304353   3.0000  10.8110
     12    1 B     5      3.453181      1.993726      3.879771   3.0000  10.8110



 SCF PARAMETERS         Density guess:                                    ATOMIC
                        --------------------------------------------------------
                        max_scf:                                             500
                        max_scf_history:                                       0
                        max_diis:                                              4
                        --------------------------------------------------------
                        eps_scf:                                        1.00E-09
                        eps_scf_history:                                0.00E+00
                        eps_diis:                                       1.00E-01
                        eps_eigval:                                     1.00E-05
                        --------------------------------------------------------
                        level_shift [a.u.]:                             0.000000
                        added MOs                                        78    0
                        --------------------------------------------------------
                        Mixing method:                            BROYDEN_MIXING
                                                charge density mixing in g-space
                        --------------------------------------------------------
                        No outer SCF

 PW_GRID| Information for grid number                                          1
 PW_GRID| Grid distributed over                                     8 processors
 PW_GRID| Real space group dimensions                                     8    1
 PW_GRID| the grid is blocked:                                                NO
 PW_GRID| Cutoff [a.u.]                                                    500.0
 PW_GRID| spherical cutoff:                                                   NO
 PW_GRID|   Bounds   1            -48      47                Points:          96
 PW_GRID|   Bounds   2            -48      47                Points:          96
 PW_GRID|   Bounds   3            -50      49                Points:         100
 PW_GRID| Volume element (a.u.^3)  0.6372E-03     Volume (a.u.^3)       587.2766
 PW_GRID| Grid span                                                    FULLSPACE
 PW_GRID|   Distribution                         Average         Max         Min
 PW_GRID|   G-Vectors                           115200.0      115200      115200
 PW_GRID|   G-Rays                                1200.0        1200        1200
 PW_GRID|   Real Space Points                   115200.0      115200      115200

 PW_GRID| Information for grid number                                          2
 PW_GRID| Number of the reference grid                                         1
 PW_GRID| Grid distributed over                                     8 processors
 PW_GRID| Real space group dimensions                                     8    1
 PW_GRID| the grid is blocked:                                                NO
 PW_GRID| Cutoff [a.u.]                                                    166.7
 PW_GRID| spherical cutoff:                                                   NO
 PW_GRID|   Bounds   1            -27      26                Points:          54
 PW_GRID|   Bounds   2            -27      26                Points:          54
 PW_GRID|   Bounds   3            -30      29                Points:          60
 PW_GRID| Volume element (a.u.^3)  0.3357E-02     Volume (a.u.^3)       587.2766
 PW_GRID| Grid span                                                    FULLSPACE
 PW_GRID|   Distribution                         Average         Max         Min
 PW_GRID|   G-Vectors                            21870.0       21924       21816
 PW_GRID|   G-Rays                                 405.0         406         404
 PW_GRID|   Real Space Points                    21870.0       22680       19440

 PW_GRID| Information for grid number                                          3
 PW_GRID| Number of the reference grid                                         1
 PW_GRID| Grid distributed over                                     8 processors
 PW_GRID| Real space group dimensions                                     8    1
 PW_GRID| the grid is blocked:                                                NO
 PW_GRID| Cutoff [a.u.]                                                     55.6
 PW_GRID| spherical cutoff:                                                   NO
 PW_GRID|   Bounds   1            -16      15                Points:          32
 PW_GRID|   Bounds   2            -16      15                Points:          32
 PW_GRID|   Bounds   3            -18      17                Points:          36
 PW_GRID| Volume element (a.u.^3)  0.1593E-01     Volume (a.u.^3)       587.2766
 PW_GRID| Grid span                                                    FULLSPACE
 PW_GRID|   Distribution                         Average         Max         Min
 PW_GRID|   G-Vectors                             4608.0        4640        4576
 PW_GRID|   G-Rays                                 144.0         145         143
 PW_GRID|   Real Space Points                     4608.0        4608        4608

 PW_GRID| Information for grid number                                          4
 PW_GRID| Number of the reference grid                                         1
 PW_GRID| Grid distributed over                                     8 processors
 PW_GRID| Real space group dimensions                                     8    1
 PW_GRID| the grid is blocked:                                                NO
 PW_GRID| Cutoff [a.u.]                                                     18.5
 PW_GRID| spherical cutoff:                                                   NO
 PW_GRID|   Bounds   1             -9       8                Points:          18
 PW_GRID|   Bounds   2             -9       8                Points:          18
 PW_GRID|   Bounds   3            -10       9                Points:          20
 PW_GRID| Volume element (a.u.^3)  0.9063E-01     Volume (a.u.^3)       587.2766
 PW_GRID| Grid span                                                    FULLSPACE
 PW_GRID|   Distribution                         Average         Max         Min
 PW_GRID|   G-Vectors                              810.0         864         792
 PW_GRID|   G-Rays                                  45.0          48          44
 PW_GRID|   Real Space Points                      810.0        1080         720

 POISSON| Solver                                                        PERIODIC
 POISSON| Periodicity                                                        XYZ

 RS_GRID| Information for grid number                                          1
 RS_GRID|   Bounds   1            -48      47                Points:          96
 RS_GRID|   Bounds   2            -48      47                Points:          96
 RS_GRID|   Bounds   3            -50      49                Points:         100
 RS_GRID| Real space fully replicated
 RS_GRID| Group size                                                           1

 RS_GRID| Information for grid number                                          2
 RS_GRID|   Bounds   1            -27      26                Points:          54
 RS_GRID|   Bounds   2            -27      26                Points:          54
 RS_GRID|   Bounds   3            -30      29                Points:          60
 RS_GRID| Real space fully replicated
 RS_GRID| Group size                                                           1

 RS_GRID| Information for grid number                                          3
 RS_GRID|   Bounds   1            -16      15                Points:          32
 RS_GRID|   Bounds   2            -16      15                Points:          32
 RS_GRID|   Bounds   3            -18      17                Points:          36
 RS_GRID| Real space fully replicated
 RS_GRID| Group size                                                           1

 RS_GRID| Information for grid number                                          4
 RS_GRID|   Bounds   1             -9       8                Points:          18
 RS_GRID|   Bounds   2             -9       8                Points:          18
 RS_GRID|   Bounds   3            -10       9                Points:          20
 RS_GRID| Real space fully replicated
 RS_GRID| Group size                                                           1

 Number of electrons:                                                         36
 Number of occupied orbitals:                                                 18
 Number of molecular orbitals:                                                96

 Number of orbital functions:                                                 96
 Number of independent orbital functions:                                     96

 Extrapolation method: initial_guess

 Atomic guess: The first density matrix is obtained in terms of atomic orbitals
               and electronic configurations assigned to each atomic kind

 Guess for atomic kind: B

 Electronic structure
    Total number of core electrons                                          2.00
    Total number of valence electrons                                       3.00
    Total number of electrons                                               5.00
    Multiplicity                                                   not specified
    S   [  2.00] 2.00
    P      1.00


 *******************************************************************************
                  Iteration          Convergence                     Energy [au]
 *******************************************************************************
                          1        0.351007E-01                  -2.531527839822
                          2        0.110803E-01                  -2.532545391731
                          3        0.167403E-03                  -2.532686259122
                          4        0.422608E-07                  -2.532686288076

 Energy components [Hartree]           Total Energy ::           -2.532686288076
                                        Band Energy ::           -0.767228494859
                                     Kinetic Energy ::            1.388311035907
                                   Potential Energy ::           -3.920997323983
                                      Virial (-V/T) ::            2.824293132137
                                        Core Energy ::           -3.752923701185
                                          XC Energy ::           -0.782971799539
                                     Coulomb Energy ::            2.003209212648
                       Total Pseudopotential Energy ::           -5.170574238411
                       Local Pseudopotential Energy ::           -5.546858431823
                    Nonlocal Pseudopotential Energy ::            0.376284193411
                                        Confinement ::            0.293395013193

 Orbital energies  State     L     Occupation   Energy[a.u.]          Energy[eV]

                       1     0          2.000      -0.327454           -8.910466

                       1     1          1.000      -0.112321           -3.056417


 Total Electron Density at R=0:                                         0.000015
 Re-scaling the density matrix to get the right number of electrons
                  # Electrons              Trace(P)               Scaling factor
                           36                36.000                        1.000


 SCF WAVEFUNCTION OPTIMIZATION

  Step     Update method      Time    Convergence         Total energy    Change
  ------------------------------------------------------------------------------
     1 NoMix/Diag. 0.50E-01    4.2    16.23587558       -35.7779608174 -3.58E+01
     2 Broy./Diag. 0.50E-01    4.6     0.07768081       -31.2810430629  4.50E+00
     3 Broy./Diag. 0.50E-01    4.6     2.31956214       -33.1360192947 -1.85E+00
     4 Broy./Diag. 0.50E-01    4.6     0.04348979       -33.6697872893 -5.34E-01
     5 Broy./Diag. 0.50E-01    4.6     1.67609026       -33.8479105616 -1.78E-01
     6 Broy./Diag. 0.50E-01    4.6     0.02157274       -33.9251159429 -7.72E-02
     7 Broy./Diag. 0.50E-01    4.6     0.45155653       -33.9025473294  2.26E-02
     8 Broy./Diag. 0.50E-01    4.6     0.00473570       -33.9041125127 -1.57E-03
     9 Broy./Diag. 0.50E-01    4.6     0.02435999       -33.9032578329  8.55E-04
    10 Broy./Diag. 0.50E-01    4.6     0.00196643       -33.9054193781 -2.16E-03
    11 Broy./Diag. 0.50E-01    4.6     0.00284915       -33.9061746800 -7.55E-04
    12 Broy./Diag. 0.50E-01    4.6     0.00379757       -33.9067681079 -5.93E-04
    13 Broy./Diag. 0.50E-01    4.6     0.00030737       -33.9067227366  4.54E-05
    14 Broy./Diag. 0.50E-01    4.6     0.00515098       -33.9068319052 -1.09E-04
    15 Broy./Diag. 0.50E-01    4.6     0.00004120       -33.9067448175  8.71E-05
    16 Broy./Diag. 0.50E-01    4.6     0.00029815       -33.9067488644 -4.05E-06
    17 Broy./Diag. 0.50E-01    4.6     0.00005868       -33.9067488427  2.17E-08
    18 Broy./Diag. 0.50E-01    4.6     0.00042135       -33.9067615885 -1.27E-05
    19 Broy./Diag. 0.50E-01    4.6     0.00017568       -33.9067200122  4.16E-05
    20 Broy./Diag. 0.50E-01    4.6     0.00000989       -33.9066998134  2.02E-05
    21 Broy./Diag. 0.50E-01    4.6     0.00000914       -33.9066959790  3.83E-06
    22 Broy./Diag. 0.50E-01    4.6     0.00001654       -33.9066943516  1.63E-06
    23 Broy./Diag. 0.50E-01    4.6     0.00000371       -33.9066944425 -9.10E-08
    24 Broy./Diag. 0.50E-01    4.6     0.00000228       -33.9066942773  1.65E-07
    25 Broy./Diag. 0.50E-01    4.6     0.00000550       -33.9066926934  1.58E-06
    26 Broy./Diag. 0.50E-01    4.6     0.00000058       -33.9066922047  4.89E-07
    27 Broy./Diag. 0.50E-01    4.6     0.00000189       -33.9066913151  8.90E-07
    28 Broy./Diag. 0.50E-01    4.7     0.00000448       -33.9066914227 -1.08E-07
    29 Broy./Diag. 0.50E-01    4.6     0.00000368       -33.9066919998 -5.77E-07
    30 Broy./Diag. 0.50E-01    4.6     0.00000091       -33.9066921093 -1.09E-07
    31 Broy./Diag. 0.50E-01    4.6     0.00000120       -33.9066913436  7.66E-07
    32 Broy./Diag. 0.50E-01    4.6     0.00000213       -33.9066903659  9.78E-07
    33 Broy./Diag. 0.50E-01    4.6     0.00000013       -33.9066901301  2.36E-07
    34 Broy./Diag. 0.50E-01    4.6     0.00000015       -33.9066900741  5.60E-08
    35 Broy./Diag. 0.50E-01    4.7     0.00000012       -33.9066900860 -1.19E-08
    36 Broy./Diag. 0.50E-01    4.6     0.00000045       -33.9066901374 -5.14E-08
    37 Broy./Diag. 0.50E-01    4.6     0.00000009       -33.9066901655 -2.80E-08
    38 Broy./Diag. 0.50E-01    4.6     0.00000001       -33.9066901667 -1.23E-09
    39 Broy./Diag. 0.50E-01    4.6     0.00000002       -33.9066901528  1.39E-08
    40 Broy./Diag. 0.50E-01    4.6     0.00000004       -33.9066901515  1.39E-09
    41 Broy./Diag. 0.50E-01    4.7     0.00000003       -33.9066901585 -7.08E-09
    42 Broy./Diag. 0.50E-01    4.6     0.00000002       -33.9066901735 -1.49E-08
    43 Broy./Diag. 0.50E-01    4.6     5.5660E-09       -33.9066901761 -2.61E-09
    44 Broy./Diag. 0.50E-01    4.6     0.00000004       -33.9066901623  1.37E-08
    45 Broy./Diag. 0.50E-01    4.6     1.1872E-09       -33.9066901579  4.39E-09
    46 Broy./Diag. 0.50E-01    4.6     9.0407E-09       -33.9066901514  6.58E-09
    47 Broy./Diag. 0.50E-01    4.6     1.3157E-09       -33.9066901499  1.43E-09
    48 Broy./Diag. 0.50E-01    4.6     7.3695E-09       -33.9066901499  5.30E-11
    49 Broy./Diag. 0.50E-01    4.6     0.00000001       -33.9066901505 -6.75E-10
    50 Broy./Diag. 0.50E-01    4.6     5.7743E-10       -33.9066901508 -2.22E-10

  *** SCF run converged in    50 steps ***


  Electronic density on regular grids:        -36.0000000000        0.0000000000
  Core density on regular grids:               36.0000000000        0.0000000000
  Total charge density on r-space grids:        0.0000000000
  Total charge density g-space grids:           0.0000000000

  Overlap energy of the core charge distribution:               0.00000193750296
  Self energy of the core charge distribution:                -72.71326780434026
  Core Hamiltonian energy:                                     24.91327096557412
  Hartree energy:                                              27.09207078473154
  Exchange-correlation energy:                                -13.19876603423151

  Total energy:                                               -33.90669015076317

 !-----------------------------------------------------------------------------!
                     Mulliken Population Analysis

 #  Atom  Element  Kind  Atomic population                           Net charge
       1     B        1          2.867414                              0.132586
       2     B        1          2.867414                              0.132586
       3     B        1          2.867729                              0.132271
       4     B        1          2.867729                              0.132271
       5     B        1          2.867727                              0.132273
       6     B        1          2.867727                              0.132273
       7     B        1          3.132569                             -0.132569
       8     B        1          3.132569                             -0.132569
       9     B        1          3.132278                             -0.132278
      10     B        1          3.132278                             -0.132278
      11     B        1          3.132282                             -0.132282
      12     B        1          3.132282                             -0.132282
 # Total charge                             36.000000                  0.000000

 !-----------------------------------------------------------------------------!

 !-----------------------------------------------------------------------------!
                           Hirshfeld Charges

  #Atom  Element  Kind  Ref Charge     Population                    Net charge
      1       B      1       3.000          3.041                        -0.041
      2       B      1       3.000          3.041                        -0.041
      3       B      1       3.000          3.041                        -0.041
      4       B      1       3.000          3.041                        -0.041
      5       B      1       3.000          3.041                        -0.041
      6       B      1       3.000          3.041                        -0.041
      7       B      1       3.000          2.959                         0.041
      8       B      1       3.000          2.959                         0.041
      9       B      1       3.000          2.959                         0.041
     10       B      1       3.000          2.959                         0.041
     11       B      1       3.000          2.959                         0.041
     12       B      1       3.000          2.959                         0.041

  Total Charge                                                           -0.000
 !-----------------------------------------------------------------------------!

 KPOINTS| Band Structure Calculation
 KPOINTS| Number of k-point sets                                               1
 KPOINTS| Number of added MOs/bands                                           -1
 KPOINTS| Number of k-points in set    1                                     148
 KPOINTS| In units of b-vector [2pi/Bohr]
 KPOINTS| Special point     1 not specifi     0.000000     0.000000     0.000000
 KPOINTS| Special point     2 not specifi     0.371440     0.371440     0.000000
 KPOINTS| Special point     3 not specifi    -0.500000     0.500000     0.000000
 KPOINTS| Special point     4 not specifi     0.000000     0.000000     0.000000
 KPOINTS| Time for k-point line                                            1.782

 ENERGY| Total FORCE_EVAL ( QS ) energy [hartree]            -33.906690150763168

 -------------------------------------------------------------------------------
 -                                                                             -
 -                                DBCSR STATISTICS                             -
 -                                                                             -
 -------------------------------------------------------------------------------
 COUNTER                                    TOTAL       BLAS       SMM       ACC
 flops inhomo. stacks                           0       0.0%      0.0%      0.0%
 flops total                         0.000000E+00       0.0%      0.0%      0.0%
 flops max/rank                      0.000000E+00       0.0%      0.0%      0.0%
 matmuls inhomo. stacks                         0       0.0%      0.0%      0.0%
 matmuls total                                  0       0.0%      0.0%      0.0%
 number of processed stacks                     0       0.0%      0.0%      0.0%
 average stack size                                     0.0       0.0       0.0
 marketing flops                     0.000000E+00
 -------------------------------------------------------------------------------
 -                                                                             -
 -                      DBCSR MESSAGE PASSING PERFORMANCE                      -
 -                                                                             -
 -------------------------------------------------------------------------------
 ROUTINE             CALLS      AVE VOLUME [Bytes]
 MP_Bcast                1                     12.
 MP_Allreduce           19                     21.
 MP_Alltoall       1081048                   4653.
 -------------------------------------------------------------------------------

 -------------------------------------------------------------------------------
 -                                                                             -
 -                                DBM STATISTICS                               -
 -                                                                             -
 -------------------------------------------------------------------------------
    M  x    N  x    K                                          COUNT     PERCENT
 -------------------------------------------------------------------------------

 -------------------------------------------------------------------------------
 -                                                                             -
 -                                GRID STATISTICS                              -
 -                                                                             -
 -------------------------------------------------------------------------------
 LP    KERNEL             BACKEND                              COUNT     PERCENT
 2     collocate general  CPU                                5179356      50.49%
 2     integrate general  CPU                                5077800      49.50%
 0     collocate general  CPU                                     24       0.00%
 0     integrate general  CPU                                     12       0.00%
 -------------------------------------------------------------------------------

 MEMORY| Estimated peak process memory [MiB]                                 445

 -------------------------------------------------------------------------------
 ----                             MULTIGRID INFO                            ----
 -------------------------------------------------------------------------------
 count for grid        1:           7129          cutoff [a.u.]          500.00
 count for grid        2:          29563          cutoff [a.u.]          166.67
 count for grid        3:          84761          cutoff [a.u.]           55.56
 count for grid        4:          85364          cutoff [a.u.]           18.52
 total gridlevel count  :         206817

 -------------------------------------------------------------------------------
 -                                                                             -
 -                         MESSAGE PASSING PERFORMANCE                         -
 -                                                                             -
 -------------------------------------------------------------------------------

 ROUTINE             CALLS      AVE VOLUME [Bytes]
 MP_Group                6
 MP_Bcast           464556                    602.
 MP_Allreduce        90431                    121.
 MP_Sync                 4
 MP_Alltoall           905                5101736.
 MP_SendRecv          1442                 293296.
 MP_ISendRecv         1407                 290293.
 MP_Wait            320723
 MP_comm_split           4
 MP_ISend           339404                   2113.
 MP_IRecv           542336                   1325.
 -------------------------------------------------------------------------------


 -------------------------------------------------------------------------------
 -                                                                             -
 -                           R E F E R E N C E S                               -
 -                                                                             -
 -------------------------------------------------------------------------------
 
 CP2K version 2025.1 (Development Version), the CP2K developers group (2025).
 CP2K is freely available from https://www.cp2k.org/ .
 
 T. D. Kuehne, M. Iannuzzi, M. Del Ben, V. V. Rybkin, P. Seewald, F. Stein, T. 
 Laino, R. Z. Khaliullin, O. Schuett, F. Schiffmann, D. Golze, J. Wilhelm, S. 
 Chulkov, M. H. Bani-Hashemian, V. Weber, U. Borstnik, M. Taillefumier, A. S. 
 Jakobovits, A. Lazzaro, H. Pabst, T. Mueller, R. Schade, M. Guidon, S. 
 Andermatt, N. Holmberg, G. K. Schenter, A. Hehn, A. Bussy, F. Belleflamme, G. 
 Tabacchi, A. Gloess, M. Lass, I. Bethune, C. J. Mundy, C. Plessl, M. Watkins, 
 J. VandeVondele, M. Krack, J. Hutter.
 J. Chem. Phys. 152, 194103 (2020).
 CP2K: An electronic structure and molecular dynamics software package - 
 Quickstep: Efficient and accurate electronic structure calculations.
 https://doi.org/10.1063/5.0007045

 O. Schuett, P. Messmer, J. Hutter, J. VandeVondele.
 Electronic Structure Calculations on Graphics Processing Units, 173-190 (2016).
 GPU-Accelerated Sparse Matrix-Matrix Multiplication for Linear Scaling Density 
 Functional Theory.
 https://doi.org/10.1002/9781118670712.ch8

 J. Hutter, M. Iannuzzi, F. Schiffmann, J. VandeVondele.
 WIREs Comput Mol Sci. 4, 15-25 (2014).
 CP2K: atomistic simulations of condensed matter systems.
 https://doi.org/10.1002/wcms.1159

 U. Borstnik, J. VandeVondele, V. Weber, J. Hutter.
 Parallel Comput. 40, 47-58 (2014).
 Sparse matrix multiplication: The distributed block-compressed sparse row 
 library.
 https://doi.org/10.1016/j.parco.2014.03.012

 J. VandeVondele, J. Hutter.
 J. Chem. Phys. 127, 114105 (2007).
 Gaussian basis sets for accurate calculations on molecular systems in gas and 
 condensed phases.
 https://doi.org/10.1063/1.2770708

 J. VandeVondele, M. Krack, F. Mohamed, M. Parrinello, T. Chassaing, J. Hutter.
 Comput. Phys. Commun. 167, 103-128 (2005).
 QUICKSTEP: Fast and accurate density functional calculations using a mixed 
 Gaussian and plane waves approach.
 https://doi.org/10.1016/j.cpc.2004.12.014

 M. Krack.
 Theor. Chem. Acc. 114, 145-152 (2005).
 Pseudopotentials for H to Kr optimized for gradient-corrected 
 exchange-correlation functionals.
 https://doi.org/10.1007/s00214-005-0655-y

 M. Frigo, S. G. Johnson.
 Proc. IEEE 93, 216-231 (2005).
 The design and implementation of FFTW3.
 https://doi.org/10.1109/JPROC.2004.840301

 C. Hartwigsen, S. Goedecker, J. Hutter.
 Phys. Rev. B 58, 3641-3662 (1998).
 Relativistic separable dual-space Gaussian pseudopotentials from H to Rn.
 https://doi.org/10.1103/PhysRevB.58.3641

 G. Lippert, J. Hutter, M. Parrinello.
 Mol. Phys. 92, 477-487 (1997).
 A hybrid Gaussian and plane wave density functional scheme.
 https://doi.org/10.1080/002689797170220

 S. Goedecker, M. Teter, J. Hutter.
 Phys. Rev. B 54, 1703-1710 (1996).
 Separable dual-space Gaussian pseudopotentials.
 https://doi.org/10.1103/PhysRevB.54.1703

 J. P. Perdew, K. Burke, M. Ernzerhof.
 Phys. Rev. Lett. 77, 3865-3868 (1996).
 Generalized gradient approximation made simple.
 https://doi.org/10.1103/PhysRevLett.77.3865


 -------------------------------------------------------------------------------
 -                                                                             -
 -                                T I M I N G                                  -
 -                                                                             -
 -------------------------------------------------------------------------------
 SUBROUTINE                       CALLS  ASD         SELF TIME        TOTAL TIME
                                MAXIMUM       AVERAGE  MAXIMUM  AVERAGE  MAXIMUM
 CP2K                                 1  1.0    0.012    0.015  236.475  236.475
 qs_energies                          1  2.0    0.020    0.141  236.218  236.286
 scf_env_do_scf                       1  3.0    0.000    0.000  232.525  232.525
 scf_env_do_scf_inner_loop           50  4.0    0.028    0.032  232.525  232.525
 do_general_diag_kp                  51  5.9    0.315    0.325  193.551  196.389
 qs_scf_new_mos_kp                   50  5.0    0.000    0.001  191.920  194.752
 rskp_transform                   25896  7.0   66.241   87.805   66.241   87.805
 mp_alltoall_i22                 184540  8.8   40.119   62.251   40.119   62.251
 kpoint_density_transform            50  7.0    0.122    0.127   56.071   56.123
 dbcsr_desymmetrize_deep         105366  7.5    2.008    2.046   37.991   53.630
 transform_dmat                   12800  8.0   31.565   41.988   31.565   41.988
 dbcsr_complete_redistribute      79174  8.3    3.395    3.444   34.957   41.463
 copy_dbcsr_to_fm                 53574  6.9    0.581    0.598   26.845   27.153
 copy_fm_to_dbcsr                 25600  8.0    0.163    0.168   19.699   25.870
 qs_ks_update_qs_env                 50  5.0    0.000    0.000   17.889   22.804
 rebuild_ks_matrix                   50  6.0    0.000    0.000   16.936   21.851
 qs_ks_build_kohn_sham_matrix        50  7.0    0.053    0.054   16.936   21.851
 sum_up_and_integrate                50  8.0    0.001    0.001   15.344   20.255
 integrate_v_rspace                  50  9.0    0.097    0.132   15.342   20.253
 qs_rho_update_rho_low               51  5.0    0.000    0.000   19.560   19.580
 calculate_rho_elec                  51  6.0    0.052    0.059   19.559   19.579
 grid_integrate_task_list            50 10.0   14.670   19.550   14.670   19.550
 grid_collocate_task_list            51  7.0   14.324   18.695   14.324   18.695
 cp_fm_start_copy_general         77392  7.3    1.617    2.142    9.275    9.366
 density_rs2pw                       51  7.0    0.002    0.002    5.179    7.870
 transfer_rs2pw                     206  8.0    0.003    0.003    5.028    7.855
 transfer_rs2pw_500                  53  8.9    0.183    0.194    4.920    7.751
 mp_sendrecv_dv                    1442 10.0    4.803    7.628    4.803    7.628
 dbcsr_finalize                  194648  8.7    0.942    0.976    6.904    7.178
 mp_alltoall_d11v                553620  9.4    5.612    5.848    5.612    5.848
 cp_cfm_geeig                      1637  6.9    0.013    0.014    5.642    5.721
 mp_allgather_i                  154784  8.3    4.760    4.953    4.760    4.953
 cp_cfm_heevd                      1637  7.9    0.002    0.003    4.356    4.423
 cp_cfm_heevd_base                 1637  8.9    4.353    4.420    4.353    4.420
 mp_cart_sub                     107150  8.9    4.243    4.260    4.243    4.260
 dbcsr_merge_all                  79174 10.3    2.293    2.496    3.845    4.098
 mp_alltoall_i11v                342888  9.0    3.570    3.630    3.570    3.630
 hybrid_alltoall_any             105366  8.5    0.439    0.458    3.429    3.599
 dbcsr_copy                       85594  7.2    0.392    0.405    2.159    2.655
 mp_cart_create                   53581  8.9    2.500    2.549    2.500    2.549
 dbcsr_copy_into_existing         26194  9.9    1.510    1.997    1.664    2.149
 mp_bcast_iv                     309591  8.3    1.843    2.084    1.843    2.084
 dbcsr_work_create               184540  8.8    1.176    1.213    1.734    1.775
 dbcsr_create_new                327626  8.2    1.437    1.479    1.723    1.771
 write_kpoints_restart               50  5.0    0.006    0.011    1.631    1.632
 fft_wrap_pw1pw2                    905 10.0    0.008    0.008    1.533    1.547
 fft_wrap_pw1pw2_500                602 11.3    0.116    0.117    1.409    1.422
 dbcsr_work_destroy_all          184540  9.8    0.880    0.891    1.382    1.403
 dbcsr_iterator_start            590339  9.0    1.162    1.179    1.356    1.379
 copy_fm_to_dbcsr_bc              25600  9.0    0.356    0.366    1.242    1.283
 fft3d_ps                           905 12.0    0.519    0.531    1.217    1.232
 copy_dbcsr_to_fm_bc              53574  7.9    0.536    0.556    1.186    1.210
 tree_to_linear_d                 79174 11.3    1.041    1.138    1.041    1.138
 dbcsr_data_new                 1982671  9.7    1.097    1.137    1.097    1.137
 qs_energies_init_hamiltonians        1  3.0    0.000    0.000    1.125    1.125
 dbcsr_data_release             2783742 10.2    1.085    1.111    1.085    1.111
 cp_fm_finish_copy_general        32148  7.8    1.006    1.018    1.067    1.085
 qs_vxc_create                       50  8.0    0.001    0.001    1.071    1.072
 xc_vxc_pw_create                    50  9.0    0.046    0.046    1.070    1.071
 gspace_mixing                       49  5.0    0.040    0.041    1.056    1.056
 dbcsr_dot                        59401  8.0    0.381    0.434    0.970    1.004
 cp_dbcsr_alloc_block_from_nbl     4460  5.2    0.702    0.916    0.734    0.953
 evaluate_core_matrix_traces         50  6.0    0.000    0.000    0.953    0.953
 calculate_ptrace_kp                100  7.0    0.044    0.045    0.952    0.952
 build_core_hamiltonian_matrix        1  4.0    0.002    0.003    0.734    0.903
 dbcsr_destroy                   268226  8.3    0.458    0.474    0.844    0.885
 broyden_mixing                      49  6.0    0.861    0.874    0.878    0.882
 dbcsr_iterator_stop             590339  9.0    0.725    0.732    0.854    0.860
 cp_cfm_triangular_multiply        4911  7.9    0.745    0.757    0.745    0.757
 cp_fm_write_unformatted           1782  6.0    0.390    0.689    0.434    0.745
 quick_finalize                  105366  9.5    0.348    0.353    0.667    0.682
 xc_pw_derive                       300 11.0    0.001    0.001    0.674    0.675
 mp_waitall_1                    320723  8.3    0.371    0.645    0.371    0.645
 mp_bcast_im                     154784  8.3    0.568    0.642    0.568    0.642
 mp_alltoall_z22v                   905 14.0    0.598    0.621    0.598    0.621
 self_consistency_check              50  5.0    0.042    0.043    0.581    0.606
 potential_pw2rs                     50 10.0    0.004    0.004    0.575    0.596
 xc_rho_set_and_dset_create          50 10.0    0.023    0.024    0.577    0.581
 mp_sum_d                         60223  8.9    0.486    0.578    0.486    0.578
 kpoint_density_matrices             50  7.0    0.031    0.033    0.515    0.527
 cp_sm_mix                        29700  6.0    0.172    0.205    0.484    0.513
 init_scf_run                         1  3.0    0.000    0.000    0.470    0.505
 scf_env_initial_rho_setup            1  4.0    0.000    0.000    0.470    0.504
 parallel_gemm_fm                  6400  8.0    0.006    0.006    0.464    0.477
 parallel_gemm_fm_gemm             6400  9.0    0.006    0.006    0.458    0.471
 cp_fm_gemm                        6400 10.0    0.452    0.465    0.452    0.465
 xc_pw_divergence                    50 10.0    0.001    0.001    0.441    0.442
 qs_env_update_s_mstruct              1  4.0    0.000    0.000    0.330    0.440
 mp_comm_free                    160765  8.9    0.405    0.431    0.405    0.431
 x_to_yz                            500 13.2    0.058    0.060    0.393    0.405
 transfer_pw2rs                     201 11.0    0.001    0.001    0.399    0.400
 dbcsr_sort_indices              214600 10.9    0.357    0.372    0.357    0.372
 build_core_ppnl                      1  5.0    0.296    0.357    0.296    0.357
 calculate_rho_core                   1  5.0    0.003    0.004    0.190    0.325
 dbcsr_set                       194131  7.9    0.189    0.193    0.300    0.321
 yz_to_x                            405 12.8    0.034    0.037    0.297    0.316
 transfer_pw2rs_500                  51 11.9    0.153    0.157    0.302    0.310
 kpoint_set_mo_occupation            50  7.0    0.083    0.084    0.202    0.300
 mp_max_d                         29702  7.0    0.243    0.291    0.243    0.291
 mp_isend_dv                      77984  8.3    0.276    0.290    0.276    0.290
 mixing_allocate                      1  3.0    0.003    0.003    0.201    0.262
 cp_cfm_triangular_invert          1637  7.9    0.248    0.251    0.248    0.251
 cp_cfm_cholesky_decompose         1637  7.9    0.245    0.248    0.245    0.248
 dbcsr_reserve_all_blocks         25600 10.0    0.044    0.045    0.221    0.232
 dbcsr_reserve_blocks             30060 10.3    0.173    0.186    0.207    0.219
 mp_sum_dm3                          50  8.0    0.120    0.217    0.120    0.217
 merge_index                      79174 11.3    0.191    0.209    0.191    0.209
 dbcsr_iterator_seek             590339 10.0    0.195    0.206    0.195    0.206
 xc_functional_eval                  50 11.0    0.000    0.001    0.198    0.200
 pbe_lda_eval                        50 12.0    0.197    0.200    0.197    0.200
 dbcsr_make_index_exist          327626  9.2    0.181    0.194    0.181    0.194
 mp_sum_dv                          345  3.6    0.066    0.158    0.066    0.158
 mp_irecv_iv                     309568  8.3    0.019    0.152    0.019    0.152
 mp_send_dv                        1782  7.0    0.037    0.146    0.037    0.146
 restraint_control                    1  2.0    0.000    0.000    0.069    0.137
 mp_sum_i                             4  2.8    0.069    0.137    0.069    0.137
 build_overlap_matrix_low             1  5.0    0.007    0.007    0.110    0.136
 build_kinetic_matrix_low             1  5.0    0.007    0.007    0.107    0.135
 qs_env_rebuild_rho                   1  5.0    0.000    0.000    0.099    0.130
 qs_rho_rebuild                       1  6.0    0.002    0.002    0.099    0.130
 dbcsr_zero                      194131  8.9    0.111    0.129    0.111    0.129
 dbcsr_switch_data_area          105366 10.5    0.096    0.097    0.125    0.127
 dbcsr_data_copy_aa2              79174 11.3    0.114    0.125    0.114    0.125
 cp_fm_cleanup_copy_general       54992  7.0    0.078    0.079    0.120    0.123
 mp_isend_iv                     174280  8.3    0.028    0.108    0.028    0.108
 pw_scatter_p                       500 12.2    0.103    0.105    0.103    0.105
 calculate_first_density_matrix       1  5.0    0.000    0.000    0.065    0.100
 calculate_atomic_block_dm            1  6.0    0.001    0.001    0.064    0.098
 build_core_ppl                       1  5.0    0.075    0.091    0.075    0.091
 pw_poisson_solve                    50  8.0    0.001    0.001    0.090    0.090
 cp_cfm_scale_and_add_fm           6548  6.9    0.085    0.087    0.085    0.087
 dbcsr_distribution_new           79176  8.6    0.070    0.083    0.070    0.083
 transfer_rs2pw_170                  51  9.0    0.030    0.031    0.077    0.083
 dbcsr_make_dbcsr_index          214600 10.9    0.077    0.082    0.077    0.082
 mp_isendrecv_dv                   1407 13.0    0.040    0.081    0.040    0.081
 parser_read_line                  4076  4.1    0.001    0.001    0.079    0.080
 parser_read_line_low                22  6.3    0.008    0.029    0.078    0.079
 fft_wrap_pw1pw2_170                101 10.5    0.005    0.006    0.076    0.078
 transfer_pw2rs_170                  50 12.0    0.031    0.032    0.070    0.077
 mp_irecv_im2                    154784  8.3    0.009    0.075    0.009    0.075
 broadcast_input_information         22  7.3    0.025    0.029    0.070    0.075
 calculate_ecore_overlap              1  4.0    0.000    0.000    0.047    0.072
 dbcsr_get_data_size_used        184540  9.8    0.068    0.070    0.068    0.070
 topology_control                     1  2.0    0.000    0.000    0.064    0.064
 pw_integral_ab_c1d_c1d_gs           50  9.0    0.058    0.059    0.060    0.061
 qs_create_task_list                  1  5.0    0.000    0.000    0.041    0.057
 generate_qs_task_list                1  6.0    0.026    0.038    0.041    0.057
 mp_recv_dv                        5346  7.0    0.007    0.056    0.007    0.056
 pw_gather_p                        405 11.8    0.053    0.054    0.053    0.054
 mp_isend_im2                     87140  8.3    0.012    0.050    0.012    0.050
 mp_sum_iv                           24  5.3    0.031    0.048    0.031    0.048
 qs_scf_ensure_work_matrices          1  3.0    0.000    0.000    0.031    0.048
 mp_irecv_dv                      77984  8.3    0.045    0.046    0.045    0.046
 read_cell_cif                        2  4.5    0.002    0.004    0.043    0.044
 scf_post_calculation_gpw             1  3.0    0.000    0.000    0.043    0.044
 write_available_results              1  4.0    0.000    0.000    0.043    0.043
 write_mo_free_results                1  5.0    0.001    0.002    0.043    0.043
 qs_init_subsys                       1  2.0    0.001    0.002    0.042    0.042
 create_qs_kind_set                   1  2.0    0.000    0.000    0.042    0.042
 read_qs_kind                         1  3.0    0.021    0.022    0.042    0.042
 qs_env_setup                         1  3.0    0.000    0.000    0.039    0.040
 qs_env_rebuild_pw_env                2  3.5    0.000    0.000    0.039    0.039
 pw_env_rebuild                       1  5.0    0.000    0.001    0.039    0.039
 coordinate_control                   1  3.0    0.001    0.001    0.039    0.039
 coordinate_control_READ_COORDI       1  4.0    0.000    0.000    0.038    0.039
 read_coordinate_cif                  1  5.0    0.002    0.002    0.038    0.039
 pw_grid_setup                        4  6.0    0.000    0.000    0.037    0.038
 pw_grid_setup_internal               4  7.0    0.001    0.001    0.037    0.038
 cp_cfm_to_cfm_columns             1637  7.9    0.035    0.037    0.035    0.037
 cp_cfm_to_fm                      1637  6.9    0.035    0.035    0.035    0.035
 pw_copy                            750 10.5    0.032    0.034    0.032    0.034
 mp_bcast_i_src                      88  8.3    0.025    0.031    0.025    0.031
 mp_bcast_am_src                     22  8.3    0.013    0.014    0.019    0.028
 fft_wrap_pw1pw2_60                 101 10.5    0.002    0.002    0.027    0.028
 pw_derive                          450 11.3    0.027    0.028    0.027    0.028
 pw_grid_sort                         4  8.0    0.019    0.020    0.024    0.024
 -------------------------------------------------------------------------------

 The number of warnings for this run is : 1
 
 -------------------------------------------------------------------------------
  **** **** ******  **  PROGRAM ENDED AT                 2025-08-04 17:34:57.259
 ***** ** ***  *** **   PROGRAM RAN ON                              i04r10c01s08
 **    ****   ******    PROGRAM RAN BY                                   di38fab
 ***** **    ** ** **   PROGRAM PROCESS ID                               2422365
  **** **  *******  **  PROGRAM STOPPED IN /hppfs/scratch/04/di38fab/09_GTH/Delt
                                           a_Set/B/aug-SZV-MOLOPT-GTH-tier-1/8x8
                                           x8
