 DBCSR| CPU Multiplication driver                                           BLAS (U)
 DBCSR| Multrec recursion limit                                              512 (U)
 DBCSR| Multiplication stack size                                           1000 (D)
 DBCSR| Maximum elements for images                                    UNLIMITED (U)
 DBCSR| Multiplicative factor virtual images                                   1 (U)
 DBCSR| Use multiplication densification                                       T (D)
 DBCSR| Multiplication size stacks                                             3 (U)
 DBCSR| Use memory pool for CPU allocation                                     F (U)
 DBCSR| Number of 3D layers                                               SINGLE (U)
 DBCSR| Use MPI memory allocation                                              F (U)
 DBCSR| Use RMA algorithm                                                      F (U)
 DBCSR| Use Communication thread                                               T (U)
 DBCSR| Communication thread load                                             45 (D)
 DBCSR| MPI: My process id                                                     0
 DBCSR| MPI: Number of processes                                              16
 DBCSR| OMP: Current number of threads                                        12
 DBCSR| OMP: Max number of threads                                            12
 DBCSR| Split modifier for TAS multiplication algorithm                  1.0E+00 (U)


  **** **** ******  **  PROGRAM STARTED AT               2025-08-05 22:29:41.101
 ***** ** ***  *** **   PROGRAM STARTED ON                          i04r09c01s06
 **    ****   ******    PROGRAM STARTED BY                               di38fab
 ***** **    ** ** **   PROGRAM PROCESS ID                                470564
  **** **  *******  **  PROGRAM STARTED IN /hppfs/scratch/04/di38fab/09_GTH/Delt
                                           a_Set/Kr/aug-TZVP-MOLOPT-GTH-tier-2/8
                                           x8x8

 CP2K| version string:                 CP2K version 2025.1 (Development Version)
 CP2K| source code revision number:                                  git:3130539
 CP2K| cp2kflags: omp libint fftw3 libxc parallel scalapack max_contr=4         
 CP2K| is freely available from                            https://www.cp2k.org/
 CP2K| Program compiled at                         Tue Jun  3 16:14:32 CEST 2025
 CP2K| Program compiled on                                               login01
 CP2K| Program compiled for                                        Supermuc-foss
 CP2K| Data directory path                  /hppfs/work/pn36zo/di38fab/cp2k/data
 CP2K| Input file name                                                    GW.inp

 GLOBAL| Force Environment number                                              1
 GLOBAL| Basis set file name            /hppfs/scratch/04/di38fab/09_GTH/BASIS_A
 GLOBAL| Potential file name            /hppfs/work/pn36zo/di38fab/cp2k/data/GTH
 GLOBAL| MM Potential file name                                     MM_POTENTIAL
 GLOBAL| Coordinate file name                                             Kr.cif
 GLOBAL| Method name                                                        CP2K
 GLOBAL| Project name                                                       WSe2
 GLOBAL| Run type                                                         ENERGY
 GLOBAL| FFT library                                                       FFTW3
 GLOBAL| Diagonalization library                                       ScaLAPACK
 GLOBAL| Cholesky decomposition library                                ScaLAPACK
 GLOBAL| DGEMM library                                                      BLAS
 GLOBAL| Orthonormality check for eigenvectors                          DISABLED
 GLOBAL| Matrix multiplication library                                 ScaLAPACK
 GLOBAL| All-to-all communication in single precision                          F
 GLOBAL| FFTs using library dependent lengths                                  F
 GLOBAL| Grid backend                                                       AUTO
 GLOBAL| Global print level                                               MEDIUM
 GLOBAL| MPI I/O enabled                                                       T
 GLOBAL| Total number of message passing processes                            16
 GLOBAL| Number of threads for this process                                   12
 GLOBAL| This output is from process                                           0
 GLOBAL| OpenMP stack size per thread (OMP_STACKSIZE)                    default
 GLOBAL| CPU model name             Intel(R) Xeon(R) Platinum 8174 CPU @ 3.10GHz

 MEMORY| system memory details [Kb]
 MEMORY|                        rank 0           min           max       average
 MEMORY| MemTotal             98436664      98436664      98436708      98436686
 MEMORY| MemFree              84506664      84439972      84803072      84608654
 MEMORY| Buffers                     0             0             0             0
 MEMORY| Cached                2371908       2361100       2392368       2373652
 MEMORY| Slab                  1290192       1240016       1304948       1268826
 MEMORY| SReclaimable           282712        274356        289816        281289
 MEMORY| MemLikelyFree        87161284      87122156      87442444      87263595


 *** Fundamental physical constants (SI units) ***

 *** Literature: B. J. Mohr and B. N. Taylor,
 ***             CODATA recommended values of the fundamental physical
 ***             constants: 2006, Web Version 5.1
 ***             http://physics.nist.gov/constants

 Speed of light in vacuum [m/s]                             2.99792458000000E+08
 Magnetic constant or permeability of vacuum [N/A**2]       1.25663706143592E-06
 Electric constant or permittivity of vacuum [F/m]          8.85418781762039E-12
 Planck constant (h) [J*s]                                  6.62606896000000E-34
 Planck constant (h-bar) [J*s]                              1.05457162825177E-34
 Elementary charge [C]                                      1.60217648700000E-19
 Electron mass [kg]                                         9.10938215000000E-31
 Electron g factor [ ]                                     -2.00231930436220E+00
 Proton mass [kg]                                           1.67262163700000E-27
 Fine-structure constant                                    7.29735253760000E-03
 Rydberg constant [1/m]                                     1.09737315685270E+07
 Avogadro constant [1/mol]                                  6.02214179000000E+23
 Boltzmann constant [J/K]                                   1.38065040000000E-23
 Atomic mass unit [kg]                                      1.66053878200000E-27
 Bohr radius [m]                                            5.29177208590000E-11

 *** Conversion factors ***

 [u] -> [a.u.]                                              1.82288848426455E+03
 [Angstrom] -> [Bohr] = [a.u.]                              1.88972613288564E+00
 [a.u.] = [Bohr] -> [Angstrom]                              5.29177208590000E-01
 [a.u.] -> [s]                                              2.41888432650478E-17
 [a.u.] -> [fs]                                             2.41888432650478E-02
 [a.u.] -> [J]                                              4.35974393937059E-18
 [a.u.] -> [N]                                              8.23872205491840E-08
 [a.u.] -> [K]                                              3.15774647902944E+05
 [a.u.] -> [kJ/mol]                                         2.62549961709828E+03
 [a.u.] -> [kcal/mol]                                       6.27509468713739E+02
 [a.u.] -> [Pa]                                             2.94210107994716E+13
 [a.u.] -> [bar]                                            2.94210107994716E+08
 [a.u.] -> [atm]                                            2.90362800883016E+08
 [a.u.] -> [eV]                                             2.72113838565563E+01
 [a.u.] -> [Hz]                                             6.57968392072181E+15
 [a.u.] -> [1/cm] (wave numbers)                            2.19474631370540E+05
 [a.u./Bohr**2] -> [1/cm]                                   5.14048714338585E+03
 

 CELL_TOP| Volume [angstrom^3]:                                       265.760892
 CELL_TOP| Vector a [angstrom     6.429     0.000     0.000   |a| =     6.429300
 CELL_TOP| Vector b [angstrom     0.000     6.429     0.000   |b| =     6.429300
 CELL_TOP| Vector c [angstrom     0.000     0.000     6.429   |c| =     6.429300
 CELL_TOP| Angle (b,c), alpha [degree]:                                90.000000
 CELL_TOP| Angle (a,c), beta  [degree]:                                90.000000
 CELL_TOP| Angle (a,b), gamma [degree]:                                90.000000
 CELL_TOP| Numerically orthorhombic:                                         YES
 CELL_TOP| Periodicity                                                       XYZ

 CELL_CIF| Volume [angstrom^3]:                                       265.760892
 CELL_CIF| Vector a [angstrom     6.429     0.000     0.000   |a| =     6.429300
 CELL_CIF| Vector b [angstrom     0.000     6.429     0.000   |b| =     6.429300
 CELL_CIF| Vector c [angstrom     0.000     0.000     6.429   |c| =     6.429300
 CELL_CIF| Angle (b,c), alpha [degree]:                                90.000000
 CELL_CIF| Angle (a,c), beta  [degree]:                                90.000000
 CELL_CIF| Angle (a,b), gamma [degree]:                                90.000000
 CELL_CIF| Numerically orthorhombic:                                         YES
 CELL_CIF| Periodicity                                                       XYZ

 GENERATE|  Preliminary Number of Bonds generated:                             0
 GENERATE|  Achieved consistency in connectivity generation.

 CELL| Volume [angstrom^3]:                                           265.760892
 CELL| Vector a [angstrom]:       6.429     0.000     0.000   |a| =     6.429300
 CELL| Vector b [angstrom]:       0.000     6.429     0.000   |b| =     6.429300
 CELL| Vector c [angstrom]:       0.000     0.000     6.429   |c| =     6.429300
 CELL| Angle (b,c), alpha [degree]:                                    90.000000
 CELL| Angle (a,c), beta  [degree]:                                    90.000000
 CELL| Angle (a,b), gamma [degree]:                                    90.000000
 CELL| Numerically orthorhombic:                                             YES
 CELL| Periodicity                                                           XYZ

 CELL_REF| Volume [angstrom^3]:                                       265.760892
 CELL_REF| Vector a [angstrom     6.429     0.000     0.000   |a| =     6.429300
 CELL_REF| Vector b [angstrom     0.000     6.429     0.000   |b| =     6.429300
 CELL_REF| Vector c [angstrom     0.000     0.000     6.429   |c| =     6.429300
 CELL_REF| Angle (b,c), alpha [degree]:                                90.000000
 CELL_REF| Angle (a,c), beta  [degree]:                                90.000000
 CELL_REF| Angle (a,b), gamma [degree]:                                90.000000
 CELL_REF| Numerically orthorhombic:                                         YES
 CELL_REF| Periodicity                                                       XYZ

 *** WARNING in cryssym.F:180 :: Symmetry library SPGLIB not available ***


 *******************************************************************************
                                    Kpoints
 *******************************************************************************
 BRILLOUIN| K-point scheme                                        Monkhorst-Pack
 BRILLOUIN| K-Point grid                                             8    8    8
 BRILLOUIN| Accuracy in Symmetry determination                      0.100000E-05
 BRILLOUIN| K-Point point group symmetrization                               OFF
 BRILLOUIN| Wavefunction type                                            COMPLEX
 BRILLOUIN| List of Kpoints [2 Pi/Bohr]                                      256
 BRILLOUIN| Number           Weight            X              Y              Z
 BRILLOUIN|     1           0.00391       -0.43750       -0.43750       -0.43750
 BRILLOUIN|     2           0.00391       -0.43750       -0.43750       -0.31250
 BRILLOUIN|     3           0.00391       -0.43750       -0.43750       -0.18750
 BRILLOUIN|     4           0.00391       -0.43750       -0.43750       -0.06250
 BRILLOUIN|     5           0.00391       -0.43750       -0.43750        0.06250
 BRILLOUIN|     6           0.00391       -0.43750       -0.43750        0.18750
 BRILLOUIN|     7           0.00391       -0.43750       -0.43750        0.31250
 BRILLOUIN|     8           0.00391       -0.43750       -0.43750        0.43750
 BRILLOUIN|     9           0.00391       -0.43750       -0.31250       -0.43750
 BRILLOUIN|    10           0.00391       -0.43750       -0.31250       -0.31250
 BRILLOUIN|    11           0.00391       -0.43750       -0.31250       -0.18750
 BRILLOUIN|    12           0.00391       -0.43750       -0.31250       -0.06250
 BRILLOUIN|    13           0.00391       -0.43750       -0.31250        0.06250
 BRILLOUIN|    14           0.00391       -0.43750       -0.31250        0.18750
 BRILLOUIN|    15           0.00391       -0.43750       -0.31250        0.31250
 BRILLOUIN|    16           0.00391       -0.43750       -0.31250        0.43750
 BRILLOUIN|    17           0.00391       -0.43750       -0.18750       -0.43750
 BRILLOUIN|    18           0.00391       -0.43750       -0.18750       -0.31250
 BRILLOUIN|    19           0.00391       -0.43750       -0.18750       -0.18750
 BRILLOUIN|    20           0.00391       -0.43750       -0.18750       -0.06250
 BRILLOUIN|    21           0.00391       -0.43750       -0.18750        0.06250
 BRILLOUIN|    22           0.00391       -0.43750       -0.18750        0.18750
 BRILLOUIN|    23           0.00391       -0.43750       -0.18750        0.31250
 BRILLOUIN|    24           0.00391       -0.43750       -0.18750        0.43750
 BRILLOUIN|    25           0.00391       -0.43750       -0.06250       -0.43750
 BRILLOUIN|    26           0.00391       -0.43750       -0.06250       -0.31250
 BRILLOUIN|    27           0.00391       -0.43750       -0.06250       -0.18750
 BRILLOUIN|    28           0.00391       -0.43750       -0.06250       -0.06250
 BRILLOUIN|    29           0.00391       -0.43750       -0.06250        0.06250
 BRILLOUIN|    30           0.00391       -0.43750       -0.06250        0.18750
 BRILLOUIN|    31           0.00391       -0.43750       -0.06250        0.31250
 BRILLOUIN|    32           0.00391       -0.43750       -0.06250        0.43750
 BRILLOUIN|    33           0.00391       -0.43750        0.06250       -0.43750
 BRILLOUIN|    34           0.00391       -0.43750        0.06250       -0.31250
 BRILLOUIN|    35           0.00391       -0.43750        0.06250       -0.18750
 BRILLOUIN|    36           0.00391       -0.43750        0.06250       -0.06250
 BRILLOUIN|    37           0.00391       -0.43750        0.06250        0.06250
 BRILLOUIN|    38           0.00391       -0.43750        0.06250        0.18750
 BRILLOUIN|    39           0.00391       -0.43750        0.06250        0.31250
 BRILLOUIN|    40           0.00391       -0.43750        0.06250        0.43750
 BRILLOUIN|    41           0.00391       -0.43750        0.18750       -0.43750
 BRILLOUIN|    42           0.00391       -0.43750        0.18750       -0.31250
 BRILLOUIN|    43           0.00391       -0.43750        0.18750       -0.18750
 BRILLOUIN|    44           0.00391       -0.43750        0.18750       -0.06250
 BRILLOUIN|    45           0.00391       -0.43750        0.18750        0.06250
 BRILLOUIN|    46           0.00391       -0.43750        0.18750        0.18750
 BRILLOUIN|    47           0.00391       -0.43750        0.18750        0.31250
 BRILLOUIN|    48           0.00391       -0.43750        0.18750        0.43750
 BRILLOUIN|    49           0.00391       -0.43750        0.31250       -0.43750
 BRILLOUIN|    50           0.00391       -0.43750        0.31250       -0.31250
 BRILLOUIN|    51           0.00391       -0.43750        0.31250       -0.18750
 BRILLOUIN|    52           0.00391       -0.43750        0.31250       -0.06250
 BRILLOUIN|    53           0.00391       -0.43750        0.31250        0.06250
 BRILLOUIN|    54           0.00391       -0.43750        0.31250        0.18750
 BRILLOUIN|    55           0.00391       -0.43750        0.31250        0.31250
 BRILLOUIN|    56           0.00391       -0.43750        0.31250        0.43750
 BRILLOUIN|    57           0.00391       -0.43750        0.43750       -0.43750
 BRILLOUIN|    58           0.00391       -0.43750        0.43750       -0.31250
 BRILLOUIN|    59           0.00391       -0.43750        0.43750       -0.18750
 BRILLOUIN|    60           0.00391       -0.43750        0.43750       -0.06250
 BRILLOUIN|    61           0.00391       -0.43750        0.43750        0.06250
 BRILLOUIN|    62           0.00391       -0.43750        0.43750        0.18750
 BRILLOUIN|    63           0.00391       -0.43750        0.43750        0.31250
 BRILLOUIN|    64           0.00391       -0.43750        0.43750        0.43750
 BRILLOUIN|    65           0.00391       -0.31250       -0.43750       -0.43750
 BRILLOUIN|    66           0.00391       -0.31250       -0.43750       -0.31250
 BRILLOUIN|    67           0.00391       -0.31250       -0.43750       -0.18750
 BRILLOUIN|    68           0.00391       -0.31250       -0.43750       -0.06250
 BRILLOUIN|    69           0.00391       -0.31250       -0.43750        0.06250
 BRILLOUIN|    70           0.00391       -0.31250       -0.43750        0.18750
 BRILLOUIN|    71           0.00391       -0.31250       -0.43750        0.31250
 BRILLOUIN|    72           0.00391       -0.31250       -0.43750        0.43750
 BRILLOUIN|    73           0.00391       -0.31250       -0.31250       -0.43750
 BRILLOUIN|    74           0.00391       -0.31250       -0.31250       -0.31250
 BRILLOUIN|    75           0.00391       -0.31250       -0.31250       -0.18750
 BRILLOUIN|    76           0.00391       -0.31250       -0.31250       -0.06250
 BRILLOUIN|    77           0.00391       -0.31250       -0.31250        0.06250
 BRILLOUIN|    78           0.00391       -0.31250       -0.31250        0.18750
 BRILLOUIN|    79           0.00391       -0.31250       -0.31250        0.31250
 BRILLOUIN|    80           0.00391       -0.31250       -0.31250        0.43750
 BRILLOUIN|    81           0.00391       -0.31250       -0.18750       -0.43750
 BRILLOUIN|    82           0.00391       -0.31250       -0.18750       -0.31250
 BRILLOUIN|    83           0.00391       -0.31250       -0.18750       -0.18750
 BRILLOUIN|    84           0.00391       -0.31250       -0.18750       -0.06250
 BRILLOUIN|    85           0.00391       -0.31250       -0.18750        0.06250
 BRILLOUIN|    86           0.00391       -0.31250       -0.18750        0.18750
 BRILLOUIN|    87           0.00391       -0.31250       -0.18750        0.31250
 BRILLOUIN|    88           0.00391       -0.31250       -0.18750        0.43750
 BRILLOUIN|    89           0.00391       -0.31250       -0.06250       -0.43750
 BRILLOUIN|    90           0.00391       -0.31250       -0.06250       -0.31250
 BRILLOUIN|    91           0.00391       -0.31250       -0.06250       -0.18750
 BRILLOUIN|    92           0.00391       -0.31250       -0.06250       -0.06250
 BRILLOUIN|    93           0.00391       -0.31250       -0.06250        0.06250
 BRILLOUIN|    94           0.00391       -0.31250       -0.06250        0.18750
 BRILLOUIN|    95           0.00391       -0.31250       -0.06250        0.31250
 BRILLOUIN|    96           0.00391       -0.31250       -0.06250        0.43750
 BRILLOUIN|    97           0.00391       -0.31250        0.06250       -0.43750
 BRILLOUIN|    98           0.00391       -0.31250        0.06250       -0.31250
 BRILLOUIN|    99           0.00391       -0.31250        0.06250       -0.18750
 BRILLOUIN|   100           0.00391       -0.31250        0.06250       -0.06250
 BRILLOUIN|   101           0.00391       -0.31250        0.06250        0.06250
 BRILLOUIN|   102           0.00391       -0.31250        0.06250        0.18750
 BRILLOUIN|   103           0.00391       -0.31250        0.06250        0.31250
 BRILLOUIN|   104           0.00391       -0.31250        0.06250        0.43750
 BRILLOUIN|   105           0.00391       -0.31250        0.18750       -0.43750
 BRILLOUIN|   106           0.00391       -0.31250        0.18750       -0.31250
 BRILLOUIN|   107           0.00391       -0.31250        0.18750       -0.18750
 BRILLOUIN|   108           0.00391       -0.31250        0.18750       -0.06250
 BRILLOUIN|   109           0.00391       -0.31250        0.18750        0.06250
 BRILLOUIN|   110           0.00391       -0.31250        0.18750        0.18750
 BRILLOUIN|   111           0.00391       -0.31250        0.18750        0.31250
 BRILLOUIN|   112           0.00391       -0.31250        0.18750        0.43750
 BRILLOUIN|   113           0.00391       -0.31250        0.31250       -0.43750
 BRILLOUIN|   114           0.00391       -0.31250        0.31250       -0.31250
 BRILLOUIN|   115           0.00391       -0.31250        0.31250       -0.18750
 BRILLOUIN|   116           0.00391       -0.31250        0.31250       -0.06250
 BRILLOUIN|   117           0.00391       -0.31250        0.31250        0.06250
 BRILLOUIN|   118           0.00391       -0.31250        0.31250        0.18750
 BRILLOUIN|   119           0.00391       -0.31250        0.31250        0.31250
 BRILLOUIN|   120           0.00391       -0.31250        0.31250        0.43750
 BRILLOUIN|   121           0.00391       -0.31250        0.43750       -0.43750
 BRILLOUIN|   122           0.00391       -0.31250        0.43750       -0.31250
 BRILLOUIN|   123           0.00391       -0.31250        0.43750       -0.18750
 BRILLOUIN|   124           0.00391       -0.31250        0.43750       -0.06250
 BRILLOUIN|   125           0.00391       -0.31250        0.43750        0.06250
 BRILLOUIN|   126           0.00391       -0.31250        0.43750        0.18750
 BRILLOUIN|   127           0.00391       -0.31250        0.43750        0.31250
 BRILLOUIN|   128           0.00391       -0.31250        0.43750        0.43750
 BRILLOUIN|   129           0.00391       -0.18750       -0.43750       -0.43750
 BRILLOUIN|   130           0.00391       -0.18750       -0.43750       -0.31250
 BRILLOUIN|   131           0.00391       -0.18750       -0.43750       -0.18750
 BRILLOUIN|   132           0.00391       -0.18750       -0.43750       -0.06250
 BRILLOUIN|   133           0.00391       -0.18750       -0.43750        0.06250
 BRILLOUIN|   134           0.00391       -0.18750       -0.43750        0.18750
 BRILLOUIN|   135           0.00391       -0.18750       -0.43750        0.31250
 BRILLOUIN|   136           0.00391       -0.18750       -0.43750        0.43750
 BRILLOUIN|   137           0.00391       -0.18750       -0.31250       -0.43750
 BRILLOUIN|   138           0.00391       -0.18750       -0.31250       -0.31250
 BRILLOUIN|   139           0.00391       -0.18750       -0.31250       -0.18750
 BRILLOUIN|   140           0.00391       -0.18750       -0.31250       -0.06250
 BRILLOUIN|   141           0.00391       -0.18750       -0.31250        0.06250
 BRILLOUIN|   142           0.00391       -0.18750       -0.31250        0.18750
 BRILLOUIN|   143           0.00391       -0.18750       -0.31250        0.31250
 BRILLOUIN|   144           0.00391       -0.18750       -0.31250        0.43750
 BRILLOUIN|   145           0.00391       -0.18750       -0.18750       -0.43750
 BRILLOUIN|   146           0.00391       -0.18750       -0.18750       -0.31250
 BRILLOUIN|   147           0.00391       -0.18750       -0.18750       -0.18750
 BRILLOUIN|   148           0.00391       -0.18750       -0.18750       -0.06250
 BRILLOUIN|   149           0.00391       -0.18750       -0.18750        0.06250
 BRILLOUIN|   150           0.00391       -0.18750       -0.18750        0.18750
 BRILLOUIN|   151           0.00391       -0.18750       -0.18750        0.31250
 BRILLOUIN|   152           0.00391       -0.18750       -0.18750        0.43750
 BRILLOUIN|   153           0.00391       -0.18750       -0.06250       -0.43750
 BRILLOUIN|   154           0.00391       -0.18750       -0.06250       -0.31250
 BRILLOUIN|   155           0.00391       -0.18750       -0.06250       -0.18750
 BRILLOUIN|   156           0.00391       -0.18750       -0.06250       -0.06250
 BRILLOUIN|   157           0.00391       -0.18750       -0.06250        0.06250
 BRILLOUIN|   158           0.00391       -0.18750       -0.06250        0.18750
 BRILLOUIN|   159           0.00391       -0.18750       -0.06250        0.31250
 BRILLOUIN|   160           0.00391       -0.18750       -0.06250        0.43750
 BRILLOUIN|   161           0.00391       -0.18750        0.06250       -0.43750
 BRILLOUIN|   162           0.00391       -0.18750        0.06250       -0.31250
 BRILLOUIN|   163           0.00391       -0.18750        0.06250       -0.18750
 BRILLOUIN|   164           0.00391       -0.18750        0.06250       -0.06250
 BRILLOUIN|   165           0.00391       -0.18750        0.06250        0.06250
 BRILLOUIN|   166           0.00391       -0.18750        0.06250        0.18750
 BRILLOUIN|   167           0.00391       -0.18750        0.06250        0.31250
 BRILLOUIN|   168           0.00391       -0.18750        0.06250        0.43750
 BRILLOUIN|   169           0.00391       -0.18750        0.18750       -0.43750
 BRILLOUIN|   170           0.00391       -0.18750        0.18750       -0.31250
 BRILLOUIN|   171           0.00391       -0.18750        0.18750       -0.18750
 BRILLOUIN|   172           0.00391       -0.18750        0.18750       -0.06250
 BRILLOUIN|   173           0.00391       -0.18750        0.18750        0.06250
 BRILLOUIN|   174           0.00391       -0.18750        0.18750        0.18750
 BRILLOUIN|   175           0.00391       -0.18750        0.18750        0.31250
 BRILLOUIN|   176           0.00391       -0.18750        0.18750        0.43750
 BRILLOUIN|   177           0.00391       -0.18750        0.31250       -0.43750
 BRILLOUIN|   178           0.00391       -0.18750        0.31250       -0.31250
 BRILLOUIN|   179           0.00391       -0.18750        0.31250       -0.18750
 BRILLOUIN|   180           0.00391       -0.18750        0.31250       -0.06250
 BRILLOUIN|   181           0.00391       -0.18750        0.31250        0.06250
 BRILLOUIN|   182           0.00391       -0.18750        0.31250        0.18750
 BRILLOUIN|   183           0.00391       -0.18750        0.31250        0.31250
 BRILLOUIN|   184           0.00391       -0.18750        0.31250        0.43750
 BRILLOUIN|   185           0.00391       -0.18750        0.43750       -0.43750
 BRILLOUIN|   186           0.00391       -0.18750        0.43750       -0.31250
 BRILLOUIN|   187           0.00391       -0.18750        0.43750       -0.18750
 BRILLOUIN|   188           0.00391       -0.18750        0.43750       -0.06250
 BRILLOUIN|   189           0.00391       -0.18750        0.43750        0.06250
 BRILLOUIN|   190           0.00391       -0.18750        0.43750        0.18750
 BRILLOUIN|   191           0.00391       -0.18750        0.43750        0.31250
 BRILLOUIN|   192           0.00391       -0.18750        0.43750        0.43750
 BRILLOUIN|   193           0.00391       -0.06250       -0.43750       -0.43750
 BRILLOUIN|   194           0.00391       -0.06250       -0.43750       -0.31250
 BRILLOUIN|   195           0.00391       -0.06250       -0.43750       -0.18750
 BRILLOUIN|   196           0.00391       -0.06250       -0.43750       -0.06250
 BRILLOUIN|   197           0.00391       -0.06250       -0.43750        0.06250
 BRILLOUIN|   198           0.00391       -0.06250       -0.43750        0.18750
 BRILLOUIN|   199           0.00391       -0.06250       -0.43750        0.31250
 BRILLOUIN|   200           0.00391       -0.06250       -0.43750        0.43750
 BRILLOUIN|   201           0.00391       -0.06250       -0.31250       -0.43750
 BRILLOUIN|   202           0.00391       -0.06250       -0.31250       -0.31250
 BRILLOUIN|   203           0.00391       -0.06250       -0.31250       -0.18750
 BRILLOUIN|   204           0.00391       -0.06250       -0.31250       -0.06250
 BRILLOUIN|   205           0.00391       -0.06250       -0.31250        0.06250
 BRILLOUIN|   206           0.00391       -0.06250       -0.31250        0.18750
 BRILLOUIN|   207           0.00391       -0.06250       -0.31250        0.31250
 BRILLOUIN|   208           0.00391       -0.06250       -0.31250        0.43750
 BRILLOUIN|   209           0.00391       -0.06250       -0.18750       -0.43750
 BRILLOUIN|   210           0.00391       -0.06250       -0.18750       -0.31250
 BRILLOUIN|   211           0.00391       -0.06250       -0.18750       -0.18750
 BRILLOUIN|   212           0.00391       -0.06250       -0.18750       -0.06250
 BRILLOUIN|   213           0.00391       -0.06250       -0.18750        0.06250
 BRILLOUIN|   214           0.00391       -0.06250       -0.18750        0.18750
 BRILLOUIN|   215           0.00391       -0.06250       -0.18750        0.31250
 BRILLOUIN|   216           0.00391       -0.06250       -0.18750        0.43750
 BRILLOUIN|   217           0.00391       -0.06250       -0.06250       -0.43750
 BRILLOUIN|   218           0.00391       -0.06250       -0.06250       -0.31250
 BRILLOUIN|   219           0.00391       -0.06250       -0.06250       -0.18750
 BRILLOUIN|   220           0.00391       -0.06250       -0.06250       -0.06250
 BRILLOUIN|   221           0.00391       -0.06250       -0.06250        0.06250
 BRILLOUIN|   222           0.00391       -0.06250       -0.06250        0.18750
 BRILLOUIN|   223           0.00391       -0.06250       -0.06250        0.31250
 BRILLOUIN|   224           0.00391       -0.06250       -0.06250        0.43750
 BRILLOUIN|   225           0.00391       -0.06250        0.06250       -0.43750
 BRILLOUIN|   226           0.00391       -0.06250        0.06250       -0.31250
 BRILLOUIN|   227           0.00391       -0.06250        0.06250       -0.18750
 BRILLOUIN|   228           0.00391       -0.06250        0.06250       -0.06250
 BRILLOUIN|   229           0.00391       -0.06250        0.06250        0.06250
 BRILLOUIN|   230           0.00391       -0.06250        0.06250        0.18750
 BRILLOUIN|   231           0.00391       -0.06250        0.06250        0.31250
 BRILLOUIN|   232           0.00391       -0.06250        0.06250        0.43750
 BRILLOUIN|   233           0.00391       -0.06250        0.18750       -0.43750
 BRILLOUIN|   234           0.00391       -0.06250        0.18750       -0.31250
 BRILLOUIN|   235           0.00391       -0.06250        0.18750       -0.18750
 BRILLOUIN|   236           0.00391       -0.06250        0.18750       -0.06250
 BRILLOUIN|   237           0.00391       -0.06250        0.18750        0.06250
 BRILLOUIN|   238           0.00391       -0.06250        0.18750        0.18750
 BRILLOUIN|   239           0.00391       -0.06250        0.18750        0.31250
 BRILLOUIN|   240           0.00391       -0.06250        0.18750        0.43750
 BRILLOUIN|   241           0.00391       -0.06250        0.31250       -0.43750
 BRILLOUIN|   242           0.00391       -0.06250        0.31250       -0.31250
 BRILLOUIN|   243           0.00391       -0.06250        0.31250       -0.18750
 BRILLOUIN|   244           0.00391       -0.06250        0.31250       -0.06250
 BRILLOUIN|   245           0.00391       -0.06250        0.31250        0.06250
 BRILLOUIN|   246           0.00391       -0.06250        0.31250        0.18750
 BRILLOUIN|   247           0.00391       -0.06250        0.31250        0.31250
 BRILLOUIN|   248           0.00391       -0.06250        0.31250        0.43750
 BRILLOUIN|   249           0.00391       -0.06250        0.43750       -0.43750
 BRILLOUIN|   250           0.00391       -0.06250        0.43750       -0.31250
 BRILLOUIN|   251           0.00391       -0.06250        0.43750       -0.18750
 BRILLOUIN|   252           0.00391       -0.06250        0.43750       -0.06250
 BRILLOUIN|   253           0.00391       -0.06250        0.43750        0.06250
 BRILLOUIN|   254           0.00391       -0.06250        0.43750        0.18750
 BRILLOUIN|   255           0.00391       -0.06250        0.43750        0.31250
 BRILLOUIN|   256           0.00391       -0.06250        0.43750        0.43750
 *******************************************************************************

 *******************************************************************************
 *******************************************************************************
 **                                                                           **
 **     #####                         ##              ##                      **
 **    ##   ##            ##          ##              ##                      **
 **   ##     ##                       ##            ######                    **
 **   ##     ##  ##   ##  ##   #####  ##  ##   ####   ##    #####    #####    **
 **   ##     ##  ##   ##  ##  ##      ## ##   ##      ##   ##   ##  ##   ##   **
 **   ##  ## ##  ##   ##  ##  ##      ####     ###    ##   ######   ######    **
 **    ##  ###   ##   ##  ##  ##      ## ##      ##   ##   ##       ##        **
 **     #######   #####   ##   #####  ##  ##  ####    ##    #####   ##        **
 **           ##                                                    ##        **
 **                                                                           **
 **                                                ... make the atoms dance   **
 **                                                                           **
 **            Copyright (C) by CP2K developers group (2000-2025)             **
 **                      J. Chem. Phys. 152, 194103 (2020)                    **
 **                                                                           **
 *******************************************************************************

 DFT| Spin restricted Kohn-Sham (RKS) calculation                            RKS
 DFT| Multiplicity                                                             1
 DFT| Number of spin states                                                    1
 DFT| Charge                                                                   0
 DFT| Self-interaction correction (SIC)                                       NO
 DFT| Cutoffs: density                                              1.000000E-10
 DFT|          gradient                                             1.000000E-10
 DFT|          tau                                                  1.000000E-10
 DFT|          cutoff_smoothing_range                               0.000000E+00
 DFT| XC density smoothing                                                  NONE
 DFT| XC derivatives                                                          PW

 FUNCTIONAL| PBE:
 FUNCTIONAL| J.P.Perdew, K.Burke, M.Ernzerhof, Phys. Rev. Letter, vol. 77, n 18,
 FUNCTIONAL|  pp. 3865-3868, (1996) {spin unpolarized}                          


 QS| Method:                                                                 GPW
 QS| Density plane wave grid type                        NON-SPHERICAL FULLSPACE
 QS| Number of grid levels:                                                    4
 QS| Density cutoff [a.u.]:                                                500.0
 QS| Multi grid cutoff [a.u.]: 1) grid level                               500.0
 QS|                           2) grid level                               166.7
 QS|                           3) grid level                                55.6
 QS|                           4) grid level                                18.5
 QS| Grid level progression factor:                                          3.0
 QS| Relative density cutoff [a.u.]:                                        50.0
 QS| Interaction thresholds: eps_pgf_orb:                                1.0E-16
 QS|                         eps_filter_matrix:                          0.0E+00
 QS|                         eps_core_charge:                            1.0E-18
 QS|                         eps_rho_gspace:                             1.0E-16
 QS|                         eps_rho_rspace:                             1.0E-16
 QS|                         eps_gvg_rspace:                             1.0E-08
 QS|                         eps_ppl:                                    1.0E-02
 QS|                         eps_ppnl:                                   1.0E-10


 ATOMIC KIND INFORMATION

  1. Atomic kind: Kr                                    Number of atoms:       4

     Orbital Basis Set                                aug-TZVP-MOLOPT-GTH-tier-2

       Number of orbital shell sets:                                           1
       Number of orbital shells:                                              14
       Number of primitive Cartesian functions:                                5
       Number of Cartesian basis functions:                                   69
       Number of spherical basis functions:                                   54
       Norm type:                                                              2

       Normalised Cartesian orbitals:

                        Set   Shell   Orbital            Exponent    Coefficient

                          1       1    2s                0.060000       0.000000
                                                         0.129281      -0.112543
                                                         0.419678      -0.138569
                                                         1.651112      -0.125498
                                                         1.807399       0.266839

                          1       2    3s                0.060000       0.000000
                                                         0.129281      -0.243573
                                                         0.419678       0.816910
                                                         1.651112       0.365037
                                                         1.807399      -1.382003

                          1       3    4s                0.060000       0.000000
                                                         0.129281       0.017233
                                                         0.419678       0.201679
                                                         1.651112      -1.733211
                                                         1.807399       0.382361

                          1       4    5s                0.060000       0.194810
                                                         0.129281      -0.280799
                                                         0.419678       0.133852
                                                         1.651112       0.000000
                                                         1.807399       0.000000

                          1       5    3px               0.060000       0.000000
                                                         0.129281       0.106331
                                                         0.419678      -0.591007
                                                         1.651112      -5.305719
                                                         1.807399       5.956114
                          1       5    3py               0.060000       0.000000
                                                         0.129281       0.106331
                                                         0.419678      -0.591007
                                                         1.651112      -5.305719
                                                         1.807399       5.956114
                          1       5    3pz               0.060000       0.000000
                                                         0.129281       0.106331
                                                         0.419678      -0.591007
                                                         1.651112      -5.305719
                                                         1.807399       5.956114

                          1       6    4px               0.060000       0.000000
                                                         0.129281       0.099406
                                                         0.419678       0.064018
                                                         1.651112       0.488457
                                                         1.807399      -0.506899
                          1       6    4py               0.060000       0.000000
                                                         0.129281       0.099406
                                                         0.419678       0.064018
                                                         1.651112       0.488457
                                                         1.807399      -0.506899
                          1       6    4pz               0.060000       0.000000
                                                         0.129281       0.099406
                                                         0.419678       0.064018
                                                         1.651112       0.488457
                                                         1.807399      -0.506899

                          1       7    5px               0.060000       0.000000
                                                         0.129281      -0.000665
                                                         0.419678       0.284371
                                                         1.651112      -2.105562
                                                         1.807399      -1.256736
                          1       7    5py               0.060000       0.000000
                                                         0.129281      -0.000665
                                                         0.419678       0.284371
                                                         1.651112      -2.105562
                                                         1.807399      -1.256736
                          1       7    5pz               0.060000       0.000000
                                                         0.129281      -0.000665
                                                         0.419678       0.284371
                                                         1.651112      -2.105562
                                                         1.807399      -1.256736

                          1       8    6px               0.060000       0.075825
                                                         0.129281      -0.137776
                                                         0.419678       0.059760
                                                         1.651112       0.000000
                                                         1.807399       0.000000
                          1       8    6py               0.060000       0.075825
                                                         0.129281      -0.137776
                                                         0.419678       0.059760
                                                         1.651112       0.000000
                                                         1.807399       0.000000
                          1       8    6pz               0.060000       0.075825
                                                         0.129281      -0.137776
                                                         0.419678       0.059760
                                                         1.651112       0.000000
                                                         1.807399       0.000000

                          1       9    4dx2              0.060000       0.000000
                                                         0.129281      -0.006586
                                                         0.419678      -0.286010
                                                         1.651112      -4.339792
                                                         1.807399       4.354111
                          1       9    4dxy              0.060000       0.000000
                                                         0.129281      -0.011407
                                                         0.419678      -0.495383
                                                         1.651112      -7.516739
                                                         1.807399       7.541541
                          1       9    4dxz              0.060000       0.000000
                                                         0.129281      -0.011407
                                                         0.419678      -0.495383
                                                         1.651112      -7.516739
                                                         1.807399       7.541541
                          1       9    4dy2              0.060000       0.000000
                                                         0.129281      -0.006586
                                                         0.419678      -0.286010
                                                         1.651112      -4.339792
                                                         1.807399       4.354111
                          1       9    4dyz              0.060000       0.000000
                                                         0.129281      -0.011407
                                                         0.419678      -0.495383
                                                         1.651112      -7.516739
                                                         1.807399       7.541541
                          1       9    4dz2              0.060000       0.000000
                                                         0.129281      -0.006586
                                                         0.419678      -0.286010
                                                         1.651112      -4.339792
                                                         1.807399       4.354111

                          1      10    5dx2              0.060000       0.000000
                                                         0.129281      -0.015366
                                                         0.419678       0.369052
                                                         1.651112      -3.463048
                                                         1.807399      -0.956033
                          1      10    5dxy              0.060000       0.000000
                                                         0.129281      -0.026614
                                                         0.419678       0.639217
                                                         1.651112      -5.998176
                                                         1.807399      -1.655899
                          1      10    5dxz              0.060000       0.000000
                                                         0.129281      -0.026614
                                                         0.419678       0.639217
                                                         1.651112      -5.998176
                                                         1.807399      -1.655899
                          1      10    5dy2              0.060000       0.000000
                                                         0.129281      -0.015366
                                                         0.419678       0.369052
                                                         1.651112      -3.463048
                                                         1.807399      -0.956033
                          1      10    5dyz              0.060000       0.000000
                                                         0.129281      -0.026614
                                                         0.419678       0.639217
                                                         1.651112      -5.998176
                                                         1.807399      -1.655899
                          1      10    5dz2              0.060000       0.000000
                                                         0.129281      -0.015366
                                                         0.419678       0.369052
                                                         1.651112      -3.463048
                                                         1.807399      -0.956033

                          1      11    6dx2              0.060000       0.001235
                                                         0.129281       0.050427
                                                         0.419678      -0.182692
                                                         1.651112       0.000000
                                                         1.807399       0.000000
                          1      11    6dxy              0.060000       0.002139
                                                         0.129281       0.087342
                                                         0.419678      -0.316432
                                                         1.651112       0.000000
                                                         1.807399       0.000000
                          1      11    6dxz              0.060000       0.002139
                                                         0.129281       0.087342
                                                         0.419678      -0.316432
                                                         1.651112       0.000000
                                                         1.807399       0.000000
                          1      11    6dy2              0.060000       0.001235
                                                         0.129281       0.050427
                                                         0.419678      -0.182692
                                                         1.651112       0.000000
                                                         1.807399       0.000000
                          1      11    6dyz              0.060000       0.002139
                                                         0.129281       0.087342
                                                         0.419678      -0.316432
                                                         1.651112       0.000000
                                                         1.807399       0.000000
                          1      11    6dz2              0.060000       0.001235
                                                         0.129281       0.050427
                                                         0.419678      -0.182692
                                                         1.651112       0.000000
                                                         1.807399       0.000000

                          1      12    5fx3              0.060000       0.000000
                                                         0.129281       0.001053
                                                         0.419678       0.176218
                                                         1.651112       1.370553
                                                         1.807399      -0.297022
                          1      12    5fx2y             0.060000       0.000000
                                                         0.129281       0.002354
                                                         0.419678       0.394035
                                                         1.651112       3.064649
                                                         1.807399      -0.664162
                          1      12    5fx2z             0.060000       0.000000
                                                         0.129281       0.002354
                                                         0.419678       0.394035
                                                         1.651112       3.064649
                                                         1.807399      -0.664162
                          1      12    5fxy2             0.060000       0.000000
                                                         0.129281       0.002354
                                                         0.419678       0.394035
                                                         1.651112       3.064649
                                                         1.807399      -0.664162
                          1      12    5fxyz             0.060000       0.000000
                                                         0.129281       0.004077
                                                         0.419678       0.682488
                                                         1.651112       5.308129
                                                         1.807399      -1.150362
                          1      12    5fxz2             0.060000       0.000000
                                                         0.129281       0.002354
                                                         0.419678       0.394035
                                                         1.651112       3.064649
                                                         1.807399      -0.664162
                          1      12    5fy3              0.060000       0.000000
                                                         0.129281       0.001053
                                                         0.419678       0.176218
                                                         1.651112       1.370553
                                                         1.807399      -0.297022
                          1      12    5fy2z             0.060000       0.000000
                                                         0.129281       0.002354
                                                         0.419678       0.394035
                                                         1.651112       3.064649
                                                         1.807399      -0.664162
                          1      12    5fyz2             0.060000       0.000000
                                                         0.129281       0.002354
                                                         0.419678       0.394035
                                                         1.651112       3.064649
                                                         1.807399      -0.664162
                          1      12    5fz3              0.060000       0.000000
                                                         0.129281       0.001053
                                                         0.419678       0.176218
                                                         1.651112       1.370553
                                                         1.807399      -0.297022

                          1      13    6fx3              0.060000       0.003601
                                                         0.129281      -0.009745
                                                         0.419678       0.014247
                                                         1.651112       0.000000
                                                         1.807399       0.000000
                          1      13    6fx2y             0.060000       0.008053
                                                         0.129281      -0.021790
                                                         0.419678       0.031856
                                                         1.651112       0.000000
                                                         1.807399       0.000000
                          1      13    6fx2z             0.060000       0.008053
                                                         0.129281      -0.021790
                                                         0.419678       0.031856
                                                         1.651112       0.000000
                                                         1.807399       0.000000
                          1      13    6fxy2             0.060000       0.008053
                                                         0.129281      -0.021790
                                                         0.419678       0.031856
                                                         1.651112       0.000000
                                                         1.807399       0.000000
                          1      13    6fxyz             0.060000       0.013948
                                                         0.129281      -0.037742
                                                         0.419678       0.055177
                                                         1.651112       0.000000
                                                         1.807399       0.000000
                          1      13    6fxz2             0.060000       0.008053
                                                         0.129281      -0.021790
                                                         0.419678       0.031856
                                                         1.651112       0.000000
                                                         1.807399       0.000000
                          1      13    6fy3              0.060000       0.003601
                                                         0.129281      -0.009745
                                                         0.419678       0.014247
                                                         1.651112       0.000000
                                                         1.807399       0.000000
                          1      13    6fy2z             0.060000       0.008053
                                                         0.129281      -0.021790
                                                         0.419678       0.031856
                                                         1.651112       0.000000
                                                         1.807399       0.000000
                          1      13    6fyz2             0.060000       0.008053
                                                         0.129281      -0.021790
                                                         0.419678       0.031856
                                                         1.651112       0.000000
                                                         1.807399       0.000000
                          1      13    6fz3              0.060000       0.003601
                                                         0.129281      -0.009745
                                                         0.419678       0.014247
                                                         1.651112       0.000000
                                                         1.807399       0.000000

                          1      14    6gx4              0.060000       0.000493
                                                         0.129281      -0.000090
                                                         0.419678      -0.000288
                                                         1.651112       0.000000
                                                         1.807399       0.000000
                          1      14    6gx3y             0.060000       0.001305
                                                         0.129281      -0.000239
                                                         0.419678      -0.000762
                                                         1.651112       0.000000
                                                         1.807399       0.000000
                          1      14    6gx3z             0.060000       0.001305
                                                         0.129281      -0.000239
                                                         0.419678      -0.000762
                                                         1.651112       0.000000
                                                         1.807399       0.000000
                          1      14    6gx2y2            0.060000       0.001684
                                                         0.129281      -0.000309
                                                         0.419678      -0.000984
                                                         1.651112       0.000000
                                                         1.807399       0.000000
                          1      14    6gx2yz            0.060000       0.002917
                                                         0.129281      -0.000534
                                                         0.419678      -0.001705
                                                         1.651112       0.000000
                                                         1.807399       0.000000
                          1      14    6gx2z2            0.060000       0.001684
                                                         0.129281      -0.000309
                                                         0.419678      -0.000984
                                                         1.651112       0.000000
                                                         1.807399       0.000000
                          1      14    6gxy3             0.060000       0.001305
                                                         0.129281      -0.000239
                                                         0.419678      -0.000762
                                                         1.651112       0.000000
                                                         1.807399       0.000000
                          1      14    6gxy2z            0.060000       0.002917
                                                         0.129281      -0.000534
                                                         0.419678      -0.001705
                                                         1.651112       0.000000
                                                         1.807399       0.000000
                          1      14    6gxyz2            0.060000       0.002917
                                                         0.129281      -0.000534
                                                         0.419678      -0.001705
                                                         1.651112       0.000000
                                                         1.807399       0.000000
                          1      14    6gxz3             0.060000       0.001305
                                                         0.129281      -0.000239
                                                         0.419678      -0.000762
                                                         1.651112       0.000000
                                                         1.807399       0.000000
                          1      14    6gy4              0.060000       0.000493
                                                         0.129281      -0.000090
                                                         0.419678      -0.000288
                                                         1.651112       0.000000
                                                         1.807399       0.000000
                          1      14    6gy3z             0.060000       0.001305
                                                         0.129281      -0.000239
                                                         0.419678      -0.000762
                                                         1.651112       0.000000
                                                         1.807399       0.000000
                          1      14    6gy2z2            0.060000       0.001684
                                                         0.129281      -0.000309
                                                         0.419678      -0.000984
                                                         1.651112       0.000000
                                                         1.807399       0.000000
                          1      14    6gyz3             0.060000       0.001305
                                                         0.129281      -0.000239
                                                         0.419678      -0.000762
                                                         1.651112       0.000000
                                                         1.807399       0.000000
                          1      14    6gz4              0.060000       0.000493
                                                         0.129281      -0.000090
                                                         0.419678      -0.000288
                                                         1.651112       0.000000
                                                         1.807399       0.000000

       Atomic covalent radius [Angstrom]:                                  1.120

       Atomic van der Waals radius [Angstrom]:                             2.020

     GTH Potential information for                                       GTH-PBE

       Description:                       Goedecker-Teter-Hutter pseudopotential
                                           Goedecker et al., PRB 54, 1703 (1996)
                                          Hartwigsen et al., PRB 58, 3641 (1998)
                                                      Krack, TCA 114, 145 (2005)

       Gaussian exponent of the core charge distribution:               2.000000
       Electronic configuration (s p d ...):                               2   6

       Parameters of the local part of the GTH pseudopotential:

                          rloc        C1          C2          C3          C4
                        0.500000

       Parameters of the non-local part of the GTH (SOC) pseudopotential:

                   l      r(l)      h(i,j,l)
                                    k(i,j,l)
                   0    0.421657    6.465304    0.538660   -1.502601
                                    0.538660   -3.139389    3.879700
                                   -1.502601    3.879700   -3.079416
                   1    0.433744    2.601165    0.705110
                                    0.705110   -0.834297
                                    0.199916   -0.110062
                                   -0.110062    0.130228
                   2    0.524691    0.635595
                                    0.008297


 MOLECULE KIND INFORMATION


 All atoms are their own molecule, skipping detailed information


 TOTAL NUMBERS AND MAXIMUM NUMBERS

  Total number of            - Atomic kinds:                                   1
                             - Atoms:                                          4
                             - Shell sets:                                     4
                             - Shells:                                        56
                             - Primitive Cartesian functions:                 20
                             - Cartesian basis functions:                    276
                             - Spherical basis functions:                    216

  Maximum angular momentum of the orbital basis functions:                     4


 MODULE QUICKSTEP: ATOMIC COORDINATES IN ANGSTROM

   Atom Kind Element         X             Y             Z       Z(eff)     Mass
      1    1 Kr   36      0.000000      0.000000      0.000000   8.0000  83.7980
      2    1 Kr   36      0.000000      3.214650      3.214650   8.0000  83.7980
      3    1 Kr   36      3.214650      0.000000      3.214650   8.0000  83.7980
      4    1 Kr   36      3.214650      3.214650      0.000000   8.0000  83.7980



 SCF PARAMETERS         Density guess:                                    ATOMIC
                        --------------------------------------------------------
                        max_scf:                                             500
                        max_scf_history:                                       0
                        max_diis:                                              4
                        --------------------------------------------------------
                        eps_scf:                                        1.00E-09
                        eps_scf_history:                                0.00E+00
                        eps_diis:                                       1.00E-01
                        eps_eigval:                                     1.00E-05
                        --------------------------------------------------------
                        level_shift [a.u.]:                             0.000000
                        added MOs                                       200    0
                        --------------------------------------------------------
                        Mixing method:                            BROYDEN_MIXING
                                                charge density mixing in g-space
                        --------------------------------------------------------
                        No outer SCF

 PW_GRID| Information for grid number                                          1
 PW_GRID| Grid distributed over                                    16 processors
 PW_GRID| Real space group dimensions                                    16    1
 PW_GRID| the grid is blocked:                                                NO
 PW_GRID| Cutoff [a.u.]                                                    500.0
 PW_GRID| spherical cutoff:                                                   NO
 PW_GRID|   Bounds   1            -62      62                Points:         125
 PW_GRID|   Bounds   2            -62      62                Points:         125
 PW_GRID|   Bounds   3            -62      62                Points:         125
 PW_GRID| Volume element (a.u.^3)  0.9182E-03     Volume (a.u.^3)      1793.4434
 PW_GRID| Grid span                                                    FULLSPACE
 PW_GRID|   Distribution                         Average         Max         Min
 PW_GRID|   G-Vectors                           122070.3      122125      122000
 PW_GRID|   G-Rays                                 976.6         977         976
 PW_GRID|   Real Space Points                   122070.3      125000      109375

 PW_GRID| Information for grid number                                          2
 PW_GRID| Number of the reference grid                                         1
 PW_GRID| Grid distributed over                                    16 processors
 PW_GRID| Real space group dimensions                                    16    1
 PW_GRID| the grid is blocked:                                                NO
 PW_GRID| Cutoff [a.u.]                                                    166.7
 PW_GRID| spherical cutoff:                                                   NO
 PW_GRID|   Bounds   1            -36      35                Points:          72
 PW_GRID|   Bounds   2            -36      35                Points:          72
 PW_GRID|   Bounds   3            -36      35                Points:          72
 PW_GRID| Volume element (a.u.^3)  0.4805E-02     Volume (a.u.^3)      1793.4434
 PW_GRID| Grid span                                                    FULLSPACE
 PW_GRID|   Distribution                         Average         Max         Min
 PW_GRID|   G-Vectors                            23328.0       23472       23256
 PW_GRID|   G-Rays                                 324.0         326         323
 PW_GRID|   Real Space Points                    23328.0       25920       20736

 PW_GRID| Information for grid number                                          3
 PW_GRID| Number of the reference grid                                         1
 PW_GRID| Grid distributed over                                    16 processors
 PW_GRID| Real space group dimensions                                    16    1
 PW_GRID| the grid is blocked:                                                NO
 PW_GRID| Cutoff [a.u.]                                                     55.6
 PW_GRID| spherical cutoff:                                                   NO
 PW_GRID|   Bounds   1            -22      22                Points:          45
 PW_GRID|   Bounds   2            -22      22                Points:          45
 PW_GRID|   Bounds   3            -22      22                Points:          45
 PW_GRID| Volume element (a.u.^3)  0.1968E-01     Volume (a.u.^3)      1793.4434
 PW_GRID| Grid span                                                    FULLSPACE
 PW_GRID|   Distribution                         Average         Max         Min
 PW_GRID|   G-Vectors                             5695.3        5805        5625
 PW_GRID|   G-Rays                                 126.6         129         125
 PW_GRID|   Real Space Points                     5695.3        6075        4050

 PW_GRID| Information for grid number                                          4
 PW_GRID| Number of the reference grid                                         1
 PW_GRID| Grid distributed over                                    16 processors
 PW_GRID| Real space group dimensions                                    16    1
 PW_GRID| the grid is blocked:                                                NO
 PW_GRID| Cutoff [a.u.]                                                     18.5
 PW_GRID| spherical cutoff:                                                   NO
 PW_GRID|   Bounds   1            -12      11                Points:          24
 PW_GRID|   Bounds   2            -12      11                Points:          24
 PW_GRID|   Bounds   3            -12      11                Points:          24
 PW_GRID| Volume element (a.u.^3)  0.1297         Volume (a.u.^3)      1793.4434
 PW_GRID| Grid span                                                    FULLSPACE
 PW_GRID|   Distribution                         Average         Max         Min
 PW_GRID|   G-Vectors                              864.0         912         840
 PW_GRID|   G-Rays                                  36.0          38          35
 PW_GRID|   Real Space Points                      864.0        1152         576

 POISSON| Solver                                                        PERIODIC
 POISSON| Periodicity                                                        XYZ

 RS_GRID| Information for grid number                                          1
 RS_GRID|   Bounds   1            -62      62                Points:         125
 RS_GRID|   Bounds   2            -62      62                Points:         125
 RS_GRID|   Bounds   3            -62      62                Points:         125
 RS_GRID| Real space fully replicated
 RS_GRID| Group size                                                           1

 RS_GRID| Information for grid number                                          2
 RS_GRID|   Bounds   1            -36      35                Points:          72
 RS_GRID|   Bounds   2            -36      35                Points:          72
 RS_GRID|   Bounds   3            -36      35                Points:          72
 RS_GRID| Real space fully replicated
 RS_GRID| Group size                                                           1

 RS_GRID| Information for grid number                                          3
 RS_GRID|   Bounds   1            -22      22                Points:          45
 RS_GRID|   Bounds   2            -22      22                Points:          45
 RS_GRID|   Bounds   3            -22      22                Points:          45
 RS_GRID| Real space fully replicated
 RS_GRID| Group size                                                           1

 RS_GRID| Information for grid number                                          4
 RS_GRID|   Bounds   1            -12      11                Points:          24
 RS_GRID|   Bounds   2            -12      11                Points:          24
 RS_GRID|   Bounds   3            -12      11                Points:          24
 RS_GRID| Real space fully replicated
 RS_GRID| Group size                                                           1

 Number of electrons:                                                         32
 Number of occupied orbitals:                                                 16
 Number of molecular orbitals:                                               216

 Number of orbital functions:                                                216
 Number of independent orbital functions:                                    216

 Extrapolation method: initial_guess

 Atomic guess: The first density matrix is obtained in terms of atomic orbitals
               and electronic configurations assigned to each atomic kind

 Guess for atomic kind: Kr

 Electronic structure
    Total number of core electrons                                         28.00
    Total number of valence electrons                                       8.00
    Total number of electrons                                              36.00
    Multiplicity                                                   not specified
    S   [  2.00  2.00  2.00] 2.00
    P   [  6.00  6.00] 6.00
    D   [ 10.00]


 *******************************************************************************
                  Iteration          Convergence                     Energy [au]
 *******************************************************************************
                          1        0.655988                     -18.137539044034
                          2        0.544228                     -18.178526016209
                          3        0.314196E-01                 -18.261937633234
                          4        0.480389E-03                 -18.262185389959
                          5        0.170972E-04                 -18.262185434667
                          6        0.378778E-07                 -18.262185434736

 Energy components [Hartree]           Total Energy ::          -18.262185434736
                                        Band Energy ::           -3.626497532705
                                     Kinetic Energy ::            5.878255190937
                                   Potential Energy ::          -24.140440625673
                                      Virial (-V/T) ::            4.106735730509
                                        Core Energy ::          -30.737898894564
                                          XC Energy ::           -3.119544155370
                                     Coulomb Energy ::           15.595257615198
                       Total Pseudopotential Energy ::          -36.672012887570
                       Local Pseudopotential Energy ::          -38.950167751279
                    Nonlocal Pseudopotential Energy ::            2.278154863708
                                        Confinement ::            0.558588020689

[...]
 MP_SendRecv          1710                 328289.
 MP_ISendRecv         1635                 322567.
 MP_Wait            172631
 MP_comm_split           4
 MP_ISend           176476                   5580.
 MP_IRecv           296224                   3346.
 -------------------------------------------------------------------------------


 -------------------------------------------------------------------------------
 -                                                                             -
 -                           R E F E R E N C E S                               -
 -                                                                             -
 -------------------------------------------------------------------------------
 
 CP2K version 2025.1 (Development Version), the CP2K developers group (2025).
 CP2K is freely available from https://www.cp2k.org/ .
 
 T. D. Kuehne, M. Iannuzzi, M. Del Ben, V. V. Rybkin, P. Seewald, F. Stein, T. 
 Laino, R. Z. Khaliullin, O. Schuett, F. Schiffmann, D. Golze, J. Wilhelm, S. 
 Chulkov, M. H. Bani-Hashemian, V. Weber, U. Borstnik, M. Taillefumier, A. S. 
 Jakobovits, A. Lazzaro, H. Pabst, T. Mueller, R. Schade, M. Guidon, S. 
 Andermatt, N. Holmberg, G. K. Schenter, A. Hehn, A. Bussy, F. Belleflamme, G. 
 Tabacchi, A. Gloess, M. Lass, I. Bethune, C. J. Mundy, C. Plessl, M. Watkins, 
 J. VandeVondele, M. Krack, J. Hutter.
 J. Chem. Phys. 152, 194103 (2020).
 CP2K: An electronic structure and molecular dynamics software package - 
 Quickstep: Efficient and accurate electronic structure calculations.
 https://doi.org/10.1063/5.0007045

 O. Schuett, P. Messmer, J. Hutter, J. VandeVondele.
 Electronic Structure Calculations on Graphics Processing Units, 173-190 (2016).
 GPU-Accelerated Sparse Matrix-Matrix Multiplication for Linear Scaling Density 
 Functional Theory.
 https://doi.org/10.1002/9781118670712.ch8

 J. Hutter, M. Iannuzzi, F. Schiffmann, J. VandeVondele.
 WIREs Comput Mol Sci. 4, 15-25 (2014).
 CP2K: atomistic simulations of condensed matter systems.
 https://doi.org/10.1002/wcms.1159

 U. Borstnik, J. VandeVondele, V. Weber, J. Hutter.
 Parallel Comput. 40, 47-58 (2014).
 Sparse matrix multiplication: The distributed block-compressed sparse row 
 library.
 https://doi.org/10.1016/j.parco.2014.03.012

 J. VandeVondele, J. Hutter.
 J. Chem. Phys. 127, 114105 (2007).
 Gaussian basis sets for accurate calculations on molecular systems in gas and 
 condensed phases.
 https://doi.org/10.1063/1.2770708

 J. VandeVondele, M. Krack, F. Mohamed, M. Parrinello, T. Chassaing, J. Hutter.
 Comput. Phys. Commun. 167, 103-128 (2005).
 QUICKSTEP: Fast and accurate density functional calculations using a mixed 
 Gaussian and plane waves approach.
 https://doi.org/10.1016/j.cpc.2004.12.014

 M. Krack.
 Theor. Chem. Acc. 114, 145-152 (2005).
 Pseudopotentials for H to Kr optimized for gradient-corrected 
 exchange-correlation functionals.
 https://doi.org/10.1007/s00214-005-0655-y

 M. Frigo, S. G. Johnson.
 Proc. IEEE 93, 216-231 (2005).
 The design and implementation of FFTW3.
 https://doi.org/10.1109/JPROC.2004.840301

 C. Hartwigsen, S. Goedecker, J. Hutter.
 Phys. Rev. B 58, 3641-3662 (1998).
 Relativistic separable dual-space Gaussian pseudopotentials from H to Rn.
 https://doi.org/10.1103/PhysRevB.58.3641

 G. Lippert, J. Hutter, M. Parrinello.
 Mol. Phys. 92, 477-487 (1997).
 A hybrid Gaussian and plane wave density functional scheme.
 https://doi.org/10.1080/002689797170220

 S. Goedecker, M. Teter, J. Hutter.
 Phys. Rev. B 54, 1703-1710 (1996).
 Separable dual-space Gaussian pseudopotentials.
 https://doi.org/10.1103/PhysRevB.54.1703

 J. P. Perdew, K. Burke, M. Ernzerhof.
 Phys. Rev. Lett. 77, 3865-3868 (1996).
 Generalized gradient approximation made simple.
 https://doi.org/10.1103/PhysRevLett.77.3865


 -------------------------------------------------------------------------------
 -                                                                             -
 -                                T I M I N G                                  -
 -                                                                             -
 -------------------------------------------------------------------------------
 SUBROUTINE                       CALLS  ASD         SELF TIME        TOTAL TIME
                                MAXIMUM       AVERAGE  MAXIMUM  AVERAGE  MAXIMUM
 CP2K                                 1  1.0    0.010    0.014  142.897  142.897
 qs_energies                          1  2.0    0.007    0.077  142.614  142.670
 scf_env_do_scf                       1  3.0    0.000    0.000  139.462  139.463
 scf_env_do_scf_inner_loop           27  4.0    0.013    0.015  139.462  139.463
 do_general_diag_kp                  28  5.9    0.173    0.201  133.045  134.713
 qs_scf_new_mos_kp                   27  5.0    0.000    0.000  130.481  132.116
 mp_alltoall_i22                 100516  8.8   36.068   85.901   36.068   85.901
 dbcsr_desymmetrize_deep          57466  7.4    1.082    1.302   31.649   65.730
 rskp_transform                   14120  6.9   32.039   52.863   32.039   52.863
 dbcsr_complete_redistribute      43050  8.3    2.087    2.373   26.065   41.303
 kpoint_density_transform            27  7.0    0.063    0.074   37.722   37.766
 copy_fm_to_dbcsr                 13824  8.0    0.087    0.097   14.396   29.452
 transform_dmat                    6912  8.0   15.080   24.577   15.080   24.577
 copy_dbcsr_to_fm                 29226  6.9    0.346    0.370   18.584   18.856
 cp_fm_start_copy_general         42064  7.3    1.484    1.786   13.845   13.937
 mp_allgather_i                   84128  8.3   10.413   10.497   10.413   10.497
 cp_cfm_geeig                       469  6.8    0.006    0.007    9.200    9.325
 cp_cfm_heevd                       469  7.8    0.001    0.001    6.611    6.721
 cp_cfm_heevd_base                  469  8.8    6.610    6.720    6.610    6.720
 mp_alltoall_d11v                301548  9.4    4.461    4.850    4.461    4.850
 qs_ks_update_qs_env                 27  5.0    0.000    0.000    3.716    4.826
 rebuild_ks_matrix                   27  6.0    0.000    0.000    3.138    4.248
 qs_ks_build_kohn_sham_matrix        27  7.0    0.025    0.025    3.138    4.248
 dbcsr_finalize                  108732  8.6    0.521    0.580    3.713    4.059
 sum_up_and_integrate                27  8.0    0.000    0.000    2.285    3.390
 integrate_v_rspace                  27  9.0    0.041    0.068    2.284    3.389
 mp_cart_sub                      58454  8.9    3.311    3.342    3.311    3.342
 hybrid_alltoall_any              57466  8.4    0.247    0.282    2.674    3.000
 qs_rho_update_rho_low               28  5.0    0.000    0.000    2.942    2.959
 calculate_rho_elec                  28  6.0    0.035    0.045    2.942    2.959
 grid_integrate_task_list            27 10.0    1.655    2.740    1.655    2.740
 density_rs2pw                       28  7.0    0.001    0.001    1.378    2.554
 transfer_rs2pw                     114  8.0    0.002    0.002    1.302    2.548
 mp_alltoall_i11v                186616  9.0    2.337    2.490    2.337    2.490
 transfer_rs2pw_500                  30  8.9    0.208    0.240    1.173    2.421
 dbcsr_merge_all                  43050 10.3    1.049    1.276    2.018    2.290
 mp_sendrecv_dv                    1710 10.0    1.054    2.281    1.054    2.281
 grid_collocate_task_list            28  7.0    1.524    2.217    1.524    2.217
 mp_cart_create                   29233  8.9    1.915    1.967    1.915    1.967
 cp_cfm_triangular_multiply        1407  7.8    1.707    1.730    1.707    1.730
 write_kpoints_restart               27  5.0    0.004    0.006    1.415    1.416
 mp_bcast_iv                     168281  8.3    1.262    1.354    1.262    1.354
 cp_fm_finish_copy_general        15700  7.9    1.255    1.270    1.286    1.310
 kpoint_density_matrices             27  7.0    0.023    0.024    1.099    1.124
 dbcsr_work_create               100516  8.8    0.631    0.654    1.039    1.101
 parallel_gemm_fm                  1728  8.0    0.002    0.002    1.040    1.063
 parallel_gemm_fm_gemm             1728  9.0    0.002    0.002    1.038    1.060
 cp_fm_gemm                        1728 10.0    1.036    1.058    1.036    1.058
 dbcsr_create_new                173832  8.2    0.766    0.833    0.947    1.049
 fft_wrap_pw1pw2                    491 10.0    0.005    0.005    0.829    0.849
 dbcsr_data_new                 1080093  9.7    0.733    0.812    0.733    0.812
 cp_fm_write_unformatted            986  6.0    0.305    0.713    0.351    0.801
 dbcsr_work_destroy_all          100516  9.8    0.479    0.489    0.779    0.799
 tree_to_linear_d                 43050 11.3    0.750    0.795    0.750    0.795
 dbcsr_iterator_start            313145  9.0    0.630    0.649    0.757    0.791
 fft_wrap_pw1pw2_500                326 11.3    0.066    0.066    0.767    0.787
 copy_dbcsr_to_fm_bc              29226  7.9    0.363    0.384    0.715    0.741
 copy_fm_to_dbcsr_bc              13824  9.0    0.205    0.224    0.677    0.738
 dbcsr_data_release             1508170 10.1    0.662    0.719    0.662    0.719
 fft3d_ps                           491 12.0    0.326    0.335    0.652    0.675
 qs_vxc_create                       27  8.0    0.000    0.000    0.599    0.603
 xc_vxc_pw_create                    27  9.0    0.026    0.027    0.599    0.603
 potential_pw2rs                     27 10.0    0.002    0.002    0.588    0.602
 dbcsr_dot                        26623  8.0    0.196    0.261    0.573    0.598
 dbcsr_destroy                   147210  8.2    0.257    0.270    0.529    0.582
 evaluate_core_matrix_traces         27  6.0    0.000    0.000    0.578    0.578
 calculate_ptrace_kp                 54  7.0    0.020    0.022    0.578    0.578
 gspace_mixing                       26  5.0    0.023    0.023    0.531    0.531
 dbcsr_copy                       40939  7.3    0.173    0.194    0.440    0.504
 transfer_pw2rs                     109 11.0    0.001    0.001    0.502    0.503
 dbcsr_iterator_stop             313145  9.0    0.385    0.394    0.465    0.481
 mp_sum_d                         27257  8.9    0.331    0.480    0.331    0.480
 mp_waitall_1                    172631  8.4    0.292    0.480    0.292    0.480
 broyden_mixing                      26  6.0    0.423    0.430    0.437    0.439
 self_consistency_check              27  5.0    0.019    0.021    0.377    0.437
 cp_cfm_cholesky_decompose          469  7.8    0.416    0.425    0.416    0.425
 cp_cfm_triangular_invert           469  7.8    0.411    0.420    0.411    0.420
 cp_sm_mix                        13311  6.0    0.081    0.114    0.317    0.401
 xc_pw_derive                       162 11.0    0.001    0.001    0.374    0.389
 transfer_pw2rs_500                  28 11.9    0.215    0.219    0.374    0.380
 mp_bcast_im                      84128  8.3    0.370    0.379    0.370    0.379
 quick_finalize                   57466  9.4    0.191    0.199    0.354    0.370
 mp_comm_free                     87721  8.9    0.309    0.364    0.309    0.364
 mp_max_d                         13313  7.0    0.204    0.340    0.204    0.340
 xc_rho_set_and_dset_create          27 10.0    0.013    0.014    0.325    0.331
 kpoint_set_mo_occupation            27  7.0    0.080    0.081    0.226    0.323
 mp_alltoall_z22v                   491 14.0    0.263    0.301    0.263    0.301
 mp_send_dv                         986  7.0    0.041    0.291    0.041    0.291
 dbcsr_set                       100979  7.9    0.102    0.109    0.215    0.280
 mp_isend_dv                      43840  8.2    0.223    0.267    0.223    0.267
 dbcsr_copy_into_existing         14317  9.9    0.139    0.179    0.222    0.265
 xc_pw_divergence                    27 10.0    0.000    0.000    0.242    0.254
 mp_sum_dm3                          27  8.0    0.146    0.243    0.146    0.243
 qs_energies_init_hamiltonians        1  3.0    0.000    0.000    0.221    0.221
 init_scf_run                         1  3.0    0.000    0.000    0.168    0.191
 scf_env_initial_rho_setup            1  4.0    0.000    0.000    0.168    0.191
 x_to_yz                            270 13.2    0.037    0.039    0.182    0.190
 dbcsr_reserve_blocks             17439 10.0    0.136    0.165    0.151    0.182
 dbcsr_zero                      100979  8.9    0.113    0.171    0.113    0.171
 yz_to_x                            221 12.8    0.021    0.024    0.139    0.164
 build_core_hamiltonian_matrix        1  4.0    0.002    0.002    0.110    0.161
 qs_env_update_s_mstruct              1  4.0    0.000    0.000    0.101    0.158
 calculate_rho_core                   1  5.0    0.001    0.002    0.082    0.153
 mp_sum_dv                          322  3.3    0.060    0.143    0.060    0.143
 dbcsr_iterator_seek             313145 10.0    0.127    0.142    0.127    0.142
 dbcsr_reserve_all_blocks         13824 10.0    0.023    0.029    0.127    0.141
 dbcsr_make_index_exist          173832  9.2    0.113    0.141    0.113    0.141
 cp_dbcsr_alloc_block_from_nbl     3615  5.1    0.042    0.063    0.090    0.139
 dbcsr_sort_indices              117955 10.8    0.121    0.136    0.121    0.136
 cp_cfm_scale_and_add_fm           1876  6.8    0.128    0.134    0.128    0.134
 xc_functional_eval                  27 11.0    0.000    0.000    0.116    0.121
 pbe_lda_eval                        27 12.0    0.115    0.120    0.115    0.120
 mp_isendrecv_dv                   1635 13.0    0.044    0.106    0.044    0.106
 merge_index                      43050 11.3    0.084    0.104    0.084    0.104
 transfer_pw2rs_170                  27 12.0    0.042    0.044    0.095    0.100
 transfer_rs2pw_170                  28  9.0    0.029    0.032    0.090    0.094
 parser_read_line                  6186  4.1    0.002    0.002    0.087    0.089
 mp_irecv_iv                     168256  8.3    0.005    0.088    0.005    0.088
 mp_recv_dv                        2958  7.0    0.005    0.088    0.005    0.088
 parser_read_line_low                24  6.2    0.007    0.032    0.085    0.087
 dbcsr_switch_data_area           57466 10.4    0.058    0.059    0.081    0.084
 dbcsr_data_copy_aa2              43050 11.2    0.069    0.084    0.069    0.084
 broadcast_input_information         24  7.2    0.027    0.030    0.078    0.082
 restraint_control                    1  2.0    0.000    0.000    0.056    0.075
 mp_sum_i                             4  2.8    0.056    0.075    0.056    0.075
 cp_fm_cleanup_copy_general       29104  7.0    0.046    0.047    0.066    0.067
 cp_cfm_to_fm                       469  6.8    0.064    0.066    0.064    0.066
 scf_post_calculation_gpw             1  3.0    0.000    0.000    0.065    0.065
 write_available_results              1  4.0    0.000    0.000    0.065    0.065
 write_mo_free_results                1  5.0    0.002    0.002    0.065    0.065
 topology_control                     1  2.0    0.000    0.000    0.065    0.065
 create_qs_kind_set                   1  2.0    0.000    0.000    0.059    0.060
 read_qs_kind                         1  3.0    0.031    0.033    0.059    0.060
 pw_scatter_p                       270 12.2    0.058    0.059    0.058    0.059
 dbcsr_distribution_new           43052  8.6    0.041    0.059    0.041    0.059
 mp_isend_iv                      89608  8.3    0.008    0.058    0.008    0.058
 qs_init_subsys                       1  2.0    0.002    0.002    0.055    0.055
 pw_poisson_solve                    27  8.0    0.000    0.000    0.052    0.053
 qs_env_setup                         1  3.0    0.000    0.000    0.052    0.052
 qs_env_rebuild_pw_env                2  3.5    0.000    0.000    0.051    0.052
 pw_env_rebuild                       1  5.0    0.000    0.001    0.051    0.052
 cp_cfm_to_cfm_columns              469  7.8    0.049    0.051    0.049    0.051
 mixing_allocate                      1  3.0    0.003    0.003    0.034    0.049
 build_core_ppnl                      1  5.0    0.031    0.046    0.031    0.046
 dbcsr_make_dbcsr_index          117955 10.9    0.041    0.045    0.041    0.045
 dbcsr_get_data_size_used        100516  9.8    0.041    0.045    0.041    0.045
 read_cell_cif                        2  4.5    0.002    0.005    0.043    0.045
 calculate_first_density_matrix       1  5.0    0.000    0.000    0.020    0.044
 build_overlap_matrix_low             1  5.0    0.013    0.022    0.028    0.043
 calculate_atomic_block_dm            1  6.0    0.001    0.001    0.019    0.043
 mp_irecv_im2                     84128  8.3    0.003    0.042    0.003    0.042
 pw_grid_setup                        4  6.0    0.000    0.000    0.041    0.041
 pw_grid_setup_internal               4  7.0    0.001    0.001    0.041    0.041
 build_kinetic_matrix_low             1  5.0    0.012    0.021    0.026    0.041
 coordinate_control                   1  3.0    0.001    0.002    0.040    0.040
 coordinate_control_READ_COORDI       1  4.0    0.000    0.000    0.039    0.040
 read_coordinate_cif                  1  5.0    0.002    0.002    0.039    0.040
 fft_wrap_pw1pw2_170                 55 10.5    0.003    0.003    0.036    0.040
 cp_fm_to_fm_matrix                 864  8.0    0.034    0.035    0.034    0.035
 pw_integral_ab_c1d_c1d_gs           27  9.0    0.033    0.034    0.035    0.035
 mp_bcast_i_src                      96  8.2    0.030    0.034    0.030    0.034
 cp_fm_create                       354  4.1    0.032    0.033    0.032    0.033
 calculate_hirshfeld_normalizat       1  6.0    0.002    0.009    0.030    0.032
 transfer_rs2pw_60                   28  9.0    0.007    0.008    0.028    0.031
 mp_bcast_am_src                     24  8.2    0.015    0.017    0.020    0.031
 pw_gather_p                        221 11.8    0.029    0.029    0.029    0.029
 mp_irecv_dv                      43840  8.2    0.026    0.027    0.026    0.027
 mp_isend_im2                     44804  8.3    0.004    0.027    0.004    0.027
 transfer_pw2rs_60                   27 12.0    0.009    0.010    0.024    0.026
 pw_grid_sort                         4  8.0    0.017    0.018    0.025    0.026
 mixing_init                          1  5.0    0.022    0.024    0.024    0.024
 hirshfeld_integration                1  6.0    0.003    0.010    0.024    0.024
 calculate_ecore_overlap              1  4.0    0.000    0.000    0.009    0.023
 qs_env_rebuild_rho                   1  5.0    0.000    0.000    0.016    0.023
 qs_rho_rebuild                       1  6.0    0.001    0.001    0.016    0.023
 kpoint_initialize_mos                2  2.5    0.000    0.001    0.021    0.022
 mp_sum_iv                           24  5.3    0.008    0.021    0.008    0.021
 qs_scf_ensure_work_matrices          1  3.0    0.000    0.000    0.008    0.021
 pw_copy                            405 10.5    0.018    0.019    0.018    0.019
 pw_derive                          243 11.3    0.015    0.016    0.015    0.016
 mp_sum_dm                           26  7.0    0.010    0.016    0.010    0.016
 mulliken_population_analysis         1  6.0    0.005    0.014    0.009    0.016
 fft_wrap_pw1pw2_60                  55 10.5    0.001    0.001    0.014    0.015
 -------------------------------------------------------------------------------

 The number of warnings for this run is : 1
 
 -------------------------------------------------------------------------------
  **** **** ******  **  PROGRAM ENDED AT                 2025-08-05 22:32:04.472
 ***** ** ***  *** **   PROGRAM RAN ON                              i04r09c01s06
 **    ****   ******    PROGRAM RAN BY                                   di38fab
 ***** **    ** ** **   PROGRAM PROCESS ID                                470564
  **** **  *******  **  PROGRAM STOPPED IN /hppfs/scratch/04/di38fab/09_GTH/Delt
                                           a_Set/Kr/aug-TZVP-MOLOPT-GTH-tier-2/8
                                           x8x8
