Ne                                      
   1.00000000000000     
     4.622620    0.000000    0.000000
     0.000000    4.622620    0.000000
     0.000000    0.000000    4.622620
   Ne
     4
Direct
  0.000000  0.000000  0.000000
  0.000000  0.500000  0.500000
  0.500000  0.000000  0.500000
  0.500000  0.500000  0.000000
 
   48   48   48
 0.21275755075E+04 0.20094287921E+04 0.16875106813E+04 0.12486805736E+04 0.80393619717E+03
 0.44743238760E+03 0.22234697811E+03 0.11205846222E+03 0.62209157440E+02 0.34124703544E+02
 0.18835977166E+02 0.10729910041E+02 0.63074927895E+01 0.37392725409E+01 0.22200157519E+01
 0.13625386957E+01 0.86935494324E+00 0.54754480509E+00 0.35596759241E+00 0.28143851051E+00
 0.24422869410E+00 0.18793455139E+00 0.15242388463E+00 0.17278276999E+00 0.19543250952E+00
 0.17278277000E+00 0.15242388463E+00 0.18793455139E+00 0.24422869410E+00 0.28143851051E+00
 0.35596759241E+00 0.54754480509E+00 0.86935494324E+00 0.13625386957E+01 0.22200157519E+01
 0.37392725409E+01 0.63074927895E+01 0.10729910041E+02 0.18835977166E+02 0.34124703544E+02
 0.62209157440E+02 0.11205846222E+03 0.22234697811E+03 0.44743238760E+03 0.80393619717E+03
 0.12486805736E+04 0.16875106813E+04 0.20094287921E+04 0.20094287921E+04 0.18968168021E+04
 0.15904292077E+04 0.11739930332E+04 0.75382761104E+03 0.41911559859E+03 0.20945491590E+03
 0.10723720004E+03 0.59952866984E+02 0.33006092333E+02 0.18299618135E+02 0.10467520007E+02
 0.61721275261E+01 0.36673523466E+01 0.21819422209E+01 0.13415920008E+01 0.85721613886E+00
 0.54088094503E+00 0.35107887634E+00 0.27389600082E+00 0.23261859550E+00 0.17356944364E+00
 0.13539316772E+00 0.15209465405E+00 0.17278277000E+00 0.15209465405E+00 0.13539316772E+00
 0.17356944364E+00 0.23261859550E+00 0.27389600082E+00 0.35107887634E+00 0.54088094503E+00
 0.85721613886E+00 0.13415920008E+01 0.21819422209E+01 0.36673523466E+01 0.61721275261E+01
 0.10467520007E+02 0.18299618135E+02 0.33006092333E+02 0.59952866984E+02 0.10723720004E+03
 0.20945491590E+03 0.41911559859E+03 0.75382761104E+03 0.11739930332E+04 0.15904292077E+04
 0.18968168021E+04 0.16875106813E+04 0.15904292077E+04 0.13274548309E+04 0.97317087746E+03
 0.62053291977E+03 0.34487572528E+03 0.17617693196E+03 0.94589713819E+02 0.53724579464E+02
 0.29908002988E+02 0.16802967648E+02 0.97279725950E+01 0.57869455061E+01 0.34613092472E+01
 0.20724848025E+01 0.12816715243E+01 0.82367491685E+00 0.52521837832E+00 0.34447390684E+00
 0.26585810071E+00 0.22077760306E+00 0.16215961954E+00 0.12383206571E+00 0.13539316772E+00
 0.15242388463E+00 0.13539316772E+00 0.12383206571E+00 0.16215961954E+00 0.22077760306E+00
 0.26585810071E+00 0.34447390684E+00 0.52521837832E+00 0.82367491685E+00 0.12816715243E+01
 0.20724848025E+01 0.34613092472E+01 0.57869455061E+01 0.97279725950E+01 0.16802967648E+02
 0.29908002988E+02 0.53724579464E+02 0.94589713819E+02 0.17617693196E+03 0.34487572528E+03
 0.62053291977E+03 0.97317087746E+03 0.13274548309E+04 0.15904292077E+04 0.12486805736E+04
 0.11739930332E+04 0.97317087746E+03 0.70665130860E+03 0.44746522374E+03 0.25124208759E+03
 0.13524265320E+03 0.77876763215E+02 0.44929458320E+02 0.25498271611E+02 0.14638936511E+02
 0.86370336194E+01 0.52083347710E+01 0.31480426568E+01 0.19052509036E+01 0.11910610680E+01
 0.77554286310E+00 0.50787364322E+00 0.34698552982E+00 0.27557312212E+00 0.23633341238E+00
 0.19021471123E+00 0.16215961954E+00 0.17356944364E+00 0.18793455139E+00 0.17356944364E+00
 0.16215961954E+00 0.19021471123E+00 0.23633341238E+00 0.27557312212E+00 0.34698552982E+00
 0.50787364322E+00 0.77554286310E+00 0.11910610680E+01 0.19052509036E+01 0.31480426568E+01
 0.52083347710E+01 0.86370336194E+01 0.14638936511E+02 0.25498271611E+02 0.44929458320E+02
 0.77876763215E+02 0.13524265320E+03 0.25124208759E+03 0.44746522374E+03 0.70665130860E+03
 0.97317087746E+03 0.11739930332E+04 0.80393619717E+03 0.75382761104E+03 0.62053291977E+03
 0.44746522374E+03 0.28473427057E+03 0.16671044253E+03 0.98519925228E+02 0.59927161487E+02
 0.35301968626E+02 0.20598784203E+02 0.12173350957E+02 0.73568189092E+01 0.45123656535E+01
 0.27657795707E+01 0.17006388032E+01 0.10822465261E+01 0.72109677795E+00 0.49260749613E+00
 0.35744605258E+00 0.29703348065E+00 0.26677298933E+00 0.23633341238E+00 0.22077760306E+00
 0.23261859550E+00 0.24422869410E+00 0.23261859550E+00 0.22077760306E+00 0.23633341238E+00
 0.26677298933E+00 0.29703348065E+00 0.35744605258E+00 0.49260749613E+00 0.72109677795E+00
 0.10822465261E+01 0.17006388032E+01 0.27657795707E+01 0.45123656535E+01 0.73568189092E+01
 0.12173350957E+02 0.20598784203E+02 0.35301968626E+02 0.59927161487E+02 0.98519925228E+02
 0.16671044253E+03 0.28473427057E+03 0.44746522374E+03 0.62053291977E+03 0.75382761104E+03
 0.44743238760E+03 0.41911559859E+03 0.34487572528E+03 0.25124208759E+03 0.16671044253E+03
 0.10722554662E+03 0.69523291235E+02 0.43363853754E+02 0.26325790639E+02 0.15916756393E+02
 0.97321339684E+01 0.60409515778E+01 0.37769886792E+01 0.23567408263E+01 0.14826101597E+01
 0.97037416817E+00 0.67034710011E+00 0.48397301228E+00 0.37446511103E+00 0.32286216769E+00
 0.29703348065E+00 0.27557312212E+00 0.26585810071E+00 0.27389600082E+00 0.28143851051E+00
 0.27389600082E+00 0.26585810071E+00 0.27557312212E+00 0.29703348065E+00 0.32286216769E+00
 0.37446511103E+00 0.48397301228E+00 0.67034710011E+00 0.97037416817E+00 0.14826101597E+01
 0.23567408263E+01 0.37769886792E+01 0.60409515778E+01 0.97321339684E+01 0.15916756393E+02
 0.26325790639E+02 0.43363853754E+02 0.69523291235E+02 0.10722554662E+03 0.16671044253E+03
 0.25124208759E+03 0.34487572528E+03 0.41911559859E+03 0.22234697811E+03 0.20945491590E+03
 0.17617693196E+03 0.13524265320E+03 0.98519925228E+02 0.69523291235E+02 0.46519457921E+02
 0.29914566649E+02 0.18876152310E+02 0.11886437653E+02 0.75337197532E+01 0.48056525036E+01
 0.30688107915E+01 0.19604403164E+01 0.12749887621E+01 0.87130572798E+00 0.63575156343E+00
 0.49371268822E+00 0.41258439029E+00 0.37446511103E+00 0.35744605258E+00 0.34698552982E+00
 0.34447390684E+00 0.35107887634E+00 0.35596759241E+00 0.35107887634E+00 0.34447390684E+00
 0.34698552982E+00 0.35744605258E+00 0.37446511103E+00 0.41258439029E+00 0.49371268822E+00
 0.63575156343E+00 0.87130572798E+00 0.12749887621E+01 0.19604403164E+01 0.30688107915E+01
 0.48056525036E+01 0.75337197532E+01 0.11886437653E+02 0.18876152310E+02 0.29914566649E+02
 0.46519457921E+02 0.69523291235E+02 0.98519925228E+02 0.13524265320E+03 0.17617693196E+03
 0.20945491590E+03 0.11205846222E+03 0.10723720004E+03 0.94589713819E+02 0.77876763215E+02
 0.59927161487E+02 0.43363853754E+02 0.29914566649E+02 0.20011092816E+02 0.13190954064E+02
 0.86592234218E+01 0.56811607603E+01 0.37224713277E+01 0.24367962529E+01 0.16089177556E+01
 0.10983976163E+01 0.79974657212E+00 0.63053266604E+00 0.53735218183E+00 0.49371268822E+00
 0.48397301228E+00 0.49260749613E+00 0.50787364322E+00 0.52521837832E+00 0.54088094503E+00
 0.54754480509E+00 0.54088094503E+00 0.52521837832E+00 0.50787364322E+00 0.49260749613E+00
 0.48397301228E+00 0.49371268822E+00 0.53735218183E+00 0.63053266604E+00 0.79974657212E+00
 0.10983976163E+01 0.16089177556E+01 0.24367962529E+01 0.37224713277E+01 0.56811607603E+01
 0.86592234218E+01 0.13190954064E+02 0.20011092816E+02 0.29914566649E+02 0.43363853754E+02
 0.59927161487E+02 0.77876763215E+02 0.94589713819E+02 0.10723720004E+03 0.62209157440E+02
 0.59952866984E+02 0.53724579464E+02 0.44929458320E+02 0.35301968626E+02 0.26325790639E+02
 0.18876152310E+02 0.13190954064E+02 0.90809563409E+01 0.61939661558E+01 0.41938663478E+01
 0.28257514576E+01 0.19114334272E+01 0.13244749955E+01 0.96898622824E+00 0.76912027573E+00
 0.66829946601E+00 0.63053266604E+00 0.63575156343E+00 0.67034710011E+00 0.72109677795E+00
 0.77554286310E+00 0.82367491685E+00 0.85721613886E+00 0.86935494324E+00 0.85721613886E+00
 0.82367491685E+00 0.77554286310E+00 0.72109677795E+00 0.67034710011E+00 0.63575156343E+00
 0.63053266604E+00 0.66829946601E+00 0.76912027573E+00 0.96898622824E+00 0.13244749955E+01
 0.19114334272E+01 0.28257514576E+01 0.41938663478E+01 0.61939661558E+01 0.90809563409E+01
 0.13190954064E+02 0.18876152310E+02 0.26325790639E+02 0.35301968626E+02 0.44929458320E+02
 0.53724579464E+02 0.59952866984E+02 0.34124703544E+02 0.33006092333E+02 0.29908002988E+02
 0.25498271611E+02 0.20598784203E+02 0.15916756393E+02 0.11886437653E+02 0.86592234218E+01
 0.61939661558E+01 0.43671570628E+01 0.30474720741E+01 0.21240827356E+01 0.15069201545E+01
 0.11201893207E+01 0.89976846829E+00 0.79477018313E+00 0.76912027573E+00 0.79974657212E+00
 0.87130572798E+00 0.97037416817E+00 0.10822465261E+01 0.11910610680E+01 0.12816715243E+01
 0.13415920008E+01 0.13625386957E+01 0.13415920008E+01 0.12816715243E+01 0.11910610680E+01
 0.10822465261E+01 0.97037416817E+00 0.87130572798E+00 0.79974657212E+00 0.76912027573E+00
 0.79477018313E+00 0.89976846829E+00 0.11201893207E+01 0.15069201545E+01 0.21240827356E+01
 0.30474720741E+01 0.43671570628E+01 0.61939661558E+01 0.86592234218E+01 0.11886437653E+02
 0.15916756393E+02 0.20598784203E+02 0.25498271611E+02 0.29908002988E+02 0.33006092333E+02
 0.18835977166E+02 0.18299618135E+02 0.16802967648E+02 0.14638936511E+02 0.12173350957E+02
 0.97321339684E+01 0.75337197532E+01 0.56811607603E+01 0.41938663478E+01 0.30474720741E+01
 0.22011522919E+01 0.16092992470E+01 0.12250436115E+01 0.10031747489E+01 0.90456914938E+00
 0.89976846829E+00 0.96898622824E+00 0.10983976163E+01 0.12749887621E+01 0.14826101597E+01
 0.17006388032E+01 0.19052509036E+01 0.20724848025E+01 0.21819422209E+01 0.22200157519E+01
 0.21819422209E+01 0.20724848025E+01 0.19052509036E+01 0.17006388032E+01 0.14826101597E+01
 0.12749887621E+01 0.10983976163E+01 0.96898622824E+00 0.89976846829E+00 0.90456914938E+00
 0.10031747489E+01 0.12250436115E+01 0.16092992470E+01 0.22011522919E+01 0.30474720741E+01
 0.41938663478E+01 0.56811607603E+01 0.75337197532E+01 0.97321339684E+01 0.12173350957E+02
 0.14638936511E+02 0.16802967648E+02 0.18299618135E+02 0.10729910041E+02 0.10467520007E+02
 0.97279725950E+01 0.86370336194E+01 0.73568189092E+01 0.60409515778E+01 0.48056525036E+01
 0.37224713277E+01 0.28257514576E+01 0.21240827356E+01 0.16092992470E+01 0.12626602911E+01
 0.10604324344E+01 0.97973485120E+00 0.10031747489E+01 0.11201893207E+01 0.13244749955E+01
 0.16089177556E+01 0.19604403164E+01 0.23567408263E+01 0.27657795707E+01 0.31480426568E+01
 0.34613092472E+01 0.36673523466E+01 0.37392725409E+01 0.36673523466E+01 0.34613092472E+01
 0.31480426568E+01 0.27657795707E+01 0.23567408263E+01 0.19604403164E+01 0.16089177556E+01
 0.13244749955E+01 0.11201893207E+01 0.10031747489E+01 0.97973485120E+00 0.10604324344E+01
 0.12626602911E+01 0.16092992470E+01 0.21240827356E+01 0.28257514576E+01 0.37224713277E+01
 0.48056525036E+01 0.60409515778E+01 0.73568189092E+01 0.86370336194E+01 0.97279725950E+01
 0.10467520007E+02 0.63074927895E+01 0.61721275261E+01 0.57869455061E+01 0.52083347710E+01
 0.45123656535E+01 0.37769886792E+01 0.30688107915E+01 0.24367962529E+01 0.19114334272E+01
 0.15069201545E+01 0.12250436115E+01 0.10604324344E+01 0.10065088673E+01 0.10604324344E+01
 0.12250436115E+01 0.15069201545E+01 0.19114334272E+01 0.24367962529E+01 0.30688107915E+01
 0.37769886792E+01 0.45123656535E+01 0.52083347710E+01 0.57869455061E+01 0.61721275261E+01
 0.63074927895E+01 0.61721275261E+01 0.57869455061E+01 0.52083347710E+01 0.45123656535E+01
 0.37769886792E+01 0.30688107915E+01 0.24367962529E+01 0.19114334272E+01 0.15069201545E+01
 0.12250436115E+01 0.10604324344E+01 0.10065088673E+01 0.10604324344E+01 0.12250436115E+01
 0.15069201545E+01 0.19114334272E+01 0.24367962529E+01 0.30688107915E+01 0.37769886792E+01
 0.45123656535E+01 0.52083347710E+01 0.57869455061E+01 0.61721275261E+01 0.37392725409E+01
 0.36673523466E+01 0.34613092472E+01 0.31480426568E+01 0.27657795707E+01 0.23567408263E+01
 0.19604403164E+01 0.16089177556E+01 0.13244749955E+01 0.11201893207E+01 0.10031747489E+01
 0.97973485120E+00 0.10604324344E+01 0.12626602911E+01 0.16092992470E+01 0.21240827356E+01
 0.28257514576E+01 0.37224713277E+01 0.48056525036E+01 0.60409515778E+01 0.73568189092E+01
 0.86370336194E+01 0.97279725950E+01 0.10467520007E+02 0.10729910041E+02 0.10467520007E+02
 0.97279725950E+01 0.86370336194E+01 0.73568189092E+01 0.60409515778E+01 0.48056525036E+01
 0.37224713277E+01 0.28257514576E+01 0.21240827356E+01 0.16092992470E+01 0.12626602911E+01
 0.10604324344E+01 0.97973485120E+00 0.10031747489E+01 0.11201893207E+01 0.13244749955E+01
 0.16089177556E+01 0.19604403164E+01 0.23567408263E+01 0.27657795707E+01 0.31480426568E+01
 0.34613092472E+01 0.36673523466E+01 0.22200157519E+01 0.21819422209E+01 0.20724848025E+01
 0.19052509036E+01 0.17006388032E+01 0.14826101597E+01 0.12749887621E+01 0.10983976163E+01
 0.96898622824E+00 0.89976846829E+00 0.90456914938E+00 0.10031747489E+01 0.12250436115E+01
 0.16092992470E+01 0.22011522919E+01 0.30474720741E+01 0.41938663478E+01 0.56811607603E+01
 0.75337197532E+01 0.97321339684E+01 0.12173350957E+02 0.14638936511E+02 0.16802967648E+02
 0.18299618135E+02 0.18835977166E+02 0.18299618135E+02 0.16802967648E+02 0.14638936511E+02
 0.12173350957E+02 0.97321339684E+01 0.75337197532E+01 0.56811607603E+01 0.41938663478E+01
 0.30474720741E+01 0.22011522919E+01 0.16092992470E+01 0.12250436115E+01 0.10031747489E+01
 0.90456914938E+00 0.89976846829E+00 0.96898622824E+00 0.10983976163E+01 0.12749887621E+01
 0.14826101597E+01 0.17006388032E+01 0.19052509036E+01 0.20724848025E+01 0.21819422209E+01
 0.13625386957E+01 0.13415920008E+01 0.12816715243E+01 0.11910610680E+01 0.10822465261E+01
 0.97037416817E+00 0.87130572798E+00 0.79974657212E+00 0.76912027573E+00 0.79477018313E+00
 0.89976846829E+00 0.11201893207E+01 0.15069201545E+01 0.21240827356E+01 0.30474720741E+01
 0.43671570628E+01 0.61939661558E+01 0.86592234218E+01 0.11886437653E+02 0.15916756393E+02
 0.20598784203E+02 0.25498271611E+02 0.29908002988E+02 0.33006092333E+02 0.34124703544E+02
 0.33006092333E+02 0.29908002988E+02 0.25498271611E+02 0.20598784203E+02 0.15916756393E+02
 0.11886437653E+02 0.86592234218E+01 0.61939661558E+01 0.43671570628E+01 0.30474720741E+01
 0.21240827356E+01 0.15069201545E+01 0.11201893207E+01 0.89976846829E+00 0.79477018313E+00
 0.76912027573E+00 0.79974657212E+00 0.87130572798E+00 0.97037416817E+00 0.10822465261E+01
 0.11910610680E+01 0.12816715243E+01 0.13415920008E+01 0.86935494324E+00 0.85721613886E+00
 0.82367491685E+00 0.77554286310E+00 0.72109677795E+00 0.67034710011E+00 0.63575156343E+00
 0.63053266604E+00 0.66829946601E+00 0.76912027573E+00 0.96898622824E+00 0.13244749955E+01
 0.19114334272E+01 0.28257514576E+01 0.41938663478E+01 0.61939661558E+01 0.90809563409E+01
 0.13190954064E+02 0.18876152310E+02 0.26325790639E+02 0.35301968626E+02 0.44929458320E+02
 0.53724579464E+02 0.59952866984E+02 0.62209157440E+02 0.59952866984E+02 0.53724579464E+02
 0.44929458320E+02 0.35301968626E+02 0.26325790639E+02 0.18876152310E+02 0.13190954064E+02
 0.90809563409E+01 0.61939661558E+01 0.41938663478E+01 0.28257514576E+01 0.19114334272E+01
 0.13244749955E+01 0.96898622824E+00 0.76912027573E+00 0.66829946601E+00 0.63053266604E+00
 0.63575156343E+00 0.67034710011E+00 0.72109677795E+00 0.77554286310E+00 0.82367491685E+00
 0.85721613886E+00 0.54754480509E+00 0.54088094503E+00 0.52521837832E+00 0.50787364322E+00
 0.49260749613E+00 0.48397301228E+00 0.49371268822E+00 0.53735218183E+00 0.63053266604E+00
 0.79974657212E+00 0.10983976163E+01 0.16089177556E+01 0.24367962529E+01 0.37224713277E+01
 0.56811607603E+01 0.86592234218E+01 0.13190954064E+02 0.20011092816E+02 0.29914566649E+02
 0.43363853754E+02 0.59927161487E+02 0.77876763215E+02 0.94589713819E+02 0.10723720004E+03
 0.11205846222E+03 0.10723720004E+03 0.94589713819E+02 0.77876763215E+02 0.59927161487E+02
 0.43363853754E+02 0.29914566649E+02 0.20011092816E+02 0.13190954064E+02 0.86592234218E+01
 0.56811607603E+01 0.37224713277E+01 0.24367962529E+01 0.16089177556E+01 0.10983976163E+01
 0.79974657212E+00 0.63053266604E+00 0.53735218183E+00 0.49371268822E+00 0.48397301228E+00
 0.49260749613E+00 0.50787364322E+00 0.52521837832E+00 0.54088094503E+00 0.35596759241E+00
 0.35107887634E+00 0.34447390684E+00 0.34698552982E+00 0.35744605258E+00 0.37446511103E+00
 0.41258439029E+00 0.49371268822E+00 0.63575156343E+00 0.87130572798E+00 0.12749887621E+01
 0.19604403164E+01 0.30688107915E+01 0.48056525036E+01 0.75337197532E+01 0.11886437653E+02
 0.18876152310E+02 0.29914566649E+02 0.46519457921E+02 0.69523291235E+02 0.98519925228E+02
 0.13524265320E+03 0.17617693196E+03 0.20945491590E+03 0.22234697811E+03 0.20945491590E+03
 0.17617693196E+03 0.13524265320E+03 0.98519925228E+02 0.69523291235E+02 0.46519457921E+02
 0.29914566649E+02 0.18876152310E+02 0.11886437653E+02 0.75337197532E+01 0.48056525036E+01
 0.30688107915E+01 0.19604403164E+01 0.12749887621E+01 0.87130572798E+00 0.63575156343E+00
 0.49371268822E+00 0.41258439029E+00 0.37446511103E+00 0.35744605258E+00 0.34698552982E+00
 0.34447390684E+00 0.35107887634E+00 0.28143851051E+00 0.27389600082E+00 0.26585810071E+00
 0.27557312212E+00 0.29703348065E+00 0.32286216769E+00 0.37446511103E+00 0.48397301228E+00
 0.67034710011E+00 0.97037416817E+00 0.14826101597E+01 0.23567408263E+01 0.37769886792E+01
 0.60409515778E+01 0.97321339684E+01 0.15916756393E+02 0.26325790639E+02 0.43363853754E+02
 0.69523291235E+02 0.10722554662E+03 0.16671044253E+03 0.25124208759E+03 0.34487572528E+03
 0.41911559859E+03 0.44743238760E+03 0.41911559859E+03 0.34487572528E+03 0.25124208759E+03
 0.16671044253E+03 0.10722554662E+03 0.69523291235E+02 0.43363853754E+02 0.26325790639E+02
 0.15916756393E+02 0.97321339684E+01 0.60409515778E+01 0.37769886792E+01 0.23567408263E+01
 0.14826101597E+01 0.97037416817E+00 0.67034710011E+00 0.48397301228E+00 0.37446511103E+00
 0.32286216769E+00 0.29703348065E+00 0.27557312212E+00 0.26585810071E+00 0.27389600082E+00
 0.24422869410E+00 0.23261859550E+00 0.22077760306E+00 0.23633341238E+00 0.26677298933E+00
 0.29703348065E+00 0.35744605258E+00 0.49260749613E+00 0.72109677795E+00 0.10822465261E+01
 0.17006388032E+01 0.27657795707E+01 0.45123656535E+01 0.73568189092E+01 0.12173350957E+02
 0.20598784203E+02 0.35301968626E+02 0.59927161487E+02 0.98519925228E+02 0.16671044253E+03
 0.28473427057E+03 0.44746522374E+03 0.62053291977E+03 0.75382761104E+03 0.80393619717E+03
 0.75382761104E+03 0.62053291977E+03 0.44746522374E+03 0.28473427057E+03 0.16671044253E+03
 0.98519925228E+02 0.59927161487E+02 0.35301968626E+02 0.20598784203E+02 0.12173350957E+02
 0.73568189092E+01 0.45123656535E+01 0.27657795707E+01 0.17006388032E+01 0.10822465261E+01
 0.72109677795E+00 0.49260749613E+00 0.35744605258E+00 0.29703348065E+00 0.26677298933E+00
 0.23633341238E+00 0.22077760306E+00 0.23261859550E+00 0.18793455139E+00 0.17356944364E+00
 0.16215961954E+00 0.19021471123E+00 0.23633341238E+00 0.27557312212E+00 0.34698552982E+00
 0.50787364322E+00 0.77554286310E+00 0.11910610680E+01 0.19052509036E+01 0.31480426568E+01
 0.52083347710E+01 0.86370336194E+01 0.14638936511E+02 0.25498271611E+02 0.44929458320E+02
 0.77876763215E+02 0.13524265320E+03 0.25124208759E+03 0.44746522374E+03 0.70665130860E+03
 0.97317087746E+03 0.11739930332E+04 0.12486805736E+04 0.11739930332E+04 0.97317087746E+03
 0.70665130860E+03 0.44746522374E+03 0.25124208759E+03 0.13524265320E+03 0.77876763215E+02
 0.44929458320E+02 0.25498271611E+02 0.14638936511E+02 0.86370336194E+01 0.52083347710E+01
 0.31480426568E+01 0.19052509036E+01 0.11910610680E+01 0.77554286310E+00 0.50787364322E+00
 0.34698552982E+00 0.27557312212E+00 0.23633341238E+00 0.19021471123E+00 0.16215961954E+00
 0.17356944364E+00 0.15242388463E+00 0.13539316772E+00 0.12383206571E+00 0.16215961954E+00
 0.22077760306E+00 0.26585810071E+00 0.34447390684E+00 0.52521837832E+00 0.82367491685E+00
 0.12816715243E+01 0.20724848025E+01 0.34613092472E+01 0.57869455061E+01 0.97279725950E+01
 0.16802967648E+02 0.29908002988E+02 0.53724579464E+02 0.94589713819E+02 0.17617693196E+03
 0.34487572528E+03 0.62053291977E+03 0.97317087746E+03 0.13274548309E+04 0.15904292077E+04
 0.16875106813E+04 0.15904292077E+04 0.13274548309E+04 0.97317087746E+03 0.62053291977E+03
 0.34487572528E+03 0.17617693196E+03 0.94589713819E+02 0.53724579464E+02 0.29908002988E+02
 0.16802967648E+02 0.97279725950E+01 0.57869455061E+01 0.34613092472E+01 0.20724848025E+01
 0.12816715243E+01 0.82367491685E+00 0.52521837832E+00 0.34447390684E+00 0.26585810071E+00
 0.22077760306E+00 0.16215961954E+00 0.12383206571E+00 0.13539316772E+00 0.17278277000E+00
 0.15209465405E+00 0.13539316772E+00 0.17356944364E+00 0.23261859550E+00 0.27389600082E+00
 0.35107887634E+00 0.54088094503E+00 0.85721613886E+00 0.13415920008E+01 0.21819422209E+01
 0.36673523466E+01 0.61721275261E+01 0.10467520007E+02 0.18299618135E+02 0.33006092333E+02
 0.59952866984E+02 0.10723720004E+03 0.20945491590E+03 0.41911559859E+03 0.75382761104E+03
 0.11739930332E+04 0.15904292077E+04 0.18968168021E+04 0.20094287921E+04 0.18968168021E+04
 0.15904292077E+04 0.11739930332E+04 0.75382761104E+03 0.41911559859E+03 0.20945491590E+03
 0.10723720004E+03 0.59952866984E+02 0.33006092333E+02 0.18299618135E+02 0.10467520007E+02
 0.61721275261E+01 0.36673523466E+01 0.21819422209E+01 0.13415920008E+01 0.85721613886E+00
 0.54088094503E+00 0.35107887634E+00 0.27389600082E+00 0.23261859550E+00 0.17356944364E+00
 0.13539316772E+00 0.15209465405E+00 0.19543250952E+00 0.17278277000E+00 0.15242388463E+00
 0.18793455139E+00 0.24422869410E+00 0.28143851051E+00 0.35596759241E+00 0.54754480509E+00
 0.86935494324E+00 0.13625386957E+01 0.22200157519E+01 0.37392725409E+01 0.63074927895E+01
 0.10729910041E+02 0.18835977166E+02 0.34124703544E+02 0.62209157440E+02 0.11205846222E+03
 0.22234697811E+03 0.44743238760E+03 0.80393619717E+03 0.12486805736E+04 0.16875106813E+04
 0.20094287921E+04 0.21275755075E+04 0.20094287921E+04 0.16875106813E+04 0.12486805736E+04
 0.80393619717E+03 0.44743238760E+03 0.22234697811E+03 0.11205846222E+03 0.62209157440E+02
 0.34124703544E+02 0.18835977166E+02 0.10729910041E+02 0.63074927895E+01 0.37392725409E+01
 0.22200157519E+01 0.13625386957E+01 0.86935494324E+00 0.54754480509E+00 0.35596759241E+00
 0.28143851051E+00 0.24422869410E+00 0.18793455139E+00 0.15242388463E+00 0.17278276999E+00
 0.17278277000E+00 0.15209465405E+00 0.13539316772E+00 0.17356944364E+00 0.23261859550E+00
 0.27389600082E+00 0.35107887634E+00 0.54088094503E+00 0.85721613886E+00 0.13415920008E+01
 0.21819422209E+01 0.36673523466E+01 0.61721275261E+01 0.10467520007E+02 0.18299618135E+02
 0.33006092333E+02 0.59952866984E+02 0.10723720004E+03 0.20945491590E+03 0.41911559859E+03
 0.75382761104E+03 0.11739930332E+04 0.15904292077E+04 0.18968168021E+04 0.20094287921E+04
 0.18968168021E+04 0.15904292077E+04 0.11739930332E+04 0.75382761104E+03 0.41911559859E+03
 0.20945491590E+03 0.10723720004E+03 0.59952866984E+02 0.33006092333E+02 0.18299618135E+02
 0.10467520007E+02 0.61721275261E+01 0.36673523466E+01 0.21819422209E+01 0.13415920008E+01
 0.85721613886E+00 0.54088094503E+00 0.35107887634E+00 0.27389600082E+00 0.23261859550E+00
 0.17356944364E+00 0.13539316772E+00 0.15209465405E+00 0.15242388463E+00 0.13539316772E+00
 0.12383206571E+00 0.16215961954E+00 0.22077760306E+00 0.26585810071E+00 0.34447390684E+00
 0.52521837832E+00 0.82367491685E+00 0.12816715243E+01 0.20724848025E+01 0.34613092472E+01
 0.57869455061E+01 0.97279725950E+01 0.16802967648E+02 0.29908002988E+02 0.53724579464E+02
 0.94589713819E+02 0.17617693196E+03 0.34487572528E+03 0.62053291977E+03 0.97317087746E+03
 0.13274548309E+04 0.15904292077E+04 0.16875106813E+04 0.15904292077E+04 0.13274548309E+04
 0.97317087746E+03 0.62053291977E+03 0.34487572528E+03 0.17617693196E+03 0.94589713819E+02
 0.53724579464E+02 0.29908002988E+02 0.16802967648E+02 0.97279725950E+01 0.57869455061E+01
 0.34613092472E+01 0.20724848025E+01 0.12816715243E+01 0.82367491685E+00 0.52521837832E+00
 0.34447390684E+00 0.26585810071E+00 0.22077760306E+00 0.16215961954E+00 0.12383206571E+00
 0.13539316772E+00 0.18793455139E+00 0.17356944364E+00 0.16215961954E+00 0.19021471123E+00
 0.23633341238E+00 0.27557312212E+00 0.34698552982E+00 0.50787364322E+00 0.77554286310E+00
 0.11910610680E+01 0.19052509036E+01 0.31480426568E+01 0.52083347710E+01 0.86370336194E+01
 0.14638936511E+02 0.25498271611E+02 0.44929458320E+02 0.77876763215E+02 0.13524265320E+03
 0.25124208759E+03 0.44746522374E+03 0.70665130860E+03 0.97317087746E+03 0.11739930332E+04
 0.12486805736E+04 0.11739930332E+04 0.97317087746E+03 0.70665130860E+03 0.44746522374E+03
 0.25124208759E+03 0.13524265320E+03 0.77876763215E+02 0.44929458320E+02 0.25498271611E+02
 0.14638936511E+02 0.86370336194E+01 0.52083347710E+01 0.31480426568E+01 0.19052509036E+01
 0.11910610680E+01 0.77554286310E+00 0.50787364322E+00 0.34698552982E+00 0.27557312212E+00
 0.23633341238E+00 0.19021471123E+00 0.16215961954E+00 0.17356944364E+00 0.24422869410E+00
 0.23261859550E+00 0.22077760306E+00 0.23633341238E+00 0.26677298933E+00 0.29703348065E+00
 0.35744605258E+00 0.49260749613E+00 0.72109677795E+00 0.10822465261E+01 0.17006388032E+01
 0.27657795707E+01 0.45123656535E+01 0.73568189092E+01 0.12173350957E+02 0.20598784203E+02
 0.35301968626E+02 0.59927161487E+02 0.98519925228E+02 0.16671044253E+03 0.28473427057E+03
 0.44746522374E+03 0.62053291977E+03 0.75382761104E+03 0.80393619717E+03 0.75382761104E+03
 0.62053291977E+03 0.44746522374E+03 0.28473427057E+03 0.16671044253E+03 0.98519925228E+02
 0.59927161487E+02 0.35301968626E+02 0.20598784203E+02 0.12173350957E+02 0.73568189092E+01
 0.45123656535E+01 0.27657795707E+01 0.17006388032E+01 0.10822465261E+01 0.72109677795E+00
 0.49260749613E+00 0.35744605258E+00 0.29703348065E+00 0.26677298933E+00 0.23633341238E+00
 0.22077760306E+00 0.23261859550E+00 0.28143851051E+00 0.27389600082E+00 0.26585810071E+00
 0.27557312212E+00 0.29703348065E+00 0.32286216769E+00 0.37446511103E+00 0.48397301228E+00
 0.67034710011E+00 0.97037416817E+00 0.14826101597E+01 0.23567408263E+01 0.37769886792E+01
 0.60409515778E+01 0.97321339684E+01 0.15916756393E+02 0.26325790639E+02 0.43363853754E+02
 0.69523291235E+02 0.10722554662E+03 0.16671044253E+03 0.25124208759E+03 0.34487572528E+03
 0.41911559859E+03 0.44743238760E+03 0.41911559859E+03 0.34487572528E+03 0.25124208759E+03
 0.16671044253E+03 0.10722554662E+03 0.69523291235E+02 0.43363853754E+02 0.26325790639E+02
 0.15916756393E+02 0.97321339684E+01 0.60409515778E+01 0.37769886792E+01 0.23567408263E+01
 0.14826101597E+01 0.97037416817E+00 0.67034710011E+00 0.48397301228E+00 0.37446511103E+00
 0.32286216769E+00 0.29703348065E+00 0.27557312212E+00 0.26585810071E+00 0.27389600082E+00
 0.35596759241E+00 0.35107887634E+00 0.34447390684E+00 0.34698552982E+00 0.35744605258E+00
 0.37446511103E+00 0.41258439029E+00 0.49371268822E+00 0.63575156343E+00 0.87130572798E+00
 0.12749887621E+01 0.19604403164E+01 0.30688107915E+01 0.48056525036E+01 0.75337197532E+01
 0.11886437653E+02 0.18876152310E+02 0.29914566649E+02 0.46519457921E+02 0.69523291235E+02
 0.98519925228E+02 0.13524265320E+03 0.17617693196E+03 0.20945491590E+03 0.22234697811E+03
 0.20945491590E+03 0.17617693196E+03 0.13524265320E+03 0.98519925228E+02 0.69523291235E+02
 0.46519457921E+02 0.29914566649E+02 0.18876152310E+02 0.11886437653E+02 0.75337197532E+01
 0.48056525036E+01 0.30688107915E+01 0.19604403164E+01 0.12749887621E+01 0.87130572798E+00
 0.63575156343E+00 0.49371268822E+00 0.41258439029E+00 0.37446511103E+00 0.35744605258E+00
 0.34698552982E+00 0.34447390684E+00 0.35107887634E+00 0.54754480509E+00 0.54088094503E+00
 0.52521837832E+00 0.50787364322E+00 0.49260749613E+00 0.48397301228E+00 0.49371268822E+00
 0.53735218183E+00 0.63053266604E+00 0.79974657212E+00 0.10983976163E+01 0.16089177556E+01
 0.24367962529E+01 0.37224713277E+01 0.56811607603E+01 0.86592234218E+01 0.13190954064E+02
 0.20011092816E+02 0.29914566649E+02 0.43363853754E+02 0.59927161487E+02 0.77876763215E+02
 0.94589713819E+02 0.10723720004E+03 0.11205846222E+03 0.10723720004E+03 0.94589713819E+02
 0.77876763215E+02 0.59927161487E+02 0.43363853754E+02 0.29914566649E+02 0.20011092816E+02
 0.13190954064E+02 0.86592234218E+01 0.56811607603E+01 0.37224713277E+01 0.24367962529E+01
 0.16089177556E+01 0.10983976163E+01 0.79974657212E+00 0.63053266604E+00 0.53735218183E+00
 0.49371268822E+00 0.48397301228E+00 0.49260749613E+00 0.50787364322E+00 0.52521837832E+00
 0.54088094503E+00 0.86935494324E+00 0.85721613886E+00 0.82367491685E+00 0.77554286310E+00
 0.72109677795E+00 0.67034710011E+00 0.63575156343E+00 0.63053266604E+00 0.66829946601E+00
 0.76912027573E+00 0.96898622824E+00 0.13244749955E+01 0.19114334272E+01 0.28257514576E+01
 0.41938663478E+01 0.61939661558E+01 0.90809563409E+01 0.13190954064E+02 0.18876152310E+02
 0.26325790639E+02 0.35301968626E+02 0.44929458320E+02 0.53724579464E+02 0.59952866984E+02
 0.62209157440E+02 0.59952866984E+02 0.53724579464E+02 0.44929458320E+02 0.35301968626E+02
 0.26325790639E+02 0.18876152310E+02 0.13190954064E+02 0.90809563409E+01 0.61939661558E+01
 0.41938663478E+01 0.28257514576E+01 0.19114334272E+01 0.13244749955E+01 0.96898622824E+00
 0.76912027573E+00 0.66829946601E+00 0.63053266604E+00 0.63575156343E+00 0.67034710011E+00
 0.72109677795E+00 0.77554286310E+00 0.82367491685E+00 0.85721613886E+00 0.13625386957E+01
 0.13415920008E+01 0.12816715243E+01 0.11910610680E+01 0.10822465261E+01 0.97037416817E+00
 0.87130572798E+00 0.79974657212E+00 0.76912027573E+00 0.79477018313E+00 0.89976846829E+00
 0.11201893207E+01 0.15069201545E+01 0.21240827356E+01 0.30474720741E+01 0.43671570628E+01
 0.61939661558E+01 0.86592234218E+01 0.11886437653E+02 0.15916756393E+02 0.20598784203E+02
 0.25498271611E+02 0.29908002988E+02 0.33006092333E+02 0.34124703544E+02 0.33006092333E+02
 0.29908002988E+02 0.25498271611E+02 0.20598784203E+02 0.15916756393E+02 0.11886437653E+02
 0.86592234218E+01 0.61939661558E+01 0.43671570628E+01 0.30474720741E+01 0.21240827356E+01
 0.15069201545E+01 0.11201893207E+01 0.89976846829E+00 0.79477018313E+00 0.76912027573E+00