   4   4   0   0
  0.2469475E+02  0.4622620E-09  0.4622620E-09  0.4622620E-09  0.5000000E-15
  1.000000000000000E-004
  CAR 
 Ne                                      
     32.23053913    -37.03363340  301    -10.19376655      1.00000000
    -37.034  0.0000E+00  0.0000E+00
    -36.803  0.0000E+00  0.0000E+00
    -36.572  0.0000E+00  0.0000E+00
    -36.341  0.0000E+00  0.0000E+00
    -36.110  0.0000E+00  0.0000E+00
    -35.879  0.0000E+00  0.0000E+00
    -35.648  0.0000E+00  0.0000E+00
    -35.417  0.0000E+00  0.0000E+00
    -35.187  0.0000E+00  0.0000E+00
    -34.956  0.0000E+00  0.0000E+00
    -34.725  0.0000E+00  0.0000E+00
    -34.494  0.0000E+00  0.0000E+00
    -34.263  0.0000E+00  0.0000E+00
    -34.032  0.8047E-05  0.1858E-05
    -33.801  0.2657E+02  0.6134E+01
    -33.570  0.8081E+01  0.8000E+01
    -33.340  0.0000E+00  0.8000E+01
    -33.109  0.0000E+00  0.8000E+01
    -32.878  0.0000E+00  0.8000E+01
    -32.647  0.0000E+00  0.8000E+01
    -32.416  0.0000E+00  0.8000E+01
    -32.185  0.0000E+00  0.8000E+01
    -31.954  0.0000E+00  0.8000E+01
    -31.723  0.0000E+00  0.8000E+01
    -31.492  0.0000E+00  0.8000E+01
    -31.262  0.0000E+00  0.8000E+01
    -31.031  0.0000E+00  0.8000E+01
    -30.800  0.0000E+00  0.8000E+01
    -30.569  0.0000E+00  0.8000E+01
    -30.338  0.0000E+00  0.8000E+01
    -30.107  0.0000E+00  0.8000E+01
    -29.876  0.0000E+00  0.8000E+01
    -29.645  0.0000E+00  0.8000E+01
    -29.415  0.0000E+00  0.8000E+01
    -29.184  0.0000E+00  0.8000E+01
    -28.953  0.0000E+00  0.8000E+01
    -28.722  0.0000E+00  0.8000E+01
    -28.491  0.0000E+00  0.8000E+01
    -28.260  0.0000E+00  0.8000E+01
    -28.029  0.0000E+00  0.8000E+01
    -27.798  0.0000E+00  0.8000E+01
    -27.568  0.0000E+00  0.8000E+01
    -27.337  0.0000E+00  0.8000E+01
    -27.106  0.0000E+00  0.8000E+01
    -26.875  0.0000E+00  0.8000E+01
    -26.644  0.0000E+00  0.8000E+01
    -26.413  0.0000E+00  0.8000E+01
    -26.182  0.0000E+00  0.8000E+01
    -25.951  0.0000E+00  0.8000E+01
    -25.720  0.0000E+00  0.8000E+01
    -25.490  0.0000E+00  0.8000E+01
    -25.259  0.0000E+00  0.8000E+01
    -25.028  0.0000E+00  0.8000E+01
    -24.797  0.0000E+00  0.8000E+01
    -24.566  0.0000E+00  0.8000E+01
    -24.335  0.0000E+00  0.8000E+01
    -24.104  0.0000E+00  0.8000E+01
    -23.873  0.0000E+00  0.8000E+01
    -23.643  0.0000E+00  0.8000E+01
    -23.412  0.0000E+00  0.8000E+01
    -23.181  0.0000E+00  0.8000E+01
    -22.950  0.0000E+00  0.8000E+01
    -22.719  0.0000E+00  0.8000E+01
    -22.488  0.0000E+00  0.8000E+01
    -22.257  0.0000E+00  0.8000E+01
    -22.026  0.0000E+00  0.8000E+01
    -21.796  0.0000E+00  0.8000E+01
    -21.565  0.0000E+00  0.8000E+01
    -21.334  0.0000E+00  0.8000E+01
    -21.103  0.0000E+00  0.8000E+01
    -20.872  0.0000E+00  0.8000E+01
    -20.641  0.0000E+00  0.8000E+01
    -20.410  0.0000E+00  0.8000E+01
    -20.179  0.0000E+00  0.8000E+01
    -19.948  0.0000E+00  0.8000E+01
    -19.718  0.0000E+00  0.8000E+01
    -19.487  0.0000E+00  0.8000E+01
    -19.256  0.0000E+00  0.8000E+01
    -19.025  0.0000E+00  0.8000E+01
    -18.794  0.0000E+00  0.8000E+01
    -18.563  0.0000E+00  0.8000E+01
    -18.332  0.0000E+00  0.8000E+01
    -18.101  0.0000E+00  0.8000E+01
    -17.871  0.0000E+00  0.8000E+01
    -17.640  0.0000E+00  0.8000E+01
    -17.409  0.0000E+00  0.8000E+01
    -17.178  0.0000E+00  0.8000E+01
    -16.947  0.0000E+00  0.8000E+01
    -16.716  0.0000E+00  0.8000E+01
    -16.485  0.0000E+00  0.8000E+01
    -16.254  0.0000E+00  0.8000E+01
    -16.024  0.0000E+00  0.8000E+01
    -15.793  0.0000E+00  0.8000E+01
    -15.562  0.0000E+00  0.8000E+01
    -15.331  0.0000E+00  0.8000E+01
    -15.100  0.0000E+00  0.8000E+01
    -14.869  0.0000E+00  0.8000E+01
    -14.638  0.0000E+00  0.8000E+01
    -14.407  0.0000E+00  0.8000E+01
    -14.176  0.0000E+00  0.8000E+01
    -13.946  0.0000E+00  0.8000E+01
    -13.715  0.0000E+00  0.8000E+01
    -13.484  0.0000E+00  0.8000E+01
    -13.253  0.0000E+00  0.8000E+01
    -13.022  0.0000E+00  0.8000E+01
    -12.791  0.0000E+00  0.8000E+01
    -12.560  0.0000E+00  0.8000E+01
    -12.329  0.0000E+00  0.8000E+01
    -12.099  0.0000E+00  0.8000E+01
    -11.868  0.0000E+00  0.8000E+01
    -11.637  0.0000E+00  0.8000E+01
    -11.406  0.0000E+00  0.8000E+01
    -11.175  0.2117E-02  0.8000E+01
    -10.944  0.1884E+02  0.1235E+02
    -10.713  0.3343E+02  0.2007E+02
    -10.482  0.5158E+02  0.3198E+02
    -10.251  0.9613E-01  0.3200E+02
    -10.021  0.0000E+00  0.3200E+02
     -9.790  0.0000E+00  0.3200E+02
     -9.559  0.0000E+00  0.3200E+02
     -9.328  0.0000E+00  0.3200E+02
     -9.097  0.0000E+00  0.3200E+02
     -8.866  0.0000E+00  0.3200E+02
     -8.635  0.0000E+00  0.3200E+02
     -8.404  0.0000E+00  0.3200E+02
     -8.174  0.0000E+00  0.3200E+02
     -7.943  0.0000E+00  0.3200E+02
     -7.712  0.0000E+00  0.3200E+02
     -7.481  0.0000E+00  0.3200E+02
     -7.250  0.0000E+00  0.3200E+02
     -7.019  0.0000E+00  0.3200E+02
     -6.788  0.0000E+00  0.3200E+02
     -6.557  0.0000E+00  0.3200E+02
     -6.327  0.0000E+00  0.3200E+02
     -6.096  0.0000E+00  0.3200E+02
     -5.865  0.0000E+00  0.3200E+02
     -5.634  0.0000E+00  0.3200E+02
     -5.403  0.0000E+00  0.3200E+02
     -5.172  0.0000E+00  0.3200E+02
     -4.941  0.0000E+00  0.3200E+02
     -4.710  0.0000E+00  0.3200E+02
     -4.479  0.0000E+00  0.3200E+02
     -4.249  0.0000E+00  0.3200E+02
     -4.018  0.0000E+00  0.3200E+02
     -3.787  0.0000E+00  0.3200E+02
     -3.556  0.0000E+00  0.3200E+02
     -3.325  0.0000E+00  0.3200E+02
     -3.094  0.0000E+00  0.3200E+02
     -2.863  0.0000E+00  0.3200E+02
     -2.632  0.0000E+00  0.3200E+02
     -2.402  0.0000E+00  0.3200E+02
     -2.171  0.0000E+00  0.3200E+02
     -1.940  0.0000E+00  0.3200E+02
     -1.709  0.0000E+00  0.3200E+02
     -1.478  0.0000E+00  0.3200E+02
     -1.247  0.0000E+00  0.3200E+02
     -1.016  0.0000E+00  0.3200E+02
     -0.785  0.0000E+00  0.3200E+02
     -0.555  0.0000E+00  0.3200E+02
     -0.324  0.0000E+00  0.3200E+02
     -0.093  0.0000E+00  0.3200E+02
      0.138  0.0000E+00  0.3200E+02
      0.369  0.0000E+00  0.3200E+02
      0.600  0.0000E+00  0.3200E+02
      0.831  0.2803E-03  0.3200E+02
      1.062  0.9115E-01  0.3202E+02
      1.293  0.2824E+00  0.3209E+02
      1.523  0.2445E+00  0.3214E+02
      1.754  0.7405E+00  0.3231E+02
      1.985  0.2052E+00  0.3236E+02
      2.216  0.8564E+00  0.3256E+02
      2.447  0.5744E+00  0.3269E+02
      2.678  0.9878E+00  0.3292E+02
      2.909  0.3350E+00  0.3300E+02
      3.140  0.1246E+01  0.3328E+02
      3.370  0.8985E+00  0.3349E+02
      3.601  0.1237E+01  0.3378E+02
      3.832  0.4501E+00  0.3388E+02
      4.063  0.1718E+01  0.3428E+02
      4.294  0.7454E+00  0.3445E+02
      4.525  0.1885E+01  0.3489E+02
      4.756  0.6017E+00  0.3502E+02
      4.987  0.1860E+01  0.3545E+02
      5.218  0.1230E+01  0.3574E+02
      5.448  0.1281E+01  0.3603E+02
      5.679  0.2416E+01  0.3659E+02
      5.910  0.1219E+01  0.3687E+02
      6.141  0.1904E+01  0.3731E+02
      6.372  0.1459E+01  0.3765E+02
      6.603  0.2111E+01  0.3814E+02
      6.834  0.2890E+01  0.3880E+02
      7.065  0.4577E+00  0.3891E+02
      7.295  0.3088E+01  0.3962E+02
      7.526  0.1445E+01  0.3996E+02
      7.757  0.1656E+01  0.4034E+02
      7.988  0.1651E+01  0.4072E+02
      8.219  0.2705E+01  0.4134E+02
      8.450  0.2792E+01  0.4199E+02
      8.681  0.1416E+01  0.4232E+02
      8.912  0.2368E+01  0.4286E+02
      9.142  0.2271E+01  0.4339E+02
      9.373  0.2738E+01  0.4402E+02
      9.604  0.3569E+01  0.4484E+02
      9.835  0.1097E+01  0.4510E+02
     10.066  0.2680E+01  0.4571E+02
     10.297  0.2508E+01  0.4629E+02
     10.528  0.3032E+01  0.4699E+02
     10.759  0.2631E+01  0.4760E+02
     10.990  0.1872E+01  0.4803E+02
     11.220  0.2811E+01  0.4868E+02
     11.451  0.3334E+01  0.4945E+02
     11.682  0.8294E+00  0.4964E+02
     11.913  0.2136E+01  0.5014E+02
     12.144  0.2386E+01  0.5069E+02
     12.375  0.2644E+01  0.5130E+02
     12.606  0.9850E+00  0.5153E+02
     12.837  0.2603E+01  0.5213E+02
     13.067  0.1542E+01  0.5248E+02
     13.298  0.2965E+01  0.5317E+02
     13.529  0.2403E+01  0.5372E+02
     13.760  0.9079E+00  0.5393E+02
     13.991  0.1216E+01  0.5421E+02
     14.222  0.4671E+01  0.5529E+02
     14.453  0.2675E+01  0.5591E+02
     14.684  0.2077E+01  0.5639E+02
     14.914  0.3077E+01  0.5710E+02
     15.145  0.3147E+01  0.5782E+02
     15.376  0.4881E+01  0.5895E+02
     15.607  0.2583E+01  0.5955E+02
     15.838  0.4040E+01  0.6048E+02
     16.069  0.3177E+01  0.6121E+02
     16.300  0.4097E+01  0.6216E+02
     16.531  0.2112E+01  0.6265E+02
     16.762  0.5650E+01  0.6395E+02
     16.992  0.1629E+01  0.6433E+02
     17.223  0.2106E+01  0.6481E+02
     17.454  0.3834E+01  0.6570E+02
     17.685  0.1838E+01  0.6612E+02
     17.916  0.2148E+01  0.6662E+02
     18.147  0.2971E+01  0.6731E+02
     18.378  0.5122E+00  0.6742E+02
     18.609  0.2067E+01  0.6790E+02
     18.839  0.2641E+01  0.6851E+02
     19.070  0.3160E+01  0.6924E+02
     19.301  0.2630E+01  0.6985E+02
     19.532  0.2886E+01  0.7051E+02
     19.763  0.4159E+01  0.7147E+02
     19.994  0.1868E+01  0.7191E+02
     20.225  0.2975E+01  0.7259E+02
     20.456  0.2860E+01  0.7325E+02
     20.687  0.3674E+01  0.7410E+02
     20.917  0.2438E+01  0.7466E+02
     21.148  0.4697E+01  0.7575E+02
     21.379  0.3875E+01  0.7664E+02
     21.610  0.3827E+01  0.7753E+02
     21.841  0.4094E+01  0.7847E+02
     22.072  0.2378E+01  0.7902E+02
     22.303  0.3792E+01  0.7990E+02
     22.534  0.3619E+01  0.8073E+02
     22.764  0.7148E+00  0.8090E+02
     22.995  0.4839E+01  0.8201E+02
     23.226  0.3860E+01  0.8291E+02
     23.457  0.6179E+01  0.8433E+02
     23.688  0.2500E+01  0.8491E+02
     23.919  0.3002E+01  0.8560E+02
     24.150  0.2970E+01  0.8629E+02
     24.381  0.5254E+01  0.8750E+02
     24.611  0.5165E+01  0.8869E+02
     24.842  0.2580E+01  0.8929E+02
     25.073  0.5470E+01  0.9055E+02
     25.304  0.3208E+01  0.9129E+02
     25.535  0.6491E+01  0.9279E+02
     25.766  0.2012E+01  0.9326E+02
     25.997  0.2299E+01  0.9379E+02
     26.228  0.3548E+01  0.9461E+02
     26.459  0.1460E+01  0.9494E+02
     26.689  0.1345E+01  0.9525E+02
     26.920  0.6604E+00  0.9541E+02
     27.151  0.6586E+00  0.9556E+02
     27.382  0.8300E+00  0.9575E+02
     27.613  0.4856E+00  0.9586E+02
     27.844  0.3950E-01  0.9587E+02
     28.075  0.3597E-06  0.9587E+02
     28.306  0.1971E+00  0.9592E+02
     28.536  0.1109E+00  0.9594E+02
     28.767  0.1996E+00  0.9599E+02
     28.998  0.4461E-03  0.9599E+02
     29.229  0.5031E-01  0.9600E+02
     29.460  0.8232E-06  0.9600E+02
     29.691  0.0000E+00  0.9600E+02
     29.922  0.0000E+00  0.9600E+02
     30.153  0.0000E+00  0.9600E+02
     30.383  0.0000E+00  0.9600E+02
     30.614  0.0000E+00  0.9600E+02
     30.845  0.0000E+00  0.9600E+02
     31.076  0.0000E+00  0.9600E+02
     31.307  0.0000E+00  0.9600E+02
     31.538  0.0000E+00  0.9600E+02
     31.769  0.0000E+00  0.9600E+02
     32.000  0.0000E+00  0.9600E+02
     32.231  0.0000E+00  0.9600E+02
