Ne                                      
           1
     4.622620    0.000000    0.000000
     0.000000    4.622620    0.000000
     0.000000    0.000000    4.622620
   Ne
     4
Direct configuration=     1
   0.00000000  0.00000000  0.00000000
   0.00000000  0.50000000  0.50000000
   0.50000000  0.00000000  0.50000000
   0.50000000  0.50000000  0.00000000
