 DBCSR| CPU Multiplication driver                                           BLAS (U)
 DBCSR| Multrec recursion limit                                              512 (U)
 DBCSR| Multiplication stack size                                           1000 (D)
 DBCSR| Maximum elements for images                                    UNLIMITED (U)
 DBCSR| Multiplicative factor virtual images                                   1 (U)
 DBCSR| Use multiplication densification                                       T (D)
 DBCSR| Multiplication size stacks                                             3 (U)
 DBCSR| Use memory pool for CPU allocation                                     F (U)
 DBCSR| Number of 3D layers                                               SINGLE (U)
 DBCSR| Use MPI memory allocation                                              F (U)
 DBCSR| Use RMA algorithm                                                      F (U)
 DBCSR| Use Communication thread                                               T (U)
 DBCSR| Communication thread load                                             45 (D)
 DBCSR| MPI: My process id                                                     0
 DBCSR| MPI: Number of processes                                               8
 DBCSR| OMP: Current number of threads                                        12
 DBCSR| OMP: Max number of threads                                            12
 DBCSR| Split modifier for TAS multiplication algorithm                  1.0E+00 (U)


  **** **** ******  **  PROGRAM STARTED AT               2025-08-04 03:10:49.766
 ***** ** ***  *** **   PROGRAM STARTED ON                          i04r01c01s05
 **    ****   ******    PROGRAM STARTED BY                               di38fab
 ***** **    ** ** **   PROGRAM PROCESS ID                                963122
  **** **  *******  **  PROGRAM STARTED IN /hppfs/scratch/04/di38fab/09_GTH/Delt
                                           a_Set/Cl/TZV2P-MOLOPT-PBE-GTH/8x8x8

 CP2K| version string:                 CP2K version 2025.1 (Development Version)
 CP2K| source code revision number:                                  git:3130539
 CP2K| cp2kflags: omp libint fftw3 libxc parallel scalapack max_contr=4         
 CP2K| is freely available from                            https://www.cp2k.org/
 CP2K| Program compiled at                         Tue Jun  3 16:14:32 CEST 2025
 CP2K| Program compiled on                                               login01
 CP2K| Program compiled for                                        Supermuc-foss
 CP2K| Data directory path                  /hppfs/work/pn36zo/di38fab/cp2k/data
 CP2K| Input file name                                                    GW.inp

 GLOBAL| Force Environment number                                              1
 GLOBAL| Basis set file name            /hppfs/scratch/04/di38fab/09_GTH/BASIS_A
 GLOBAL| Potential file name            /hppfs/work/pn36zo/di38fab/cp2k/data/GTH
 GLOBAL| MM Potential file name                                     MM_POTENTIAL
 GLOBAL| Coordinate file name                                             Cl.cif
 GLOBAL| Method name                                                        CP2K
 GLOBAL| Project name                                                       WSe2
 GLOBAL| Run type                                                         ENERGY
 GLOBAL| FFT library                                                       FFTW3
 GLOBAL| Diagonalization library                                       ScaLAPACK
 GLOBAL| Cholesky decomposition library                                ScaLAPACK
 GLOBAL| DGEMM library                                                      BLAS
 GLOBAL| Orthonormality check for eigenvectors                          DISABLED
 GLOBAL| Matrix multiplication library                                 ScaLAPACK
 GLOBAL| All-to-all communication in single precision                          F
 GLOBAL| FFTs using library dependent lengths                                  F
 GLOBAL| Grid backend                                                       AUTO
 GLOBAL| Global print level                                               MEDIUM
 GLOBAL| MPI I/O enabled                                                       T
 GLOBAL| Total number of message passing processes                             8
 GLOBAL| Number of threads for this process                                   12
 GLOBAL| This output is from process                                           0
 GLOBAL| OpenMP stack size per thread (OMP_STACKSIZE)                    default
 GLOBAL| CPU model name             Intel(R) Xeon(R) Platinum 8174 CPU @ 3.10GHz

 MEMORY| system memory details [Kb]
 MEMORY|                        rank 0           min           max       average
 MEMORY| MemTotal             98436660      98436660      98436664      98436662
 MEMORY| MemFree              84309504      84309504      84596368      84452936
 MEMORY| Buffers                     0             0             0             0
 MEMORY| Cached                2353280       2353280       2368300       2360790
 MEMORY| Slab                  1327720       1302096       1327720       1314908
 MEMORY| SReclaimable           295668        289372        295668        292520
 MEMORY| MemLikelyFree        86958452      86958452      87254040      87106246


 *** Fundamental physical constants (SI units) ***

 *** Literature: B. J. Mohr and B. N. Taylor,
 ***             CODATA recommended values of the fundamental physical
 ***             constants: 2006, Web Version 5.1
 ***             http://physics.nist.gov/constants

 Speed of light in vacuum [m/s]                             2.99792458000000E+08
 Magnetic constant or permeability of vacuum [N/A**2]       1.25663706143592E-06
 Electric constant or permittivity of vacuum [F/m]          8.85418781762039E-12
 Planck constant (h) [J*s]                                  6.62606896000000E-34
 Planck constant (h-bar) [J*s]                              1.05457162825177E-34
 Elementary charge [C]                                      1.60217648700000E-19
 Electron mass [kg]                                         9.10938215000000E-31
 Electron g factor [ ]                                     -2.00231930436220E+00
 Proton mass [kg]                                           1.67262163700000E-27
 Fine-structure constant                                    7.29735253760000E-03
 Rydberg constant [1/m]                                     1.09737315685270E+07
 Avogadro constant [1/mol]                                  6.02214179000000E+23
 Boltzmann constant [J/K]                                   1.38065040000000E-23
 Atomic mass unit [kg]                                      1.66053878200000E-27
 Bohr radius [m]                                            5.29177208590000E-11

 *** Conversion factors ***

 [u] -> [a.u.]                                              1.82288848426455E+03
 [Angstrom] -> [Bohr] = [a.u.]                              1.88972613288564E+00
 [a.u.] = [Bohr] -> [Angstrom]                              5.29177208590000E-01
 [a.u.] -> [s]                                              2.41888432650478E-17
 [a.u.] -> [fs]                                             2.41888432650478E-02
 [a.u.] -> [J]                                              4.35974393937059E-18
 [a.u.] -> [N]                                              8.23872205491840E-08
 [a.u.] -> [K]                                              3.15774647902944E+05
 [a.u.] -> [kJ/mol]                                         2.62549961709828E+03
 [a.u.] -> [kcal/mol]                                       6.27509468713739E+02
 [a.u.] -> [Pa]                                             2.94210107994716E+13
 [a.u.] -> [bar]                                            2.94210107994716E+08
 [a.u.] -> [atm]                                            2.90362800883016E+08
 [a.u.] -> [eV]                                             2.72113838565563E+01
 [a.u.] -> [Hz]                                             6.57968392072181E+15
 [a.u.] -> [1/cm] (wave numbers)                            2.19474631370540E+05
 [a.u./Bohr**2] -> [1/cm]                                   5.14048714338585E+03
 

 CELL_TOP| Volume [angstrom^3]:                                       305.428517
 CELL_TOP| Vector a [angstrom     7.779     0.000     0.000   |a| =     7.778750
 CELL_TOP| Vector b [angstrom     0.000     4.349     0.000   |b| =     4.349410
 CELL_TOP| Vector c [angstrom     0.000     0.000     9.028   |c| =     9.027540
 CELL_TOP| Angle (b,c), alpha [degree]:                                90.000000
 CELL_TOP| Angle (a,c), beta  [degree]:                                90.000000
 CELL_TOP| Angle (a,b), gamma [degree]:                                90.000000
 CELL_TOP| Numerically orthorhombic:                                         YES
 CELL_TOP| Periodicity                                                       XYZ

 CELL_CIF| Volume [angstrom^3]:                                       305.428517
 CELL_CIF| Vector a [angstrom     7.779     0.000     0.000   |a| =     7.778750
 CELL_CIF| Vector b [angstrom     0.000     4.349     0.000   |b| =     4.349410
 CELL_CIF| Vector c [angstrom     0.000     0.000     9.028   |c| =     9.027540
 CELL_CIF| Angle (b,c), alpha [degree]:                                90.000000
 CELL_CIF| Angle (a,c), beta  [degree]:                                90.000000
 CELL_CIF| Angle (a,b), gamma [degree]:                                90.000000
 CELL_CIF| Numerically orthorhombic:                                         YES
 CELL_CIF| Periodicity                                                       XYZ

 GENERATE|  Preliminary Number of Bonds generated:                             0
 GENERATE|  Achieved consistency in connectivity generation.

 CELL| Volume [angstrom^3]:                                           305.428517
 CELL| Vector a [angstrom]:       7.779     0.000     0.000   |a| =     7.778750
 CELL| Vector b [angstrom]:       0.000     4.349     0.000   |b| =     4.349410
 CELL| Vector c [angstrom]:       0.000     0.000     9.028   |c| =     9.027540
 CELL| Angle (b,c), alpha [degree]:                                    90.000000
 CELL| Angle (a,c), beta  [degree]:                                    90.000000
 CELL| Angle (a,b), gamma [degree]:                                    90.000000
 CELL| Numerically orthorhombic:                                             YES
 CELL| Periodicity                                                           XYZ

 CELL_REF| Volume [angstrom^3]:                                       305.428517
 CELL_REF| Vector a [angstrom     7.779     0.000     0.000   |a| =     7.778750
 CELL_REF| Vector b [angstrom     0.000     4.349     0.000   |b| =     4.349410
 CELL_REF| Vector c [angstrom     0.000     0.000     9.028   |c| =     9.027540
 CELL_REF| Angle (b,c), alpha [degree]:                                90.000000
 CELL_REF| Angle (a,c), beta  [degree]:                                90.000000
 CELL_REF| Angle (a,b), gamma [degree]:                                90.000000
 CELL_REF| Numerically orthorhombic:                                         YES
 CELL_REF| Periodicity                                                       XYZ

 *** WARNING in cryssym.F:180 :: Symmetry library SPGLIB not available ***


 *******************************************************************************
                                    Kpoints
 *******************************************************************************
 BRILLOUIN| K-point scheme                                        Monkhorst-Pack
 BRILLOUIN| K-Point grid                                             8    8    8
 BRILLOUIN| Accuracy in Symmetry determination                      0.100000E-05
 BRILLOUIN| K-Point point group symmetrization                               OFF
 BRILLOUIN| Wavefunction type                                            COMPLEX
 BRILLOUIN| List of Kpoints [2 Pi/Bohr]                                      256
 BRILLOUIN| Number           Weight            X              Y              Z
 BRILLOUIN|     1           0.00391       -0.43750       -0.43750       -0.43750
 BRILLOUIN|     2           0.00391       -0.43750       -0.43750       -0.31250
 BRILLOUIN|     3           0.00391       -0.43750       -0.43750       -0.18750
 BRILLOUIN|     4           0.00391       -0.43750       -0.43750       -0.06250
 BRILLOUIN|     5           0.00391       -0.43750       -0.43750        0.06250
 BRILLOUIN|     6           0.00391       -0.43750       -0.43750        0.18750
 BRILLOUIN|     7           0.00391       -0.43750       -0.43750        0.31250
 BRILLOUIN|     8           0.00391       -0.43750       -0.43750        0.43750
 BRILLOUIN|     9           0.00391       -0.43750       -0.31250       -0.43750
 BRILLOUIN|    10           0.00391       -0.43750       -0.31250       -0.31250
 BRILLOUIN|    11           0.00391       -0.43750       -0.31250       -0.18750
 BRILLOUIN|    12           0.00391       -0.43750       -0.31250       -0.06250
 BRILLOUIN|    13           0.00391       -0.43750       -0.31250        0.06250
 BRILLOUIN|    14           0.00391       -0.43750       -0.31250        0.18750
 BRILLOUIN|    15           0.00391       -0.43750       -0.31250        0.31250
 BRILLOUIN|    16           0.00391       -0.43750       -0.31250        0.43750
 BRILLOUIN|    17           0.00391       -0.43750       -0.18750       -0.43750
 BRILLOUIN|    18           0.00391       -0.43750       -0.18750       -0.31250
 BRILLOUIN|    19           0.00391       -0.43750       -0.18750       -0.18750
 BRILLOUIN|    20           0.00391       -0.43750       -0.18750       -0.06250
 BRILLOUIN|    21           0.00391       -0.43750       -0.18750        0.06250
 BRILLOUIN|    22           0.00391       -0.43750       -0.18750        0.18750
 BRILLOUIN|    23           0.00391       -0.43750       -0.18750        0.31250
 BRILLOUIN|    24           0.00391       -0.43750       -0.18750        0.43750
 BRILLOUIN|    25           0.00391       -0.43750       -0.06250       -0.43750
 BRILLOUIN|    26           0.00391       -0.43750       -0.06250       -0.31250
 BRILLOUIN|    27           0.00391       -0.43750       -0.06250       -0.18750
 BRILLOUIN|    28           0.00391       -0.43750       -0.06250       -0.06250
 BRILLOUIN|    29           0.00391       -0.43750       -0.06250        0.06250
 BRILLOUIN|    30           0.00391       -0.43750       -0.06250        0.18750
 BRILLOUIN|    31           0.00391       -0.43750       -0.06250        0.31250
 BRILLOUIN|    32           0.00391       -0.43750       -0.06250        0.43750
 BRILLOUIN|    33           0.00391       -0.43750        0.06250       -0.43750
 BRILLOUIN|    34           0.00391       -0.43750        0.06250       -0.31250
 BRILLOUIN|    35           0.00391       -0.43750        0.06250       -0.18750
 BRILLOUIN|    36           0.00391       -0.43750        0.06250       -0.06250
 BRILLOUIN|    37           0.00391       -0.43750        0.06250        0.06250
 BRILLOUIN|    38           0.00391       -0.43750        0.06250        0.18750
 BRILLOUIN|    39           0.00391       -0.43750        0.06250        0.31250
 BRILLOUIN|    40           0.00391       -0.43750        0.06250        0.43750
 BRILLOUIN|    41           0.00391       -0.43750        0.18750       -0.43750
 BRILLOUIN|    42           0.00391       -0.43750        0.18750       -0.31250
 BRILLOUIN|    43           0.00391       -0.43750        0.18750       -0.18750
 BRILLOUIN|    44           0.00391       -0.43750        0.18750       -0.06250
 BRILLOUIN|    45           0.00391       -0.43750        0.18750        0.06250
 BRILLOUIN|    46           0.00391       -0.43750        0.18750        0.18750
 BRILLOUIN|    47           0.00391       -0.43750        0.18750        0.31250
 BRILLOUIN|    48           0.00391       -0.43750        0.18750        0.43750
 BRILLOUIN|    49           0.00391       -0.43750        0.31250       -0.43750
 BRILLOUIN|    50           0.00391       -0.43750        0.31250       -0.31250
 BRILLOUIN|    51           0.00391       -0.43750        0.31250       -0.18750
 BRILLOUIN|    52           0.00391       -0.43750        0.31250       -0.06250
 BRILLOUIN|    53           0.00391       -0.43750        0.31250        0.06250
 BRILLOUIN|    54           0.00391       -0.43750        0.31250        0.18750
 BRILLOUIN|    55           0.00391       -0.43750        0.31250        0.31250
 BRILLOUIN|    56           0.00391       -0.43750        0.31250        0.43750
 BRILLOUIN|    57           0.00391       -0.43750        0.43750       -0.43750
 BRILLOUIN|    58           0.00391       -0.43750        0.43750       -0.31250
 BRILLOUIN|    59           0.00391       -0.43750        0.43750       -0.18750
 BRILLOUIN|    60           0.00391       -0.43750        0.43750       -0.06250
 BRILLOUIN|    61           0.00391       -0.43750        0.43750        0.06250
 BRILLOUIN|    62           0.00391       -0.43750        0.43750        0.18750
 BRILLOUIN|    63           0.00391       -0.43750        0.43750        0.31250
 BRILLOUIN|    64           0.00391       -0.43750        0.43750        0.43750
 BRILLOUIN|    65           0.00391       -0.31250       -0.43750       -0.43750
 BRILLOUIN|    66           0.00391       -0.31250       -0.43750       -0.31250
 BRILLOUIN|    67           0.00391       -0.31250       -0.43750       -0.18750
 BRILLOUIN|    68           0.00391       -0.31250       -0.43750       -0.06250
 BRILLOUIN|    69           0.00391       -0.31250       -0.43750        0.06250
 BRILLOUIN|    70           0.00391       -0.31250       -0.43750        0.18750
 BRILLOUIN|    71           0.00391       -0.31250       -0.43750        0.31250
 BRILLOUIN|    72           0.00391       -0.31250       -0.43750        0.43750
 BRILLOUIN|    73           0.00391       -0.31250       -0.31250       -0.43750
 BRILLOUIN|    74           0.00391       -0.31250       -0.31250       -0.31250
 BRILLOUIN|    75           0.00391       -0.31250       -0.31250       -0.18750
 BRILLOUIN|    76           0.00391       -0.31250       -0.31250       -0.06250
 BRILLOUIN|    77           0.00391       -0.31250       -0.31250        0.06250
 BRILLOUIN|    78           0.00391       -0.31250       -0.31250        0.18750
 BRILLOUIN|    79           0.00391       -0.31250       -0.31250        0.31250
 BRILLOUIN|    80           0.00391       -0.31250       -0.31250        0.43750
 BRILLOUIN|    81           0.00391       -0.31250       -0.18750       -0.43750
 BRILLOUIN|    82           0.00391       -0.31250       -0.18750       -0.31250
 BRILLOUIN|    83           0.00391       -0.31250       -0.18750       -0.18750
 BRILLOUIN|    84           0.00391       -0.31250       -0.18750       -0.06250
 BRILLOUIN|    85           0.00391       -0.31250       -0.18750        0.06250
 BRILLOUIN|    86           0.00391       -0.31250       -0.18750        0.18750
 BRILLOUIN|    87           0.00391       -0.31250       -0.18750        0.31250
 BRILLOUIN|    88           0.00391       -0.31250       -0.18750        0.43750
 BRILLOUIN|    89           0.00391       -0.31250       -0.06250       -0.43750
 BRILLOUIN|    90           0.00391       -0.31250       -0.06250       -0.31250
 BRILLOUIN|    91           0.00391       -0.31250       -0.06250       -0.18750
 BRILLOUIN|    92           0.00391       -0.31250       -0.06250       -0.06250
 BRILLOUIN|    93           0.00391       -0.31250       -0.06250        0.06250
 BRILLOUIN|    94           0.00391       -0.31250       -0.06250        0.18750
 BRILLOUIN|    95           0.00391       -0.31250       -0.06250        0.31250
 BRILLOUIN|    96           0.00391       -0.31250       -0.06250        0.43750
 BRILLOUIN|    97           0.00391       -0.31250        0.06250       -0.43750
 BRILLOUIN|    98           0.00391       -0.31250        0.06250       -0.31250
 BRILLOUIN|    99           0.00391       -0.31250        0.06250       -0.18750
 BRILLOUIN|   100           0.00391       -0.31250        0.06250       -0.06250
 BRILLOUIN|   101           0.00391       -0.31250        0.06250        0.06250
 BRILLOUIN|   102           0.00391       -0.31250        0.06250        0.18750
 BRILLOUIN|   103           0.00391       -0.31250        0.06250        0.31250
 BRILLOUIN|   104           0.00391       -0.31250        0.06250        0.43750
 BRILLOUIN|   105           0.00391       -0.31250        0.18750       -0.43750
 BRILLOUIN|   106           0.00391       -0.31250        0.18750       -0.31250
 BRILLOUIN|   107           0.00391       -0.31250        0.18750       -0.18750
 BRILLOUIN|   108           0.00391       -0.31250        0.18750       -0.06250
 BRILLOUIN|   109           0.00391       -0.31250        0.18750        0.06250
 BRILLOUIN|   110           0.00391       -0.31250        0.18750        0.18750
 BRILLOUIN|   111           0.00391       -0.31250        0.18750        0.31250
 BRILLOUIN|   112           0.00391       -0.31250        0.18750        0.43750
 BRILLOUIN|   113           0.00391       -0.31250        0.31250       -0.43750
 BRILLOUIN|   114           0.00391       -0.31250        0.31250       -0.31250
 BRILLOUIN|   115           0.00391       -0.31250        0.31250       -0.18750
 BRILLOUIN|   116           0.00391       -0.31250        0.31250       -0.06250
 BRILLOUIN|   117           0.00391       -0.31250        0.31250        0.06250
 BRILLOUIN|   118           0.00391       -0.31250        0.31250        0.18750
 BRILLOUIN|   119           0.00391       -0.31250        0.31250        0.31250
 BRILLOUIN|   120           0.00391       -0.31250        0.31250        0.43750
 BRILLOUIN|   121           0.00391       -0.31250        0.43750       -0.43750
 BRILLOUIN|   122           0.00391       -0.31250        0.43750       -0.31250
 BRILLOUIN|   123           0.00391       -0.31250        0.43750       -0.18750
 BRILLOUIN|   124           0.00391       -0.31250        0.43750       -0.06250
 BRILLOUIN|   125           0.00391       -0.31250        0.43750        0.06250
 BRILLOUIN|   126           0.00391       -0.31250        0.43750        0.18750
 BRILLOUIN|   127           0.00391       -0.31250        0.43750        0.31250
 BRILLOUIN|   128           0.00391       -0.31250        0.43750        0.43750
 BRILLOUIN|   129           0.00391       -0.18750       -0.43750       -0.43750
 BRILLOUIN|   130           0.00391       -0.18750       -0.43750       -0.31250
 BRILLOUIN|   131           0.00391       -0.18750       -0.43750       -0.18750
 BRILLOUIN|   132           0.00391       -0.18750       -0.43750       -0.06250
 BRILLOUIN|   133           0.00391       -0.18750       -0.43750        0.06250
 BRILLOUIN|   134           0.00391       -0.18750       -0.43750        0.18750
 BRILLOUIN|   135           0.00391       -0.18750       -0.43750        0.31250
 BRILLOUIN|   136           0.00391       -0.18750       -0.43750        0.43750
 BRILLOUIN|   137           0.00391       -0.18750       -0.31250       -0.43750
 BRILLOUIN|   138           0.00391       -0.18750       -0.31250       -0.31250
 BRILLOUIN|   139           0.00391       -0.18750       -0.31250       -0.18750
 BRILLOUIN|   140           0.00391       -0.18750       -0.31250       -0.06250
 BRILLOUIN|   141           0.00391       -0.18750       -0.31250        0.06250
 BRILLOUIN|   142           0.00391       -0.18750       -0.31250        0.18750
 BRILLOUIN|   143           0.00391       -0.18750       -0.31250        0.31250
 BRILLOUIN|   144           0.00391       -0.18750       -0.31250        0.43750
 BRILLOUIN|   145           0.00391       -0.18750       -0.18750       -0.43750
 BRILLOUIN|   146           0.00391       -0.18750       -0.18750       -0.31250
 BRILLOUIN|   147           0.00391       -0.18750       -0.18750       -0.18750
 BRILLOUIN|   148           0.00391       -0.18750       -0.18750       -0.06250
 BRILLOUIN|   149           0.00391       -0.18750       -0.18750        0.06250
 BRILLOUIN|   150           0.00391       -0.18750       -0.18750        0.18750
 BRILLOUIN|   151           0.00391       -0.18750       -0.18750        0.31250
 BRILLOUIN|   152           0.00391       -0.18750       -0.18750        0.43750
 BRILLOUIN|   153           0.00391       -0.18750       -0.06250       -0.43750
 BRILLOUIN|   154           0.00391       -0.18750       -0.06250       -0.31250
 BRILLOUIN|   155           0.00391       -0.18750       -0.06250       -0.18750
 BRILLOUIN|   156           0.00391       -0.18750       -0.06250       -0.06250
 BRILLOUIN|   157           0.00391       -0.18750       -0.06250        0.06250
 BRILLOUIN|   158           0.00391       -0.18750       -0.06250        0.18750
 BRILLOUIN|   159           0.00391       -0.18750       -0.06250        0.31250
 BRILLOUIN|   160           0.00391       -0.18750       -0.06250        0.43750
 BRILLOUIN|   161           0.00391       -0.18750        0.06250       -0.43750
 BRILLOUIN|   162           0.00391       -0.18750        0.06250       -0.31250
 BRILLOUIN|   163           0.00391       -0.18750        0.06250       -0.18750
 BRILLOUIN|   164           0.00391       -0.18750        0.06250       -0.06250
 BRILLOUIN|   165           0.00391       -0.18750        0.06250        0.06250
 BRILLOUIN|   166           0.00391       -0.18750        0.06250        0.18750
 BRILLOUIN|   167           0.00391       -0.18750        0.06250        0.31250
 BRILLOUIN|   168           0.00391       -0.18750        0.06250        0.43750
 BRILLOUIN|   169           0.00391       -0.18750        0.18750       -0.43750
 BRILLOUIN|   170           0.00391       -0.18750        0.18750       -0.31250
 BRILLOUIN|   171           0.00391       -0.18750        0.18750       -0.18750
 BRILLOUIN|   172           0.00391       -0.18750        0.18750       -0.06250
 BRILLOUIN|   173           0.00391       -0.18750        0.18750        0.06250
 BRILLOUIN|   174           0.00391       -0.18750        0.18750        0.18750
 BRILLOUIN|   175           0.00391       -0.18750        0.18750        0.31250
 BRILLOUIN|   176           0.00391       -0.18750        0.18750        0.43750
 BRILLOUIN|   177           0.00391       -0.18750        0.31250       -0.43750
 BRILLOUIN|   178           0.00391       -0.18750        0.31250       -0.31250
 BRILLOUIN|   179           0.00391       -0.18750        0.31250       -0.18750
 BRILLOUIN|   180           0.00391       -0.18750        0.31250       -0.06250
 BRILLOUIN|   181           0.00391       -0.18750        0.31250        0.06250
 BRILLOUIN|   182           0.00391       -0.18750        0.31250        0.18750
 BRILLOUIN|   183           0.00391       -0.18750        0.31250        0.31250
 BRILLOUIN|   184           0.00391       -0.18750        0.31250        0.43750
 BRILLOUIN|   185           0.00391       -0.18750        0.43750       -0.43750
 BRILLOUIN|   186           0.00391       -0.18750        0.43750       -0.31250
 BRILLOUIN|   187           0.00391       -0.18750        0.43750       -0.18750
 BRILLOUIN|   188           0.00391       -0.18750        0.43750       -0.06250
 BRILLOUIN|   189           0.00391       -0.18750        0.43750        0.06250
 BRILLOUIN|   190           0.00391       -0.18750        0.43750        0.18750
 BRILLOUIN|   191           0.00391       -0.18750        0.43750        0.31250
 BRILLOUIN|   192           0.00391       -0.18750        0.43750        0.43750
 BRILLOUIN|   193           0.00391       -0.06250       -0.43750       -0.43750
 BRILLOUIN|   194           0.00391       -0.06250       -0.43750       -0.31250
 BRILLOUIN|   195           0.00391       -0.06250       -0.43750       -0.18750
 BRILLOUIN|   196           0.00391       -0.06250       -0.43750       -0.06250
 BRILLOUIN|   197           0.00391       -0.06250       -0.43750        0.06250
 BRILLOUIN|   198           0.00391       -0.06250       -0.43750        0.18750
 BRILLOUIN|   199           0.00391       -0.06250       -0.43750        0.31250
 BRILLOUIN|   200           0.00391       -0.06250       -0.43750        0.43750
 BRILLOUIN|   201           0.00391       -0.06250       -0.31250       -0.43750
 BRILLOUIN|   202           0.00391       -0.06250       -0.31250       -0.31250
 BRILLOUIN|   203           0.00391       -0.06250       -0.31250       -0.18750
 BRILLOUIN|   204           0.00391       -0.06250       -0.31250       -0.06250
 BRILLOUIN|   205           0.00391       -0.06250       -0.31250        0.06250
 BRILLOUIN|   206           0.00391       -0.06250       -0.31250        0.18750
 BRILLOUIN|   207           0.00391       -0.06250       -0.31250        0.31250
 BRILLOUIN|   208           0.00391       -0.06250       -0.31250        0.43750
 BRILLOUIN|   209           0.00391       -0.06250       -0.18750       -0.43750
 BRILLOUIN|   210           0.00391       -0.06250       -0.18750       -0.31250
 BRILLOUIN|   211           0.00391       -0.06250       -0.18750       -0.18750
 BRILLOUIN|   212           0.00391       -0.06250       -0.18750       -0.06250
 BRILLOUIN|   213           0.00391       -0.06250       -0.18750        0.06250
 BRILLOUIN|   214           0.00391       -0.06250       -0.18750        0.18750
 BRILLOUIN|   215           0.00391       -0.06250       -0.18750        0.31250
 BRILLOUIN|   216           0.00391       -0.06250       -0.18750        0.43750
 BRILLOUIN|   217           0.00391       -0.06250       -0.06250       -0.43750
 BRILLOUIN|   218           0.00391       -0.06250       -0.06250       -0.31250
 BRILLOUIN|   219           0.00391       -0.06250       -0.06250       -0.18750
 BRILLOUIN|   220           0.00391       -0.06250       -0.06250       -0.06250
 BRILLOUIN|   221           0.00391       -0.06250       -0.06250        0.06250
 BRILLOUIN|   222           0.00391       -0.06250       -0.06250        0.18750
 BRILLOUIN|   223           0.00391       -0.06250       -0.06250        0.31250
 BRILLOUIN|   224           0.00391       -0.06250       -0.06250        0.43750
 BRILLOUIN|   225           0.00391       -0.06250        0.06250       -0.43750
 BRILLOUIN|   226           0.00391       -0.06250        0.06250       -0.31250
 BRILLOUIN|   227           0.00391       -0.06250        0.06250       -0.18750
 BRILLOUIN|   228           0.00391       -0.06250        0.06250       -0.06250
 BRILLOUIN|   229           0.00391       -0.06250        0.06250        0.06250
 BRILLOUIN|   230           0.00391       -0.06250        0.06250        0.18750
 BRILLOUIN|   231           0.00391       -0.06250        0.06250        0.31250
 BRILLOUIN|   232           0.00391       -0.06250        0.06250        0.43750
 BRILLOUIN|   233           0.00391       -0.06250        0.18750       -0.43750
 BRILLOUIN|   234           0.00391       -0.06250        0.18750       -0.31250
 BRILLOUIN|   235           0.00391       -0.06250        0.18750       -0.18750
 BRILLOUIN|   236           0.00391       -0.06250        0.18750       -0.06250
 BRILLOUIN|   237           0.00391       -0.06250        0.18750        0.06250
 BRILLOUIN|   238           0.00391       -0.06250        0.18750        0.18750
 BRILLOUIN|   239           0.00391       -0.06250        0.18750        0.31250
 BRILLOUIN|   240           0.00391       -0.06250        0.18750        0.43750
 BRILLOUIN|   241           0.00391       -0.06250        0.31250       -0.43750
 BRILLOUIN|   242           0.00391       -0.06250        0.31250       -0.31250
 BRILLOUIN|   243           0.00391       -0.06250        0.31250       -0.18750
 BRILLOUIN|   244           0.00391       -0.06250        0.31250       -0.06250
 BRILLOUIN|   245           0.00391       -0.06250        0.31250        0.06250
 BRILLOUIN|   246           0.00391       -0.06250        0.31250        0.18750
 BRILLOUIN|   247           0.00391       -0.06250        0.31250        0.31250
 BRILLOUIN|   248           0.00391       -0.06250        0.31250        0.43750
 BRILLOUIN|   249           0.00391       -0.06250        0.43750       -0.43750
 BRILLOUIN|   250           0.00391       -0.06250        0.43750       -0.31250
 BRILLOUIN|   251           0.00391       -0.06250        0.43750       -0.18750
 BRILLOUIN|   252           0.00391       -0.06250        0.43750       -0.06250
 BRILLOUIN|   253           0.00391       -0.06250        0.43750        0.06250
 BRILLOUIN|   254           0.00391       -0.06250        0.43750        0.18750
 BRILLOUIN|   255           0.00391       -0.06250        0.43750        0.31250
 BRILLOUIN|   256           0.00391       -0.06250        0.43750        0.43750
 *******************************************************************************

 *******************************************************************************
 *******************************************************************************
 **                                                                           **
 **     #####                         ##              ##                      **
 **    ##   ##            ##          ##              ##                      **
 **   ##     ##                       ##            ######                    **
 **   ##     ##  ##   ##  ##   #####  ##  ##   ####   ##    #####    #####    **
 **   ##     ##  ##   ##  ##  ##      ## ##   ##      ##   ##   ##  ##   ##   **
 **   ##  ## ##  ##   ##  ##  ##      ####     ###    ##   ######   ######    **
 **    ##  ###   ##   ##  ##  ##      ## ##      ##   ##   ##       ##        **
 **     #######   #####   ##   #####  ##  ##  ####    ##    #####   ##        **
 **           ##                                                    ##        **
 **                                                                           **
 **                                                ... make the atoms dance   **
 **                                                                           **
 **            Copyright (C) by CP2K developers group (2000-2025)             **
 **                      J. Chem. Phys. 152, 194103 (2020)                    **
 **                                                                           **
 *******************************************************************************

 DFT| Spin restricted Kohn-Sham (RKS) calculation                            RKS
 DFT| Multiplicity                                                             1
 DFT| Number of spin states                                                    1
 DFT| Charge                                                                   0
 DFT| Self-interaction correction (SIC)                                       NO
 DFT| Cutoffs: density                                              1.000000E-10
 DFT|          gradient                                             1.000000E-10
 DFT|          tau                                                  1.000000E-10
 DFT|          cutoff_smoothing_range                               0.000000E+00
 DFT| XC density smoothing                                                  NONE
 DFT| XC derivatives                                                          PW

 FUNCTIONAL| PBE:
 FUNCTIONAL| J.P.Perdew, K.Burke, M.Ernzerhof, Phys. Rev. Letter, vol. 77, n 18,
 FUNCTIONAL|  pp. 3865-3868, (1996) {spin unpolarized}                          


 QS| Method:                                                                 GPW
 QS| Density plane wave grid type                        NON-SPHERICAL FULLSPACE
 QS| Number of grid levels:                                                    4
 QS| Density cutoff [a.u.]:                                                500.0
 QS| Multi grid cutoff [a.u.]: 1) grid level                               500.0
 QS|                           2) grid level                               166.7
 QS|                           3) grid level                                55.6
 QS|                           4) grid level                                18.5
 QS| Grid level progression factor:                                          3.0
 QS| Relative density cutoff [a.u.]:                                        50.0
 QS| Interaction thresholds: eps_pgf_orb:                                1.0E-16
 QS|                         eps_filter_matrix:                          0.0E+00
 QS|                         eps_core_charge:                            1.0E-18
 QS|                         eps_rho_gspace:                             1.0E-16
 QS|                         eps_rho_rspace:                             1.0E-16
 QS|                         eps_gvg_rspace:                             1.0E-08
 QS|                         eps_ppl:                                    1.0E-02
 QS|                         eps_ppnl:                                   1.0E-10


 ATOMIC KIND INFORMATION

  1. Atomic kind: Cl                                    Number of atoms:       8

     Orbital Basis Set                                   TZV2P-MOLOPT-GGA-GTH-q7

       Number of orbital shell sets:                                           1
       Number of orbital shells:                                               9
       Number of primitive Cartesian functions:                                4
       Number of Cartesian basis functions:                                   34
       Number of spherical basis functions:                                   29
       Norm type:                                                              2

       Normalised Cartesian orbitals:

                        Set   Shell   Orbital            Exponent    Coefficient

                          1       1    2s                1.998248       0.474127
                                                         1.503631      -0.298602
                                                         0.406509      -0.170002
                                                         0.128538      -0.091923

                          1       2    3s                1.998248       0.878043
                                                         1.503631      -0.090105
                                                         0.406509      -0.545023
                                                         0.128538       0.260422

                          1       3    4s                1.998248       0.030172
                                                         1.503631      -1.270839
                                                         0.406509       0.168869
                                                         0.128538       0.050189

                          1       4    3px               1.998248       1.035211
                                                         1.503631      -1.044903
                                                         0.406509      -0.274741
                                                         0.128538      -0.041581
                          1       4    3py               1.998248       1.035211
                                                         1.503631      -1.044903
                                                         0.406509      -0.274741
                                                         0.128538      -0.041581
                          1       4    3pz               1.998248       1.035211
                                                         1.503631      -1.044903
                                                         0.406509      -0.274741
                                                         0.128538      -0.041581

                          1       5    4px               1.998248       0.846287
                                                         1.503631      -0.665007
                                                         0.406509      -0.214639
                                                         0.128538       0.137550
                          1       5    4py               1.998248       0.846287
                                                         1.503631      -0.665007
                                                         0.406509      -0.214639
                                                         0.128538       0.137550
                          1       5    4pz               1.998248       0.846287
                                                         1.503631      -0.665007
                                                         0.406509      -0.214639
                                                         0.128538       0.137550

                          1       6    5px               1.998248      -1.228895
                                                         1.503631      -1.929331
                                                         0.406509       0.181784
                                                         0.128538       0.003953
                          1       6    5py               1.998248      -1.228895
                                                         1.503631      -1.929331
                                                         0.406509       0.181784
                                                         0.128538       0.003953
                          1       6    5pz               1.998248      -1.228895
                                                         1.503631      -1.929331
                                                         0.406509       0.181784
                                                         0.128538       0.003953

                          1       7    4dx2              1.998248       0.400992
                                                         1.503631       0.768662
                                                         0.406509       0.256895
                                                         0.128538       0.005608
                          1       7    4dxy              1.998248       0.694538
                                                         1.503631       1.331361
                                                         0.406509       0.444955
                                                         0.128538       0.009714
                          1       7    4dxz              1.998248       0.694538
                                                         1.503631       1.331361
                                                         0.406509       0.444955
                                                         0.128538       0.009714
                          1       7    4dy2              1.998248       0.400992
                                                         1.503631       0.768662
                                                         0.406509       0.256895
                                                         0.128538       0.005608
                          1       7    4dyz              1.998248       0.694538
                                                         1.503631       1.331361
                                                         0.406509       0.444955
                                                         0.128538       0.009714
                          1       7    4dz2              1.998248       0.400992
                                                         1.503631       0.768662
                                                         0.406509       0.256895
                                                         0.128538       0.005608

                          1       8    5dx2              1.998248      -1.963226
                                                         1.503631       5.042957
                                                         0.406509      -0.158524
                                                         0.128538       0.012321
                          1       8    5dxy              1.998248      -3.400407
                                                         1.503631       8.734658
                                                         0.406509      -0.274571
                                                         0.128538       0.021341
                          1       8    5dxz              1.998248      -3.400407
                                                         1.503631       8.734658
                                                         0.406509      -0.274571
                                                         0.128538       0.021341
                          1       8    5dy2              1.998248      -1.963226
                                                         1.503631       5.042957
                                                         0.406509      -0.158524
                                                         0.128538       0.012321
                          1       8    5dyz              1.998248      -3.400407
                                                         1.503631       8.734658
                                                         0.406509      -0.274571
                                                         0.128538       0.021341
                          1       8    5dz2              1.998248      -1.963226
                                                         1.503631       5.042957
                                                         0.406509      -0.158524
                                                         0.128538       0.012321

                          1       9    5fx3              1.998248      -0.939013
                                                         1.503631       1.405782
                                                         0.406509       0.163556
                                                         0.128538       0.000428
                          1       9    5fx2y             1.998248      -2.099697
                                                         1.503631       3.143425
                                                         0.406509       0.365723
                                                         0.128538       0.000958
                          1       9    5fx2z             1.998248      -2.099697
                                                         1.503631       3.143425
                                                         0.406509       0.365723
                                                         0.128538       0.000958
                          1       9    5fxy2             1.998248      -2.099697
                                                         1.503631       3.143425
                                                         0.406509       0.365723
                                                         0.128538       0.000958
                          1       9    5fxyz             1.998248      -3.636782
                                                         1.503631       5.444571
                                                         0.406509       0.633451
                                                         0.128538       0.001659
                          1       9    5fxz2             1.998248      -2.099697
                                                         1.503631       3.143425
                                                         0.406509       0.365723
                                                         0.128538       0.000958
                          1       9    5fy3              1.998248      -0.939013
                                                         1.503631       1.405782
                                                         0.406509       0.163556
                                                         0.128538       0.000428
                          1       9    5fy2z             1.998248      -2.099697
                                                         1.503631       3.143425
                                                         0.406509       0.365723
                                                         0.128538       0.000958
                          1       9    5fyz2             1.998248      -2.099697
                                                         1.503631       3.143425
                                                         0.406509       0.365723
                                                         0.128538       0.000958
                          1       9    5fz3              1.998248      -0.939013
                                                         1.503631       1.405782
                                                         0.406509       0.163556
                                                         0.128538       0.000428

       Atomic covalent radius [Angstrom]:                                  0.990

       Atomic van der Waals radius [Angstrom]:                             1.750

     GTH Potential information for                                    GTH-PBE-q7

       Description:                       Goedecker-Teter-Hutter pseudopotential
                                           Goedecker et al., PRB 54, 1703 (1996)
                                          Hartwigsen et al., PRB 58, 3641 (1998)
                                                      Krack, TCA 114, 145 (2005)

       Gaussian exponent of the core charge distribution:               2.974420
       Electronic configuration (s p d ...):                               2   5

       Parameters of the local part of the GTH pseudopotential:

                          rloc        C1          C2          C3          C4
                        0.410000   -6.392082

       Parameters of the non-local part of the GTH (SOC) pseudopotential:

                   l      r(l)      h(i,j,l)
                                    k(i,j,l)
                   0    0.339539   15.218990   -4.934523
                                   -4.934523    6.370442
                   1    0.378474    4.338775    0.000000
                                    0.000000    0.000000
                                    0.045289   -0.032578
                                   -0.032578    0.038547


 MOLECULE KIND INFORMATION


 All atoms are their own molecule, skipping detailed information


 TOTAL NUMBERS AND MAXIMUM NUMBERS

  Total number of            - Atomic kinds:                                   1
                             - Atoms:                                          8
                             - Shell sets:                                     8
                             - Shells:                                        72
                             - Primitive Cartesian functions:                 32
                             - Cartesian basis functions:                    272
                             - Spherical basis functions:                    232

  Maximum angular momentum of- Orbital basis functions:                        3
                             - Local part of the GTH pseudopotential:          0
                             - Non-local part of the GTH pseudopotential:      3


 MODULE QUICKSTEP: ATOMIC COORDINATES IN ANGSTROM

   Atom Kind Element         X             Y             Z       Z(eff)     Mass
      1    1 Cl   17      0.000000      1.778126      8.111064   7.0000  35.4530
      2    1 Cl   17      0.000000      0.396579      3.597294   7.0000  35.4530
      3    1 Cl   17      0.000000      3.952831      5.430246   7.0000  35.4530
      4    1 Cl   17      0.000000      2.571284      0.916476   7.0000  35.4530
      5    1 Cl   17      3.889375      3.952831      8.111064   7.0000  35.4530
      6    1 Cl   17      3.889375      2.571284      3.597294   7.0000  35.4530
      7    1 Cl   17      3.889375      1.778126      5.430246   7.0000  35.4530
      8    1 Cl   17      3.889375      0.396579      0.916476   7.0000  35.4530



 SCF PARAMETERS         Density guess:                                    ATOMIC
                        --------------------------------------------------------
                        max_scf:                                             500
                        max_scf_history:                                       0
                        max_diis:                                              4
                        --------------------------------------------------------
                        eps_scf:                                        1.00E-09
                        eps_scf_history:                                0.00E+00
                        eps_diis:                                       1.00E-01
                        eps_eigval:                                     1.00E-05
                        --------------------------------------------------------
                        level_shift [a.u.]:                             0.000000
                        added MOs                                       204    0
                        --------------------------------------------------------
                        Mixing method:                            BROYDEN_MIXING
                                                charge density mixing in g-space
                        --------------------------------------------------------
                        No outer SCF

 PW_GRID| Information for grid number                                          1
 PW_GRID| Grid distributed over                                     8 processors
 PW_GRID| Real space group dimensions                                     8    1
 PW_GRID| the grid is blocked:                                                NO
 PW_GRID| Cutoff [a.u.]                                                    500.0
 PW_GRID| spherical cutoff:                                                   NO
 PW_GRID|   Bounds   1            -75      74                Points:         150
 PW_GRID|   Bounds   2            -45      44                Points:          90
 PW_GRID|   Bounds   3            -90      89                Points:         180
 PW_GRID| Volume element (a.u.^3)  0.8482E-03     Volume (a.u.^3)      2061.1338
 PW_GRID| Grid span                                                    FULLSPACE
 PW_GRID|   Distribution                         Average         Max         Min
 PW_GRID|   G-Vectors                           303750.0      303750      303750
 PW_GRID|   G-Rays                                2025.0        2025        2025
 PW_GRID|   Real Space Points                   303750.0      307800      291600

 PW_GRID| Information for grid number                                          2
 PW_GRID| Number of the reference grid                                         1
 PW_GRID| Grid distributed over                                     8 processors
 PW_GRID| Real space group dimensions                                     8    1
 PW_GRID| the grid is blocked:                                                NO
 PW_GRID| Cutoff [a.u.]                                                    166.7
 PW_GRID| spherical cutoff:                                                   NO
 PW_GRID|   Bounds   1            -45      44                Points:          90
 PW_GRID|   Bounds   2            -24      23                Points:          48
 PW_GRID|   Bounds   3            -50      49                Points:         100
 PW_GRID| Volume element (a.u.^3)  0.4771E-02     Volume (a.u.^3)      2061.1338
 PW_GRID| Grid span                                                    FULLSPACE
 PW_GRID|   Distribution                         Average         Max         Min
 PW_GRID|   G-Vectors                            54000.0       54090       53910
 PW_GRID|   G-Rays                                 600.0         601         599
 PW_GRID|   Real Space Points                    54000.0       57600       52800

 PW_GRID| Information for grid number                                          3
 PW_GRID| Number of the reference grid                                         1
 PW_GRID| Grid distributed over                                     8 processors
 PW_GRID| Real space group dimensions                                     8    1
 PW_GRID| the grid is blocked:                                                NO
 PW_GRID| Cutoff [a.u.]                                                     55.6
 PW_GRID| spherical cutoff:                                                   NO
 PW_GRID|   Bounds   1            -27      26                Points:          54
 PW_GRID|   Bounds   2            -13      13                Points:          27
 PW_GRID|   Bounds   3            -30      29                Points:          60
 PW_GRID| Volume element (a.u.^3)  0.2356E-01     Volume (a.u.^3)      2061.1338
 PW_GRID| Grid span                                                    FULLSPACE
 PW_GRID|   Distribution                         Average         Max         Min
 PW_GRID|   G-Vectors                            10935.0       11070       10854
 PW_GRID|   G-Rays                                 202.5         205         201
 PW_GRID|   Real Space Points                    10935.0       11340        9720

 PW_GRID| Information for grid number                                          4
 PW_GRID| Number of the reference grid                                         1
 PW_GRID| Grid distributed over                                     8 processors
 PW_GRID| Real space group dimensions                                     8    1
 PW_GRID| the grid is blocked:                                                NO
 PW_GRID| Cutoff [a.u.]                                                     18.5
 PW_GRID| spherical cutoff:                                                   NO
 PW_GRID|   Bounds   1            -15      14                Points:          30
 PW_GRID|   Bounds   2             -7       7                Points:          15
 PW_GRID|   Bounds   3            -18      17                Points:          36
 PW_GRID| Volume element (a.u.^3)  0.1272         Volume (a.u.^3)      2061.1338
 PW_GRID| Grid span                                                    FULLSPACE
 PW_GRID|   Distribution                         Average         Max         Min
 PW_GRID|   G-Vectors                             2025.0        2070        1980
 PW_GRID|   G-Rays                                  67.5          69          66
 PW_GRID|   Real Space Points                     2025.0        2160        1620

 POISSON| Solver                                                        PERIODIC
 POISSON| Periodicity                                                        XYZ

 RS_GRID| Information for grid number                                          1
 RS_GRID|   Bounds   1            -75      74                Points:         150
 RS_GRID|   Bounds   2            -45      44                Points:          90
 RS_GRID|   Bounds   3            -90      89                Points:         180
 RS_GRID| Real space fully replicated
 RS_GRID| Group size                                                           1

 RS_GRID| Information for grid number                                          2
 RS_GRID|   Bounds   1            -45      44                Points:          90
 RS_GRID|   Bounds   2            -24      23                Points:          48
 RS_GRID|   Bounds   3            -50      49                Points:         100
 RS_GRID| Real space fully replicated
 RS_GRID| Group size                                                           1

 RS_GRID| Information for grid number                                          3
 RS_GRID|   Bounds   1            -27      26                Points:          54
 RS_GRID|   Bounds   2            -13      13                Points:          27
 RS_GRID|   Bounds   3            -30      29                Points:          60
 RS_GRID| Real space fully replicated
 RS_GRID| Group size                                                           1

 RS_GRID| Information for grid number                                          4
 RS_GRID|   Bounds   1            -15      14                Points:          30
 RS_GRID|   Bounds   2             -7       7                Points:          15
 RS_GRID|   Bounds   3            -18      17                Points:          36
 RS_GRID| Real space fully replicated
 RS_GRID| Group size                                                           1

 Number of electrons:                                                         56
 Number of occupied orbitals:                                                 28
 Number of molecular orbitals:                                               232

 Number of orbital functions:                                                232
 Number of independent orbital functions:                                    232

 Extrapolation method: initial_guess

 Atomic guess: The first density matrix is obtained in terms of atomic orbitals
               and electronic configurations assigned to each atomic kind

 Guess for atomic kind: Cl

 Electronic structure
    Total number of core electrons                                         10.00
    Total number of valence electrons                                       7.00
    Total number of electrons                                              17.00
    Multiplicity                                                   not specified
    S   [  2.00  2.00] 2.00
    P   [  6.00] 5.00


 *******************************************************************************
                  Iteration          Convergence                     Energy [au]
 *******************************************************************************
                          1        0.208089E-01                 -14.773320101138
                          2        0.243606E-01                 -14.773410002515
                          3        0.550542E-03                 -14.773524715662
                          4        0.344941E-05                 -14.773524798586
                          5        0.294775E-08                 -14.773524798590

 Energy components [Hartree]           Total Energy ::          -14.773524798590
                                        Band Energy ::           -2.980776881878
                                     Kinetic Energy ::            5.566515785971
                                   Potential Energy ::          -20.340040584560
                                      Virial (-V/T) ::            3.653998545342
                                        Core Energy ::          -24.668631112100
                                          XC Energy ::           -2.741060233278
                                     Coulomb Energy ::           12.636166546788
                       Total Pseudopotential Energy ::          -30.294508164425
                       Local Pseudopotential Energy ::          -33.426860972217
                    Nonlocal Pseudopotential Energy ::            3.132352807792
                                        Confinement ::            0.593612663544

 Orbital energies  State     L     Occupation   Energy[a.u.]          Energy[eV]

                       1     0          2.000      -0.742654          -20.208632

                       1     1          5.000      -0.299094           -8.138760


 Total Electron Density at R=0:                                         0.000307
 Re-scaling the density matrix to get the right number of electrons
                  # Electrons              Trace(P)               Scaling factor
                           56                56.000                        1.000


 SCF WAVEFUNCTION OPTIMIZATION

  Step     Update method      Time    Convergence         Total energy    Change
  ------------------------------------------------------------------------------
     1 NoMix/Diag. 0.50E-01    4.0     0.76058606      -120.0857901794 -1.20E+02
     2 Broy./Diag. 0.50E-01    3.9     0.00091811      -119.8756708543  2.10E-01
     3 Broy./Diag. 0.50E-01    3.9     0.02198926      -119.7866436158  8.90E-02
     4 Broy./Diag. 0.50E-01    3.9     0.00023099      -119.8729884176 -8.63E-02
     5 Broy./Diag. 0.50E-01    3.9     0.00305481      -119.8017508409  7.12E-02
     6 Broy./Diag. 0.50E-01    3.9     0.00007239      -119.7707374369  3.10E-02
     7 Broy./Diag. 0.50E-01    3.9     0.00178825      -119.7765738211 -5.84E-03
     8 Broy./Diag. 0.50E-01    3.9     0.00006774      -119.7660629070  1.05E-02
     9 Broy./Diag. 0.50E-01    3.9     0.00085362      -119.7694442164 -3.38E-03
    10 Broy./Diag. 0.50E-01    3.9     0.00008451      -119.7654842976  3.96E-03
    11 Broy./Diag. 0.50E-01    3.9     0.00017935      -119.7616297742  3.85E-03
    12 Broy./Diag. 0.50E-01    3.9     0.00010857      -119.7563117827  5.32E-03
    13 Broy./Diag. 0.50E-01    3.9     0.00000445      -119.7543910928  1.92E-03
    14 Broy./Diag. 0.50E-01    3.9     0.00005510      -119.7547223419 -3.31E-04
    15 Broy./Diag. 0.50E-01    3.9     0.00000061      -119.7552688543 -5.47E-04
    16 Broy./Diag. 0.50E-01    3.9     0.00000818      -119.7554482605 -1.79E-04
    17 Broy./Diag. 0.50E-01    3.9     0.00000043      -119.7553953523  5.29E-05
    18 Broy./Diag. 0.50E-01    3.9     0.00000932      -119.7554097894 -1.44E-05
    19 Broy./Diag. 0.50E-01    3.9     0.00000081      -119.7555813066 -1.72E-04
    20 Broy./Diag. 0.50E-01    3.9     0.00000386      -119.7555790804  2.23E-06
    21 Broy./Diag. 0.50E-01    3.9     0.00000041      -119.7556064316 -2.74E-05
    22 Broy./Diag. 0.50E-01    3.9     0.00000150      -119.7556233282 -1.69E-05
    23 Broy./Diag. 0.50E-01    3.9     0.00000024      -119.7556579208 -3.46E-05
    24 Broy./Diag. 0.50E-01    3.9     0.00000065      -119.7556732922 -1.54E-05
    25 Broy./Diag. 0.50E-01    3.9     0.00000034      -119.7556811309 -7.84E-06
    26 Broy./Diag. 0.50E-01    4.0     0.00000013      -119.7556763708  4.76E-06
    27 Broy./Diag. 0.50E-01    3.9     0.00000048      -119.7556705970  5.77E-06
    28 Broy./Diag. 0.50E-01    3.9     0.00000039      -119.7556704480  1.49E-07
    29 Broy./Diag. 0.50E-01    3.9     0.00000020      -119.7556659934  4.45E-06
    30 Broy./Diag. 0.50E-01    4.0     0.00000045      -119.7556632794  2.71E-06
    31 Broy./Diag. 0.50E-01    3.9     0.00000012      -119.7556637248 -4.45E-07
    32 Broy./Diag. 0.50E-01    3.9     0.00000022      -119.7556629560  7.69E-07
    33 Broy./Diag. 0.50E-01    3.9     0.00000007      -119.7556618431  1.11E-06
    34 Broy./Diag. 0.50E-01    3.9     0.00000023      -119.7556570654  4.78E-06
    35 Broy./Diag. 0.50E-01    3.9     0.00000004      -119.7556567767  2.89E-07
    36 Broy./Diag. 0.50E-01    3.9     0.00000018      -119.7556611880 -4.41E-06
    37 Broy./Diag. 0.50E-01    4.0     0.00000005      -119.7556658913 -4.70E-06
    38 Broy./Diag. 0.50E-01    3.9     0.00000008      -119.7556668401 -9.49E-07
    39 Broy./Diag. 0.50E-01    3.9     0.00000015      -119.7556681150 -1.27E-06
    40 Broy./Diag. 0.50E-01    3.9     0.00000004      -119.7556715486 -3.43E-06
    41 Broy./Diag. 0.50E-01    3.9     0.00000015      -119.7556718411 -2.93E-07
    42 Broy./Diag. 0.50E-01    3.9     0.00000003      -119.7556723246 -4.83E-07
    43 Broy./Diag. 0.50E-01    3.9     0.00000010      -119.7556731798 -8.55E-07
    44 Broy./Diag. 0.50E-01    3.9     0.00000002      -119.7556744320 -1.25E-06
    45 Broy./Diag. 0.50E-01    4.0     0.00000002      -119.7556743504  8.16E-08
    46 Broy./Diag. 0.50E-01    3.9     0.00000004      -119.7556732226  1.13E-06
    47 Broy./Diag. 0.50E-01    3.9     0.00000002      -119.7556722935  9.29E-07
    48 Broy./Diag. 0.50E-01    3.9     0.00000004      -119.7556722067  8.68E-08
    49 Broy./Diag. 0.50E-01    3.9     7.9622E-09      -119.7556728374 -6.31E-07
    50 Broy./Diag. 0.50E-01    4.0     4.3065E-09      -119.7556727647  7.26E-08
    51 Broy./Diag. 0.50E-01    3.9     0.00000001      -119.7556727712 -6.42E-09
    52 Broy./Diag. 0.50E-01    3.9     9.3944E-09      -119.7556729095 -1.38E-07
    53 Broy./Diag. 0.50E-01    3.9     0.00000002      -119.7556730688 -1.59E-07
    54 Broy./Diag. 0.50E-01    3.9     1.3028E-09      -119.7556732415 -1.73E-07
    55 Broy./Diag. 0.50E-01    3.9     3.1615E-09      -119.7556732673 -2.58E-08
    56 Broy./Diag. 0.50E-01    3.9     4.8718E-09      -119.7556734302 -1.63E-07
    57 Broy./Diag. 0.50E-01    3.9     1.4474E-09      -119.7556735509 -1.21E-07
    58 Broy./Diag. 0.50E-01    3.9     2.7785E-09      -119.7556735312  1.96E-08
    59 Broy./Diag. 0.50E-01    3.9     7.9162E-10      -119.7556734405  9.07E-08

  *** SCF run converged in    59 steps ***


  Electronic density on regular grids:        -56.0000000000        0.0000000000
  Core density on regular grids:               56.0000000000        0.0000000000
  Total charge density on r-space grids:        0.0000000000
  Total charge density g-space grids:           0.0000000000

  Overlap energy of the core charge distribution:               0.00000000392585
  Self energy of the core charge distribution:               -269.71014237892746
  Core Hamiltonian energy:                                     61.56749048532415
  Hartree energy:                                             111.48252568641168
  Exchange-correlation energy:                                -23.09554723725300

  Total energy:                                              -119.75567344051879

 !-----------------------------------------------------------------------------!
                     Mulliken Population Analysis

 #  Atom  Element  Kind  Atomic population                           Net charge
       1     Cl       1          7.000000                             -0.000000
       2     Cl       1          7.000000                             -0.000000
       3     Cl       1          7.000000                              0.000000
       4     Cl       1          7.000000                              0.000000
       5     Cl       1          7.000000                             -0.000000
       6     Cl       1          7.000000                             -0.000000
       7     Cl       1          7.000000                             -0.000000
       8     Cl       1          7.000000                             -0.000000
 # Total charge                             56.000000                 -0.000000

 !-----------------------------------------------------------------------------!

 !-----------------------------------------------------------------------------!
                           Hirshfeld Charges

  #Atom  Element  Kind  Ref Charge     Population                    Net charge
      1       Cl     1       7.000          7.000                         0.000
      2       Cl     1       7.000          7.000                         0.000
      3       Cl     1       7.000          7.000                         0.000
      4       Cl     1       7.000          7.000                         0.000
      5       Cl     1       7.000          7.000                        -0.000
      6       Cl     1       7.000          7.000                        -0.000
      7       Cl     1       7.000          7.000                        -0.000
      8       Cl     1       7.000          7.000                        -0.000

  Total Charge                                                           -0.000
 !-----------------------------------------------------------------------------!

 KPOINTS| Band Structure Calculation
 KPOINTS| Number of k-point sets                                               1
 KPOINTS| Number of added MOs/bands                                           -1
 KPOINTS| Number of k-points in set    1                                     148
 KPOINTS| In units of b-vector [2pi/Bohr]
 KPOINTS| Special point     1 not specifi     0.000000     0.000000     0.000000
 KPOINTS| Special point     2 not specifi     0.500000     0.500000     0.000000
 KPOINTS| Special point     3 not specifi     0.328159     0.671841     0.000000
 KPOINTS| Special point     4 not specifi     0.000000     0.000000     0.000000
 KPOINTS| Time for k-point line                                            2.283

 ENERGY| Total FORCE_EVAL ( QS ) energy [hartree]           -119.755673440518791

 -------------------------------------------------------------------------------
 -                                                                             -
 -                                DBCSR STATISTICS                             -
 -                                                                             -
 -------------------------------------------------------------------------------
 COUNTER                                    TOTAL       BLAS       SMM       ACC
 flops inhomo. stacks                           0       0.0%      0.0%      0.0%
 flops total                         0.000000E+00       0.0%      0.0%      0.0%
 flops max/rank                      0.000000E+00       0.0%      0.0%      0.0%
 matmuls inhomo. stacks                         0       0.0%      0.0%      0.0%
 matmuls total                                  0       0.0%      0.0%      0.0%
 number of processed stacks                     0       0.0%      0.0%      0.0%
 average stack size                                     0.0       0.0       0.0
 marketing flops                     0.000000E+00
 -------------------------------------------------------------------------------
 -                                                                             -
 -                      DBCSR MESSAGE PASSING PERFORMANCE                      -
 -                                                                             -
 -------------------------------------------------------------------------------
 ROUTINE             CALLS      AVE VOLUME [Bytes]
 MP_Bcast                1                     12.
 MP_Allreduce           19                     21.
 MP_Alltoall       1254784                  27487.
 -------------------------------------------------------------------------------

 -------------------------------------------------------------------------------
 -                                                                             -
 -                                DBM STATISTICS                               -
 -                                                                             -
 -------------------------------------------------------------------------------
    M  x    N  x    K                                          COUNT     PERCENT
 -------------------------------------------------------------------------------

 -------------------------------------------------------------------------------
 -                                                                             -
 -                                GRID STATISTICS                              -
 -                                                                             -
 -------------------------------------------------------------------------------
 LP    KERNEL             BACKEND                              COUNT     PERCENT
 6     collocate ortho    CPU                                 401520      50.42%
 6     integrate ortho    CPU                                 394828      49.58%
 0     collocate general  CPU                                     16       0.00%
 0     integrate general  CPU                                      8       0.00%
 -------------------------------------------------------------------------------

 MEMORY| Estimated peak process memory [MiB]                                 876

 -------------------------------------------------------------------------------
 ----                             MULTIGRID INFO                            ----
 -------------------------------------------------------------------------------
 count for grid        1:           8032          cutoff [a.u.]          500.00
 count for grid        2:          28388          cutoff [a.u.]          166.67
 count for grid        3:          11672          cutoff [a.u.]           55.56
 count for grid        4:           5984          cutoff [a.u.]           18.52
 total gridlevel count  :          54076

 -------------------------------------------------------------------------------
 -                                                                             -
 -                         MESSAGE PASSING PERFORMANCE                         -
 -                                                                             -
 -------------------------------------------------------------------------------

 ROUTINE             CALLS      AVE VOLUME [Bytes]
 MP_Group                6
 MP_Bcast           548426                   7920.
 MP_Allreduce        31874                    914.
 MP_Sync                 4
 MP_Alltoall          1067               13498392.
 MP_SendRecv          1694                 771888.
 MP_ISendRecv         1659                 764992.
 MP_Wait            377999
 MP_comm_split           4
 MP_ISend           399884                  12289.
 MP_IRecv           639104                   7697.
 -------------------------------------------------------------------------------


 -------------------------------------------------------------------------------
 -                                                                             -
 -                           R E F E R E N C E S                               -
 -                                                                             -
 -------------------------------------------------------------------------------
 
 CP2K version 2025.1 (Development Version), the CP2K developers group (2025).
 CP2K is freely available from https://www.cp2k.org/ .
 
 T. D. Kuehne, M. Iannuzzi, M. Del Ben, V. V. Rybkin, P. Seewald, F. Stein, T. 
 Laino, R. Z. Khaliullin, O. Schuett, F. Schiffmann, D. Golze, J. Wilhelm, S. 
 Chulkov, M. H. Bani-Hashemian, V. Weber, U. Borstnik, M. Taillefumier, A. S. 
 Jakobovits, A. Lazzaro, H. Pabst, T. Mueller, R. Schade, M. Guidon, S. 
 Andermatt, N. Holmberg, G. K. Schenter, A. Hehn, A. Bussy, F. Belleflamme, G. 
 Tabacchi, A. Gloess, M. Lass, I. Bethune, C. J. Mundy, C. Plessl, M. Watkins, 
 J. VandeVondele, M. Krack, J. Hutter.
 J. Chem. Phys. 152, 194103 (2020).
 CP2K: An electronic structure and molecular dynamics software package - 
 Quickstep: Efficient and accurate electronic structure calculations.
 https://doi.org/10.1063/5.0007045

 O. Schuett, P. Messmer, J. Hutter, J. VandeVondele.
 Electronic Structure Calculations on Graphics Processing Units, 173-190 (2016).
 GPU-Accelerated Sparse Matrix-Matrix Multiplication for Linear Scaling Density 
 Functional Theory.
 https://doi.org/10.1002/9781118670712.ch8

 J. Hutter, M. Iannuzzi, F. Schiffmann, J. VandeVondele.
 WIREs Comput Mol Sci. 4, 15-25 (2014).
 CP2K: atomistic simulations of condensed matter systems.
 https://doi.org/10.1002/wcms.1159

 U. Borstnik, J. VandeVondele, V. Weber, J. Hutter.
 Parallel Comput. 40, 47-58 (2014).
 Sparse matrix multiplication: The distributed block-compressed sparse row 
 library.
 https://doi.org/10.1016/j.parco.2014.03.012

 J. VandeVondele, J. Hutter.
 J. Chem. Phys. 127, 114105 (2007).
 Gaussian basis sets for accurate calculations on molecular systems in gas and 
 condensed phases.
 https://doi.org/10.1063/1.2770708

 J. VandeVondele, M. Krack, F. Mohamed, M. Parrinello, T. Chassaing, J. Hutter.
 Comput. Phys. Commun. 167, 103-128 (2005).
 QUICKSTEP: Fast and accurate density functional calculations using a mixed 
 Gaussian and plane waves approach.
 https://doi.org/10.1016/j.cpc.2004.12.014

 M. Krack.
 Theor. Chem. Acc. 114, 145-152 (2005).
 Pseudopotentials for H to Kr optimized for gradient-corrected 
 exchange-correlation functionals.
 https://doi.org/10.1007/s00214-005-0655-y

 M. Frigo, S. G. Johnson.
 Proc. IEEE 93, 216-231 (2005).
 The design and implementation of FFTW3.
 https://doi.org/10.1109/JPROC.2004.840301

 C. Hartwigsen, S. Goedecker, J. Hutter.
 Phys. Rev. B 58, 3641-3662 (1998).
 Relativistic separable dual-space Gaussian pseudopotentials from H to Rn.
 https://doi.org/10.1103/PhysRevB.58.3641

 G. Lippert, J. Hutter, M. Parrinello.
 Mol. Phys. 92, 477-487 (1997).
 A hybrid Gaussian and plane wave density functional scheme.
 https://doi.org/10.1080/002689797170220

 S. Goedecker, M. Teter, J. Hutter.
 Phys. Rev. B 54, 1703-1710 (1996).
 Separable dual-space Gaussian pseudopotentials.
 https://doi.org/10.1103/PhysRevB.54.1703

 J. P. Perdew, K. Burke, M. Ernzerhof.
 Phys. Rev. Lett. 77, 3865-3868 (1996).
 Generalized gradient approximation made simple.
 https://doi.org/10.1103/PhysRevLett.77.3865


 -------------------------------------------------------------------------------
 -                                                                             -
 -                                T I M I N G                                  -
 -                                                                             -
 -------------------------------------------------------------------------------
 SUBROUTINE                       CALLS  ASD         SELF TIME        TOTAL TIME
                                MAXIMUM       AVERAGE  MAXIMUM  AVERAGE  MAXIMUM
 CP2K                                 1  1.0    0.009    0.013  237.187  237.187
 qs_energies                          1  2.0    0.011    0.079  235.901  235.940
 scf_env_do_scf                       1  3.0    0.000    0.000  233.283  233.284
 scf_env_do_scf_inner_loop           59  4.0    0.011    0.014  233.283  233.284
 do_general_diag_kp                  60  6.0    0.392    0.412  218.164  218.759
 qs_scf_new_mos_kp                   59  5.0    0.001    0.001  216.012  216.641
 kpoint_density_transform            59  7.0    0.130    0.140   52.910   52.987
 cp_cfm_geeig                      1925  6.9    0.025    0.030   45.787   46.090
 dbcsr_complete_redistribute      91732  8.3    5.993    6.441   38.362   43.940
 rskp_transform                   30504  7.0   36.640   42.110   36.640   42.110
 copy_dbcsr_to_fm                 61524  7.0    0.719    0.752   37.864   38.231
 dbcsr_desymmetrize_deep         122532  7.5    3.261    3.436   24.851   37.705
 cp_cfm_heevd                      1925  7.9    0.004    0.005   32.797   33.156
 cp_cfm_heevd_base                 1925  8.9   32.793   33.152   32.793   33.152
 cp_fm_start_copy_general         91216  7.3    6.130    6.717   32.648   32.801
 mp_alltoall_i22                 214264  8.8   12.514   31.664   12.514   31.664
 mp_allgather_i                  182432  8.3   22.756   23.182   22.756   23.182
 transform_dmat                   15104  8.0   17.850   20.706   17.850   20.706
 copy_fm_to_dbcsr                 30208  8.0    0.196    0.207   14.773   20.481
 mp_alltoall_d11v                642792  9.4   14.181   15.461   14.181   15.461
 dbcsr_finalize                  217728  8.8    1.144    1.215    8.675    9.039
 hybrid_alltoall_any             122532  8.5    0.533    0.573    8.108    9.038
 cp_cfm_triangular_multiply        5775  7.9    8.846    8.926    8.846    8.926
 qs_ks_update_qs_env                 59  5.0    0.000    0.000    7.926    8.235
 rebuild_ks_matrix                   59  6.0    0.000    0.000    7.482    7.791
 qs_ks_build_kohn_sham_matrix        59  7.0    0.023    0.023    7.482    7.790
 kpoint_density_matrices             59  7.0    0.116    0.120    6.308    6.439
 cp_fm_finish_copy_general        37908  7.8    6.135    6.167    6.216    6.257
 parallel_gemm_fm                  7552  8.0    0.010    0.011    5.994    6.119
 parallel_gemm_fm_gemm             7552  9.0    0.010    0.011    5.985    6.108
 cp_fm_gemm                        7552 10.0    5.975    6.099    5.975    6.099
 mp_alltoall_i11v                397728  9.0    4.578    5.354    4.578    5.354
 dbcsr_merge_all                  91732 10.3    2.505    2.718    5.009    5.337
 mp_cart_sub                     123050  9.0    5.169    5.196    5.169    5.196
 qs_rho_update_rho_low               60  5.0    0.000    0.000    4.915    4.919
 calculate_rho_elec                  60  6.0    0.138    0.142    4.915    4.919
 fft_wrap_pw1pw2                   1067 10.0    0.015    0.018    4.612    4.634
 fft_wrap_pw1pw2_500                710 11.3    0.355    0.365    4.350    4.376
 fft3d_ps                          1067 12.0    1.731    1.775    3.585    3.614
 sum_up_and_integrate                59  8.0    0.001    0.001    3.227    3.541
 integrate_v_rspace                  59  9.0    0.031    0.050    3.220    3.534
 qs_vxc_create                       59  8.0    0.001    0.001    3.454    3.457
 xc_vxc_pw_create                    59  9.0    0.137    0.140    3.453    3.456
 mp_cart_create                   61531  9.0    3.393    3.449    3.393    3.449
 gspace_mixing                       58  5.0    0.125    0.127    3.283    3.283
 density_rs2pw                       60  7.0    0.002    0.003    2.302    2.851
 broyden_mixing                      58  6.0    2.713    2.736    2.761    2.765
 grid_collocate_task_list            60  7.0    2.464    2.732    2.464    2.732
 mp_bcast_iv                     365018  8.3    2.227    2.537    2.227    2.537
 xc_pw_derive                       354 11.0    0.002    0.002    2.219    2.255
 dbcsr_work_create               214264  8.8    1.329    1.362    2.075    2.126
 dbcsr_create_new                327913  8.4    1.645    1.698    1.980    2.048
 grid_integrate_task_list            59 10.0    1.709    2.001    1.709    2.001
 transfer_rs2pw                     242  8.0    0.003    0.004    1.405    1.968
 cp_cfm_cholesky_decompose         1925  7.9    1.940    1.960    1.940    1.960
 cp_cfm_triangular_invert          1925  7.9    1.940    1.958    1.940    1.958
 xc_rho_set_and_dset_create          59 10.0    0.074    0.078    1.865    1.882
 copy_dbcsr_to_fm_bc              61524  8.0    1.087    1.104    1.810    1.837
 transfer_rs2pw_500                  62  9.0    0.444    0.481    1.156    1.742
 copy_fm_to_dbcsr_bc              30208  9.0    0.525    0.544    1.670    1.729
 dbcsr_work_destroy_all          214264  9.8    1.018    1.038    1.690    1.713
 mp_alltoall_z22v                  1067 14.0    1.595    1.702    1.595    1.702
 tree_to_linear_d                 91732 11.3    1.508    1.535    1.508    1.535
 dbcsr_iterator_start            611639  9.1    1.242    1.257    1.462    1.502
 potential_pw2rs                     59 10.0    0.007    0.007    1.479    1.485
 xc_pw_divergence                    59 10.0    0.001    0.001    1.433    1.464
 dbcsr_data_release             3152121 10.2    1.370    1.436    1.370    1.436
 dbcsr_copy                       50676  8.0    0.168    0.176    1.285    1.428
 mp_sendrecv_dv                    1694 10.0    0.860    1.386    0.860    1.386
 dbcsr_data_new                 2295418  9.8    1.317    1.384    1.317    1.384
 dbcsr_copy_into_existing         30380 10.0    0.901    1.034    1.080    1.215
 dbcsr_destroy                   307617  8.3    0.537    0.549    1.067    1.150
 x_to_yz                            590 13.2    0.153    0.165    1.086    1.109
 kpoint_set_mo_occupation            59  7.0    0.217    0.218    0.708    1.081
 mp_waitall_1                    377999  8.3    0.671    1.070    0.671    1.070
 transfer_pw2rs                     237 11.0    0.002    0.002    1.028    1.028
 create_qs_kind_set                   1  2.0    0.000    0.000    1.018    1.018
 read_qs_kind                         1  3.0    0.613    0.619    1.018    1.018
 dbcsr_iterator_stop             611639  9.1    0.746    0.753    0.883    0.890
 mp_sum_dm3                          59  8.0    0.491    0.865    0.491    0.865
 write_kpoints_restart               59  5.0    0.003    0.008    0.850    0.851
 yz_to_x                            477 12.9    0.095    0.103    0.757    0.833
 transfer_pw2rs_500                  60 11.9    0.396    0.403    0.774    0.806
 mp_bcast_im                     182432  8.3    0.669    0.760    0.669    0.760
 quick_finalize                  122532  9.5    0.421    0.434    0.735    0.748
 dbcsr_data_copy_aa2              91732 11.3    0.570    0.734    0.570    0.734
 mp_isend_dv                      91808  8.3    0.598    0.697    0.598    0.697
 cp_cfm_scale_and_add_fm           7700  6.9    0.644    0.660    0.644    0.660
 mp_comm_free                    184617  9.0    0.563    0.658    0.563    0.658
 xc_functional_eval                  59 11.0    0.001    0.001    0.611    0.624
 pbe_lda_eval                        59 12.0    0.611    0.624    0.611    0.624
 cp_fm_write_unformatted            516  6.0    0.170    0.462    0.216    0.513
 dbcsr_set                       174305  8.2    0.190    0.197    0.457    0.494
 parser_read_line                134369  4.0    0.044    0.047    0.462    0.464
 evaluate_core_matrix_traces         59  6.0    0.000    0.000    0.444    0.445
 calculate_ptrace_kp                118  7.0    0.016    0.018    0.444    0.445
 dbcsr_dot                        20297  8.0    0.235    0.255    0.429    0.433
 parser_read_line_low               153  5.2    0.049    0.208    0.418    0.421
 pw_scatter_p                       590 12.2    0.391    0.397    0.391    0.397
 broadcast_input_information        153  6.2    0.098    0.102    0.369    0.396
 dbcsr_reserve_all_blocks         30208 10.0    0.053    0.057    0.371    0.386
 dbcsr_sort_indices              246032 11.0    0.357    0.366    0.357    0.366
 dbcsr_reserve_blocks             31768 10.8    0.320    0.333    0.352    0.365
 cp_cfm_to_fm                      1925  6.9    0.338    0.344    0.338    0.344
 self_consistency_check              59  5.0    0.015    0.016    0.294    0.318
 dbcsr_zero                      174305  9.2    0.266    0.300    0.266    0.300
 mp_isendrecv_dv                   1659 13.0    0.119    0.281    0.119    0.281
 pw_poisson_solve                    59  8.0    0.001    0.001    0.276    0.278
 cp_sm_mix                        10148  6.0    0.111    0.122    0.228    0.265
 cp_cfm_to_cfm_columns             1925  7.9    0.239    0.247    0.239    0.247
 dbcsr_iterator_seek             611639 10.1    0.220    0.245    0.220    0.245
 mp_sum_d                         21191  8.8    0.189    0.242    0.189    0.242
 merge_index                      91732 11.3    0.194    0.230    0.194    0.230
 dbcsr_make_index_exist          327913  9.4    0.210    0.225    0.210    0.225
 transfer_pw2rs_170                  59 12.0    0.081    0.083    0.193    0.225
 transfer_rs2pw_170                  60  9.0    0.080    0.084    0.189    0.220
 cp_fm_to_fm_matrix                3776  8.0    0.194    0.201    0.194    0.201
 fft_wrap_pw1pw2_170                119 10.5    0.013    0.016    0.180    0.186
 mp_bcast_i_src                     612  7.2    0.159    0.185    0.159    0.185
 mp_irecv_iv                     364864  8.3    0.023    0.184    0.023    0.184
 pw_integral_ab_c1d_c1d_gs           59  9.0    0.177    0.179    0.182    0.183
 pw_gather_p                        477 11.9    0.157    0.164    0.157    0.164
 mp_max_d                         10150  7.0    0.093    0.158    0.093    0.158
 init_scf_run                         1  3.0    0.000    0.000    0.153    0.158
 scf_env_initial_rho_setup            1  4.0    0.000    0.000    0.153    0.158
 mp_sum_dv                          354  3.7    0.081    0.157    0.081    0.157
 cp_fm_cleanup_copy_general       64784  7.0    0.102    0.104    0.152    0.153
 mp_send_dv                         516  7.0    0.040    0.153    0.040    0.153
 dbcsr_switch_data_area          122532 10.5    0.110    0.112    0.145    0.146
 mp_isend_iv                     205384  8.3    0.036    0.130    0.036    0.130
 pw_derive                          531 11.3    0.119    0.125    0.119    0.125
 qs_energies_init_hamiltonians        1  3.0    0.000    0.000    0.119    0.119
 mp_bcast_am_src                    153  7.2    0.101    0.106    0.110    0.117
 pw_copy                            885 10.5    0.109    0.112    0.109    0.112
 qs_init_subsys                       1  2.0    0.002    0.002    0.101    0.102
 dbcsr_get_data_size_used        214264  9.8    0.097    0.102    0.097    0.102
 qs_env_setup                         1  3.0    0.000    0.000    0.099    0.099
 qs_env_rebuild_pw_env                2  3.5    0.000    0.000    0.098    0.099
 pw_env_rebuild                       1  5.0    0.001    0.001    0.098    0.098
 pw_grid_setup                        4  6.0    0.000    0.000    0.092    0.093
 pw_grid_setup_internal               4  7.0    0.002    0.003    0.092    0.092
 dbcsr_distribution_new           91734  8.6    0.087    0.092    0.087    0.092
 mp_irecv_im2                    182432  8.3    0.011    0.089    0.011    0.089
 dbcsr_make_dbcsr_index          246032 11.0    0.077    0.082    0.077    0.082
 restraint_control                    1  2.0    0.000    0.000    0.039    0.077
 mp_sum_i                             4  2.8    0.039    0.077    0.039    0.077
 cp_dbcsr_alloc_block_from_nbl     1560  5.6    0.030    0.034    0.065    0.074
 cp_fm_create                       482  4.2    0.070    0.072    0.070    0.072
 pw_poisson_set                      60  8.9    0.001    0.001    0.068    0.070
 pw_grid_sort                         4  8.0    0.042    0.043    0.065    0.067
 qs_env_update_s_mstruct              1  4.0    0.000    0.000    0.057    0.066
 build_core_hamiltonian_matrix        1  4.0    0.001    0.001    0.057    0.066
 topology_control                     1  2.0    0.000    0.000    0.063    0.063
 mp_irecv_dv                      91808  8.3    0.057    0.061    0.057    0.061
 mp_isend_im2                    102692  8.3    0.016    0.059    0.016    0.059
 mp_sum_dm                           58  7.0    0.029    0.059    0.029    0.059
 calculate_rho_core                   1  5.0    0.003    0.004    0.046    0.058
 pw_copy_from_array                 590 12.2    0.052    0.056    0.052    0.056
 transfer_rs2pw_60                   60  9.0    0.013    0.014    0.045    0.053
 scf_post_calculation_gpw             1  3.0    0.000    0.000    0.052    0.052
 write_available_results              1  4.0    0.000    0.000    0.052    0.052
 transfer_pw2rs_60                   59 12.0    0.016    0.016    0.045    0.052
 write_mo_free_results                1  5.0    0.003    0.003    0.052    0.052
 mp_recv_dv                        1548  7.0    0.006    0.051    0.006    0.051
 fft_wrap_pw1pw2_60                 119 10.5    0.003    0.003    0.049    0.051
 kpoint_initialize_mos                2  2.5    0.000    0.000    0.047    0.047
 pw_axpy                            594  9.3    0.044    0.046    0.044    0.046
 read_cell_cif                        2  4.5    0.002    0.004    0.043    0.044
 pw_copy_to_array                   477 11.9    0.039    0.043    0.039    0.043
 mixing_init                          1  5.0    0.040    0.042    0.042    0.043
 coordinate_control                   1  3.0    0.001    0.001    0.037    0.037
 coordinate_control_READ_COORDI       1  4.0    0.000    0.000    0.037    0.037
 read_coordinate_cif                  1  5.0    0.002    0.002    0.037    0.037
 pw_zero                            296 10.4    0.024    0.028    0.024    0.028
 calculate_hirshfeld_normalizat       1  6.0    0.007    0.008    0.024    0.024
 -------------------------------------------------------------------------------

 The number of warnings for this run is : 1
 
 -------------------------------------------------------------------------------
  **** **** ******  **  PROGRAM ENDED AT                 2025-08-04 03:14:47.303
 ***** ** ***  *** **   PROGRAM RAN ON                              i04r01c01s05
 **    ****   ******    PROGRAM RAN BY                                   di38fab
 ***** **    ** ** **   PROGRAM PROCESS ID                                963122
  **** **  *******  **  PROGRAM STOPPED IN /hppfs/scratch/04/di38fab/09_GTH/Delt
                                           a_Set/Cl/TZV2P-MOLOPT-PBE-GTH/8x8x8
