 DBCSR| CPU Multiplication driver                                           BLAS (U)
 DBCSR| Multrec recursion limit                                              512 (U)
 DBCSR| Multiplication stack size                                           1000 (D)
 DBCSR| Maximum elements for images                                    UNLIMITED (U)
 DBCSR| Multiplicative factor virtual images                                   1 (U)
 DBCSR| Use multiplication densification                                       T (D)
 DBCSR| Multiplication size stacks                                             3 (U)
 DBCSR| Use memory pool for CPU allocation                                     F (U)
 DBCSR| Number of 3D layers                                               SINGLE (U)
 DBCSR| Use MPI memory allocation                                              F (U)
 DBCSR| Use RMA algorithm                                                      F (U)
 DBCSR| Use Communication thread                                               T (U)
 DBCSR| Communication thread load                                             45 (D)
 DBCSR| MPI: My process id                                                     0
 DBCSR| MPI: Number of processes                                               8
 DBCSR| OMP: Current number of threads                                        12
 DBCSR| OMP: Max number of threads                                            12
 DBCSR| Split modifier for TAS multiplication algorithm                  1.0E+00 (U)


  **** **** ******  **  PROGRAM STARTED AT               2025-08-08 20:46:57.504
 ***** ** ***  *** **   PROGRAM STARTED ON                          i06r05c03s01
 **    ****   ******    PROGRAM STARTED BY                               di38fab
 ***** **    ** ** **   PROGRAM PROCESS ID                               3268072
  **** **  *******  **  PROGRAM STARTED IN /hppfs/scratch/04/di38fab/09_GTH/Delt
                                           a_Set/Mn/aug-DZVP-MOLOPT-GTH-tier-2/8
                                           x8x8

 CP2K| version string:                 CP2K version 2025.1 (Development Version)
 CP2K| source code revision number:                                  git:3130539
 CP2K| cp2kflags: omp libint fftw3 libxc parallel scalapack max_contr=4         
 CP2K| is freely available from                            https://www.cp2k.org/
 CP2K| Program compiled at                         Tue Jun  3 16:14:32 CEST 2025
 CP2K| Program compiled on                                               login01
 CP2K| Program compiled for                                        Supermuc-foss
 CP2K| Data directory path                  /hppfs/work/pn36zo/di38fab/cp2k/data
 CP2K| Input file name                                                    GW.inp

 GLOBAL| Force Environment number                                              1
 GLOBAL| Basis set file name            /hppfs/scratch/04/di38fab/09_GTH/BASIS_A
 GLOBAL| Potential file name            /hppfs/work/pn36zo/di38fab/cp2k/data/GTH
 GLOBAL| MM Potential file name                                     MM_POTENTIAL
 GLOBAL| Coordinate file name                                             Mn.cif
 GLOBAL| Method name                                                        CP2K
 GLOBAL| Project name                                                       WSe2
 GLOBAL| Run type                                                         ENERGY
 GLOBAL| FFT library                                                       FFTW3
 GLOBAL| Diagonalization library                                       ScaLAPACK
 GLOBAL| Cholesky decomposition library                                ScaLAPACK
 GLOBAL| DGEMM library                                                      BLAS
 GLOBAL| Orthonormality check for eigenvectors                          DISABLED
 GLOBAL| Matrix multiplication library                                 ScaLAPACK
 GLOBAL| All-to-all communication in single precision                          F
 GLOBAL| FFTs using library dependent lengths                                  F
 GLOBAL| Grid backend                                                       AUTO
 GLOBAL| Global print level                                               MEDIUM
 GLOBAL| MPI I/O enabled                                                       T
 GLOBAL| Total number of message passing processes                             8
 GLOBAL| Number of threads for this process                                   12
 GLOBAL| This output is from process                                           0
 GLOBAL| OpenMP stack size per thread (OMP_STACKSIZE)                    default
 GLOBAL| CPU model name             Intel(R) Xeon(R) Platinum 8174 CPU @ 3.10GHz

 MEMORY| system memory details [Kb]
 MEMORY|                        rank 0           min           max       average
 MEMORY| MemTotal             98436660      98436648      98436660      98436654
 MEMORY| MemFree              85084580      85055584      85084580      85070082
 MEMORY| Buffers                     0             0             0             0
 MEMORY| Cached                2384288       2384288       2399532       2391910
 MEMORY| Slab                  1214236       1190528       1214236       1202382
 MEMORY| SReclaimable           274500        269236        274500        271868
 MEMORY| MemLikelyFree        87743368      87724352      87743368      87733860


 *** Fundamental physical constants (SI units) ***

 *** Literature: B. J. Mohr and B. N. Taylor,
 ***             CODATA recommended values of the fundamental physical
 ***             constants: 2006, Web Version 5.1
 ***             http://physics.nist.gov/constants

 Speed of light in vacuum [m/s]                             2.99792458000000E+08
 Magnetic constant or permeability of vacuum [N/A**2]       1.25663706143592E-06
 Electric constant or permittivity of vacuum [F/m]          8.85418781762039E-12
 Planck constant (h) [J*s]                                  6.62606896000000E-34
 Planck constant (h-bar) [J*s]                              1.05457162825177E-34
 Elementary charge [C]                                      1.60217648700000E-19
 Electron mass [kg]                                         9.10938215000000E-31
 Electron g factor [ ]                                     -2.00231930436220E+00
 Proton mass [kg]                                           1.67262163700000E-27
 Fine-structure constant                                    7.29735253760000E-03
 Rydberg constant [1/m]                                     1.09737315685270E+07
 Avogadro constant [1/mol]                                  6.02214179000000E+23
 Boltzmann constant [J/K]                                   1.38065040000000E-23
 Atomic mass unit [kg]                                      1.66053878200000E-27
 Bohr radius [m]                                            5.29177208590000E-11

 *** Conversion factors ***

 [u] -> [a.u.]                                              1.82288848426455E+03
 [Angstrom] -> [Bohr] = [a.u.]                              1.88972613288564E+00
 [a.u.] = [Bohr] -> [Angstrom]                              5.29177208590000E-01
 [a.u.] -> [s]                                              2.41888432650478E-17
 [a.u.] -> [fs]                                             2.41888432650478E-02
 [a.u.] -> [J]                                              4.35974393937059E-18
 [a.u.] -> [N]                                              8.23872205491840E-08
 [a.u.] -> [K]                                              3.15774647902944E+05
 [a.u.] -> [kJ/mol]                                         2.62549961709828E+03
 [a.u.] -> [kcal/mol]                                       6.27509468713739E+02
 [a.u.] -> [Pa]                                             2.94210107994716E+13
 [a.u.] -> [bar]                                            2.94210107994716E+08
 [a.u.] -> [atm]                                            2.90362800883016E+08
 [a.u.] -> [eV]                                             2.72113838565563E+01
 [a.u.] -> [Hz]                                             6.57968392072181E+15
 [a.u.] -> [1/cm] (wave numbers)                            2.19474631370540E+05
 [a.u./Bohr**2] -> [1/cm]                                   5.14048714338585E+03
 

 CELL_TOP| Volume [angstrom^3]:                                        46.482034
 CELL_TOP| Vector a [angstrom     3.596     0.000     0.000   |a| =     3.595520
 CELL_TOP| Vector b [angstrom     0.000     3.596     0.000   |b| =     3.595520
 CELL_TOP| Vector c [angstrom     0.000     0.000     3.596   |c| =     3.595520
 CELL_TOP| Angle (b,c), alpha [degree]:                                90.000000
 CELL_TOP| Angle (a,c), beta  [degree]:                                90.000000
 CELL_TOP| Angle (a,b), gamma [degree]:                                90.000000
 CELL_TOP| Numerically orthorhombic:                                         YES
 CELL_TOP| Periodicity                                                       XYZ

 CELL_CIF| Volume [angstrom^3]:                                        46.482034
 CELL_CIF| Vector a [angstrom     3.596     0.000     0.000   |a| =     3.595520
 CELL_CIF| Vector b [angstrom     0.000     3.596     0.000   |b| =     3.595520
 CELL_CIF| Vector c [angstrom     0.000     0.000     3.596   |c| =     3.595520
 CELL_CIF| Angle (b,c), alpha [degree]:                                90.000000
 CELL_CIF| Angle (a,c), beta  [degree]:                                90.000000
 CELL_CIF| Angle (a,b), gamma [degree]:                                90.000000
 CELL_CIF| Numerically orthorhombic:                                         YES
 CELL_CIF| Periodicity                                                       XYZ

 GENERATE|  Preliminary Number of Bonds generated:                             0
 GENERATE|  Achieved consistency in connectivity generation.

 CELL| Volume [angstrom^3]:                                            46.482034
 CELL| Vector a [angstrom]:       3.596     0.000     0.000   |a| =     3.595520
 CELL| Vector b [angstrom]:       0.000     3.596     0.000   |b| =     3.595520
 CELL| Vector c [angstrom]:       0.000     0.000     3.596   |c| =     3.595520
 CELL| Angle (b,c), alpha [degree]:                                    90.000000
 CELL| Angle (a,c), beta  [degree]:                                    90.000000
 CELL| Angle (a,b), gamma [degree]:                                    90.000000
 CELL| Numerically orthorhombic:                                             YES
 CELL| Periodicity                                                           XYZ

 CELL_REF| Volume [angstrom^3]:                                        46.482034
 CELL_REF| Vector a [angstrom     3.596     0.000     0.000   |a| =     3.595520
 CELL_REF| Vector b [angstrom     0.000     3.596     0.000   |b| =     3.595520
 CELL_REF| Vector c [angstrom     0.000     0.000     3.596   |c| =     3.595520
 CELL_REF| Angle (b,c), alpha [degree]:                                90.000000
 CELL_REF| Angle (a,c), beta  [degree]:                                90.000000
 CELL_REF| Angle (a,b), gamma [degree]:                                90.000000
 CELL_REF| Numerically orthorhombic:                                         YES
 CELL_REF| Periodicity                                                       XYZ

 *** WARNING in cryssym.F:180 :: Symmetry library SPGLIB not available ***


 *******************************************************************************
                                    Kpoints
 *******************************************************************************
 BRILLOUIN| K-point scheme                                        Monkhorst-Pack
 BRILLOUIN| K-Point grid                                             8    8    8
 BRILLOUIN| Accuracy in Symmetry determination                      0.100000E-05
 BRILLOUIN| K-Point point group symmetrization                               OFF
 BRILLOUIN| Wavefunction type                                            COMPLEX
 BRILLOUIN| List of Kpoints [2 Pi/Bohr]                                      256
 BRILLOUIN| Number           Weight            X              Y              Z
 BRILLOUIN|     1           0.00391       -0.43750       -0.43750       -0.43750
 BRILLOUIN|     2           0.00391       -0.43750       -0.43750       -0.31250
 BRILLOUIN|     3           0.00391       -0.43750       -0.43750       -0.18750
 BRILLOUIN|     4           0.00391       -0.43750       -0.43750       -0.06250
 BRILLOUIN|     5           0.00391       -0.43750       -0.43750        0.06250
 BRILLOUIN|     6           0.00391       -0.43750       -0.43750        0.18750
 BRILLOUIN|     7           0.00391       -0.43750       -0.43750        0.31250
 BRILLOUIN|     8           0.00391       -0.43750       -0.43750        0.43750
 BRILLOUIN|     9           0.00391       -0.43750       -0.31250       -0.43750
 BRILLOUIN|    10           0.00391       -0.43750       -0.31250       -0.31250
 BRILLOUIN|    11           0.00391       -0.43750       -0.31250       -0.18750
 BRILLOUIN|    12           0.00391       -0.43750       -0.31250       -0.06250
 BRILLOUIN|    13           0.00391       -0.43750       -0.31250        0.06250
 BRILLOUIN|    14           0.00391       -0.43750       -0.31250        0.18750
 BRILLOUIN|    15           0.00391       -0.43750       -0.31250        0.31250
 BRILLOUIN|    16           0.00391       -0.43750       -0.31250        0.43750
 BRILLOUIN|    17           0.00391       -0.43750       -0.18750       -0.43750
 BRILLOUIN|    18           0.00391       -0.43750       -0.18750       -0.31250
 BRILLOUIN|    19           0.00391       -0.43750       -0.18750       -0.18750
 BRILLOUIN|    20           0.00391       -0.43750       -0.18750       -0.06250
 BRILLOUIN|    21           0.00391       -0.43750       -0.18750        0.06250
 BRILLOUIN|    22           0.00391       -0.43750       -0.18750        0.18750
 BRILLOUIN|    23           0.00391       -0.43750       -0.18750        0.31250
 BRILLOUIN|    24           0.00391       -0.43750       -0.18750        0.43750
 BRILLOUIN|    25           0.00391       -0.43750       -0.06250       -0.43750
 BRILLOUIN|    26           0.00391       -0.43750       -0.06250       -0.31250
 BRILLOUIN|    27           0.00391       -0.43750       -0.06250       -0.18750
 BRILLOUIN|    28           0.00391       -0.43750       -0.06250       -0.06250
 BRILLOUIN|    29           0.00391       -0.43750       -0.06250        0.06250
 BRILLOUIN|    30           0.00391       -0.43750       -0.06250        0.18750
 BRILLOUIN|    31           0.00391       -0.43750       -0.06250        0.31250
 BRILLOUIN|    32           0.00391       -0.43750       -0.06250        0.43750
 BRILLOUIN|    33           0.00391       -0.43750        0.06250       -0.43750
 BRILLOUIN|    34           0.00391       -0.43750        0.06250       -0.31250
 BRILLOUIN|    35           0.00391       -0.43750        0.06250       -0.18750
 BRILLOUIN|    36           0.00391       -0.43750        0.06250       -0.06250
 BRILLOUIN|    37           0.00391       -0.43750        0.06250        0.06250
 BRILLOUIN|    38           0.00391       -0.43750        0.06250        0.18750
 BRILLOUIN|    39           0.00391       -0.43750        0.06250        0.31250
 BRILLOUIN|    40           0.00391       -0.43750        0.06250        0.43750
 BRILLOUIN|    41           0.00391       -0.43750        0.18750       -0.43750
 BRILLOUIN|    42           0.00391       -0.43750        0.18750       -0.31250
 BRILLOUIN|    43           0.00391       -0.43750        0.18750       -0.18750
 BRILLOUIN|    44           0.00391       -0.43750        0.18750       -0.06250
 BRILLOUIN|    45           0.00391       -0.43750        0.18750        0.06250
 BRILLOUIN|    46           0.00391       -0.43750        0.18750        0.18750
 BRILLOUIN|    47           0.00391       -0.43750        0.18750        0.31250
 BRILLOUIN|    48           0.00391       -0.43750        0.18750        0.43750
 BRILLOUIN|    49           0.00391       -0.43750        0.31250       -0.43750
 BRILLOUIN|    50           0.00391       -0.43750        0.31250       -0.31250
 BRILLOUIN|    51           0.00391       -0.43750        0.31250       -0.18750
 BRILLOUIN|    52           0.00391       -0.43750        0.31250       -0.06250
 BRILLOUIN|    53           0.00391       -0.43750        0.31250        0.06250
 BRILLOUIN|    54           0.00391       -0.43750        0.31250        0.18750
 BRILLOUIN|    55           0.00391       -0.43750        0.31250        0.31250
 BRILLOUIN|    56           0.00391       -0.43750        0.31250        0.43750
 BRILLOUIN|    57           0.00391       -0.43750        0.43750       -0.43750
 BRILLOUIN|    58           0.00391       -0.43750        0.43750       -0.31250
 BRILLOUIN|    59           0.00391       -0.43750        0.43750       -0.18750
 BRILLOUIN|    60           0.00391       -0.43750        0.43750       -0.06250
 BRILLOUIN|    61           0.00391       -0.43750        0.43750        0.06250
 BRILLOUIN|    62           0.00391       -0.43750        0.43750        0.18750
 BRILLOUIN|    63           0.00391       -0.43750        0.43750        0.31250
 BRILLOUIN|    64           0.00391       -0.43750        0.43750        0.43750
 BRILLOUIN|    65           0.00391       -0.31250       -0.43750       -0.43750
 BRILLOUIN|    66           0.00391       -0.31250       -0.43750       -0.31250
 BRILLOUIN|    67           0.00391       -0.31250       -0.43750       -0.18750
 BRILLOUIN|    68           0.00391       -0.31250       -0.43750       -0.06250
 BRILLOUIN|    69           0.00391       -0.31250       -0.43750        0.06250
 BRILLOUIN|    70           0.00391       -0.31250       -0.43750        0.18750
 BRILLOUIN|    71           0.00391       -0.31250       -0.43750        0.31250
 BRILLOUIN|    72           0.00391       -0.31250       -0.43750        0.43750
 BRILLOUIN|    73           0.00391       -0.31250       -0.31250       -0.43750
 BRILLOUIN|    74           0.00391       -0.31250       -0.31250       -0.31250
 BRILLOUIN|    75           0.00391       -0.31250       -0.31250       -0.18750
 BRILLOUIN|    76           0.00391       -0.31250       -0.31250       -0.06250
 BRILLOUIN|    77           0.00391       -0.31250       -0.31250        0.06250
 BRILLOUIN|    78           0.00391       -0.31250       -0.31250        0.18750
 BRILLOUIN|    79           0.00391       -0.31250       -0.31250        0.31250
 BRILLOUIN|    80           0.00391       -0.31250       -0.31250        0.43750
 BRILLOUIN|    81           0.00391       -0.31250       -0.18750       -0.43750
 BRILLOUIN|    82           0.00391       -0.31250       -0.18750       -0.31250
 BRILLOUIN|    83           0.00391       -0.31250       -0.18750       -0.18750
 BRILLOUIN|    84           0.00391       -0.31250       -0.18750       -0.06250
 BRILLOUIN|    85           0.00391       -0.31250       -0.18750        0.06250
 BRILLOUIN|    86           0.00391       -0.31250       -0.18750        0.18750
 BRILLOUIN|    87           0.00391       -0.31250       -0.18750        0.31250
 BRILLOUIN|    88           0.00391       -0.31250       -0.18750        0.43750
 BRILLOUIN|    89           0.00391       -0.31250       -0.06250       -0.43750
 BRILLOUIN|    90           0.00391       -0.31250       -0.06250       -0.31250
 BRILLOUIN|    91           0.00391       -0.31250       -0.06250       -0.18750
 BRILLOUIN|    92           0.00391       -0.31250       -0.06250       -0.06250
 BRILLOUIN|    93           0.00391       -0.31250       -0.06250        0.06250
 BRILLOUIN|    94           0.00391       -0.31250       -0.06250        0.18750
 BRILLOUIN|    95           0.00391       -0.31250       -0.06250        0.31250
 BRILLOUIN|    96           0.00391       -0.31250       -0.06250        0.43750
 BRILLOUIN|    97           0.00391       -0.31250        0.06250       -0.43750
 BRILLOUIN|    98           0.00391       -0.31250        0.06250       -0.31250
 BRILLOUIN|    99           0.00391       -0.31250        0.06250       -0.18750
 BRILLOUIN|   100           0.00391       -0.31250        0.06250       -0.06250
 BRILLOUIN|   101           0.00391       -0.31250        0.06250        0.06250
 BRILLOUIN|   102           0.00391       -0.31250        0.06250        0.18750
 BRILLOUIN|   103           0.00391       -0.31250        0.06250        0.31250
 BRILLOUIN|   104           0.00391       -0.31250        0.06250        0.43750
 BRILLOUIN|   105           0.00391       -0.31250        0.18750       -0.43750
 BRILLOUIN|   106           0.00391       -0.31250        0.18750       -0.31250
 BRILLOUIN|   107           0.00391       -0.31250        0.18750       -0.18750
 BRILLOUIN|   108           0.00391       -0.31250        0.18750       -0.06250
 BRILLOUIN|   109           0.00391       -0.31250        0.18750        0.06250
 BRILLOUIN|   110           0.00391       -0.31250        0.18750        0.18750
 BRILLOUIN|   111           0.00391       -0.31250        0.18750        0.31250
 BRILLOUIN|   112           0.00391       -0.31250        0.18750        0.43750
 BRILLOUIN|   113           0.00391       -0.31250        0.31250       -0.43750
 BRILLOUIN|   114           0.00391       -0.31250        0.31250       -0.31250
 BRILLOUIN|   115           0.00391       -0.31250        0.31250       -0.18750
 BRILLOUIN|   116           0.00391       -0.31250        0.31250       -0.06250
 BRILLOUIN|   117           0.00391       -0.31250        0.31250        0.06250
 BRILLOUIN|   118           0.00391       -0.31250        0.31250        0.18750
 BRILLOUIN|   119           0.00391       -0.31250        0.31250        0.31250
 BRILLOUIN|   120           0.00391       -0.31250        0.31250        0.43750
 BRILLOUIN|   121           0.00391       -0.31250        0.43750       -0.43750
 BRILLOUIN|   122           0.00391       -0.31250        0.43750       -0.31250
 BRILLOUIN|   123           0.00391       -0.31250        0.43750       -0.18750
 BRILLOUIN|   124           0.00391       -0.31250        0.43750       -0.06250
 BRILLOUIN|   125           0.00391       -0.31250        0.43750        0.06250
 BRILLOUIN|   126           0.00391       -0.31250        0.43750        0.18750
 BRILLOUIN|   127           0.00391       -0.31250        0.43750        0.31250
 BRILLOUIN|   128           0.00391       -0.31250        0.43750        0.43750
 BRILLOUIN|   129           0.00391       -0.18750       -0.43750       -0.43750
 BRILLOUIN|   130           0.00391       -0.18750       -0.43750       -0.31250
 BRILLOUIN|   131           0.00391       -0.18750       -0.43750       -0.18750
 BRILLOUIN|   132           0.00391       -0.18750       -0.43750       -0.06250
 BRILLOUIN|   133           0.00391       -0.18750       -0.43750        0.06250
 BRILLOUIN|   134           0.00391       -0.18750       -0.43750        0.18750
 BRILLOUIN|   135           0.00391       -0.18750       -0.43750        0.31250
 BRILLOUIN|   136           0.00391       -0.18750       -0.43750        0.43750
 BRILLOUIN|   137           0.00391       -0.18750       -0.31250       -0.43750
 BRILLOUIN|   138           0.00391       -0.18750       -0.31250       -0.31250
 BRILLOUIN|   139           0.00391       -0.18750       -0.31250       -0.18750
 BRILLOUIN|   140           0.00391       -0.18750       -0.31250       -0.06250
 BRILLOUIN|   141           0.00391       -0.18750       -0.31250        0.06250
 BRILLOUIN|   142           0.00391       -0.18750       -0.31250        0.18750
 BRILLOUIN|   143           0.00391       -0.18750       -0.31250        0.31250
 BRILLOUIN|   144           0.00391       -0.18750       -0.31250        0.43750
 BRILLOUIN|   145           0.00391       -0.18750       -0.18750       -0.43750
 BRILLOUIN|   146           0.00391       -0.18750       -0.18750       -0.31250
 BRILLOUIN|   147           0.00391       -0.18750       -0.18750       -0.18750
 BRILLOUIN|   148           0.00391       -0.18750       -0.18750       -0.06250
 BRILLOUIN|   149           0.00391       -0.18750       -0.18750        0.06250
 BRILLOUIN|   150           0.00391       -0.18750       -0.18750        0.18750
 BRILLOUIN|   151           0.00391       -0.18750       -0.18750        0.31250
 BRILLOUIN|   152           0.00391       -0.18750       -0.18750        0.43750
 BRILLOUIN|   153           0.00391       -0.18750       -0.06250       -0.43750
 BRILLOUIN|   154           0.00391       -0.18750       -0.06250       -0.31250
 BRILLOUIN|   155           0.00391       -0.18750       -0.06250       -0.18750
 BRILLOUIN|   156           0.00391       -0.18750       -0.06250       -0.06250
 BRILLOUIN|   157           0.00391       -0.18750       -0.06250        0.06250
 BRILLOUIN|   158           0.00391       -0.18750       -0.06250        0.18750
 BRILLOUIN|   159           0.00391       -0.18750       -0.06250        0.31250
 BRILLOUIN|   160           0.00391       -0.18750       -0.06250        0.43750
 BRILLOUIN|   161           0.00391       -0.18750        0.06250       -0.43750
 BRILLOUIN|   162           0.00391       -0.18750        0.06250       -0.31250
 BRILLOUIN|   163           0.00391       -0.18750        0.06250       -0.18750
 BRILLOUIN|   164           0.00391       -0.18750        0.06250       -0.06250
 BRILLOUIN|   165           0.00391       -0.18750        0.06250        0.06250
 BRILLOUIN|   166           0.00391       -0.18750        0.06250        0.18750
 BRILLOUIN|   167           0.00391       -0.18750        0.06250        0.31250
 BRILLOUIN|   168           0.00391       -0.18750        0.06250        0.43750
 BRILLOUIN|   169           0.00391       -0.18750        0.18750       -0.43750
 BRILLOUIN|   170           0.00391       -0.18750        0.18750       -0.31250
 BRILLOUIN|   171           0.00391       -0.18750        0.18750       -0.18750
 BRILLOUIN|   172           0.00391       -0.18750        0.18750       -0.06250
 BRILLOUIN|   173           0.00391       -0.18750        0.18750        0.06250
 BRILLOUIN|   174           0.00391       -0.18750        0.18750        0.18750
 BRILLOUIN|   175           0.00391       -0.18750        0.18750        0.31250
 BRILLOUIN|   176           0.00391       -0.18750        0.18750        0.43750
 BRILLOUIN|   177           0.00391       -0.18750        0.31250       -0.43750
 BRILLOUIN|   178           0.00391       -0.18750        0.31250       -0.31250
 BRILLOUIN|   179           0.00391       -0.18750        0.31250       -0.18750
 BRILLOUIN|   180           0.00391       -0.18750        0.31250       -0.06250
 BRILLOUIN|   181           0.00391       -0.18750        0.31250        0.06250
 BRILLOUIN|   182           0.00391       -0.18750        0.31250        0.18750
 BRILLOUIN|   183           0.00391       -0.18750        0.31250        0.31250
 BRILLOUIN|   184           0.00391       -0.18750        0.31250        0.43750
 BRILLOUIN|   185           0.00391       -0.18750        0.43750       -0.43750
 BRILLOUIN|   186           0.00391       -0.18750        0.43750       -0.31250
 BRILLOUIN|   187           0.00391       -0.18750        0.43750       -0.18750
 BRILLOUIN|   188           0.00391       -0.18750        0.43750       -0.06250
 BRILLOUIN|   189           0.00391       -0.18750        0.43750        0.06250
 BRILLOUIN|   190           0.00391       -0.18750        0.43750        0.18750
 BRILLOUIN|   191           0.00391       -0.18750        0.43750        0.31250
 BRILLOUIN|   192           0.00391       -0.18750        0.43750        0.43750
 BRILLOUIN|   193           0.00391       -0.06250       -0.43750       -0.43750
 BRILLOUIN|   194           0.00391       -0.06250       -0.43750       -0.31250
 BRILLOUIN|   195           0.00391       -0.06250       -0.43750       -0.18750
 BRILLOUIN|   196           0.00391       -0.06250       -0.43750       -0.06250
 BRILLOUIN|   197           0.00391       -0.06250       -0.43750        0.06250
 BRILLOUIN|   198           0.00391       -0.06250       -0.43750        0.18750
 BRILLOUIN|   199           0.00391       -0.06250       -0.43750        0.31250
 BRILLOUIN|   200           0.00391       -0.06250       -0.43750        0.43750
 BRILLOUIN|   201           0.00391       -0.06250       -0.31250       -0.43750
 BRILLOUIN|   202           0.00391       -0.06250       -0.31250       -0.31250
 BRILLOUIN|   203           0.00391       -0.06250       -0.31250       -0.18750
 BRILLOUIN|   204           0.00391       -0.06250       -0.31250       -0.06250
 BRILLOUIN|   205           0.00391       -0.06250       -0.31250        0.06250
 BRILLOUIN|   206           0.00391       -0.06250       -0.31250        0.18750
 BRILLOUIN|   207           0.00391       -0.06250       -0.31250        0.31250
 BRILLOUIN|   208           0.00391       -0.06250       -0.31250        0.43750
 BRILLOUIN|   209           0.00391       -0.06250       -0.18750       -0.43750
 BRILLOUIN|   210           0.00391       -0.06250       -0.18750       -0.31250
 BRILLOUIN|   211           0.00391       -0.06250       -0.18750       -0.18750
 BRILLOUIN|   212           0.00391       -0.06250       -0.18750       -0.06250
 BRILLOUIN|   213           0.00391       -0.06250       -0.18750        0.06250
 BRILLOUIN|   214           0.00391       -0.06250       -0.18750        0.18750
 BRILLOUIN|   215           0.00391       -0.06250       -0.18750        0.31250
 BRILLOUIN|   216           0.00391       -0.06250       -0.18750        0.43750
 BRILLOUIN|   217           0.00391       -0.06250       -0.06250       -0.43750
 BRILLOUIN|   218           0.00391       -0.06250       -0.06250       -0.31250
 BRILLOUIN|   219           0.00391       -0.06250       -0.06250       -0.18750
 BRILLOUIN|   220           0.00391       -0.06250       -0.06250       -0.06250
 BRILLOUIN|   221           0.00391       -0.06250       -0.06250        0.06250
 BRILLOUIN|   222           0.00391       -0.06250       -0.06250        0.18750
 BRILLOUIN|   223           0.00391       -0.06250       -0.06250        0.31250
 BRILLOUIN|   224           0.00391       -0.06250       -0.06250        0.43750
 BRILLOUIN|   225           0.00391       -0.06250        0.06250       -0.43750
 BRILLOUIN|   226           0.00391       -0.06250        0.06250       -0.31250
 BRILLOUIN|   227           0.00391       -0.06250        0.06250       -0.18750
 BRILLOUIN|   228           0.00391       -0.06250        0.06250       -0.06250
 BRILLOUIN|   229           0.00391       -0.06250        0.06250        0.06250
 BRILLOUIN|   230           0.00391       -0.06250        0.06250        0.18750
 BRILLOUIN|   231           0.00391       -0.06250        0.06250        0.31250
 BRILLOUIN|   232           0.00391       -0.06250        0.06250        0.43750
 BRILLOUIN|   233           0.00391       -0.06250        0.18750       -0.43750
 BRILLOUIN|   234           0.00391       -0.06250        0.18750       -0.31250
 BRILLOUIN|   235           0.00391       -0.06250        0.18750       -0.18750
 BRILLOUIN|   236           0.00391       -0.06250        0.18750       -0.06250
 BRILLOUIN|   237           0.00391       -0.06250        0.18750        0.06250
 BRILLOUIN|   238           0.00391       -0.06250        0.18750        0.18750
 BRILLOUIN|   239           0.00391       -0.06250        0.18750        0.31250
 BRILLOUIN|   240           0.00391       -0.06250        0.18750        0.43750
 BRILLOUIN|   241           0.00391       -0.06250        0.31250       -0.43750
 BRILLOUIN|   242           0.00391       -0.06250        0.31250       -0.31250
 BRILLOUIN|   243           0.00391       -0.06250        0.31250       -0.18750
 BRILLOUIN|   244           0.00391       -0.06250        0.31250       -0.06250
 BRILLOUIN|   245           0.00391       -0.06250        0.31250        0.06250
 BRILLOUIN|   246           0.00391       -0.06250        0.31250        0.18750
 BRILLOUIN|   247           0.00391       -0.06250        0.31250        0.31250
 BRILLOUIN|   248           0.00391       -0.06250        0.31250        0.43750
 BRILLOUIN|   249           0.00391       -0.06250        0.43750       -0.43750
 BRILLOUIN|   250           0.00391       -0.06250        0.43750       -0.31250
 BRILLOUIN|   251           0.00391       -0.06250        0.43750       -0.18750
 BRILLOUIN|   252           0.00391       -0.06250        0.43750       -0.06250
 BRILLOUIN|   253           0.00391       -0.06250        0.43750        0.06250
 BRILLOUIN|   254           0.00391       -0.06250        0.43750        0.18750
 BRILLOUIN|   255           0.00391       -0.06250        0.43750        0.31250
 BRILLOUIN|   256           0.00391       -0.06250        0.43750        0.43750
 *******************************************************************************

 *******************************************************************************
 *******************************************************************************
 **                                                                           **
 **     #####                         ##              ##                      **
 **    ##   ##            ##          ##              ##                      **
 **   ##     ##                       ##            ######                    **
 **   ##     ##  ##   ##  ##   #####  ##  ##   ####   ##    #####    #####    **
 **   ##     ##  ##   ##  ##  ##      ## ##   ##      ##   ##   ##  ##   ##   **
 **   ##  ## ##  ##   ##  ##  ##      ####     ###    ##   ######   ######    **
 **    ##  ###   ##   ##  ##  ##      ## ##      ##   ##   ##       ##        **
 **     #######   #####   ##   #####  ##  ##  ####    ##    #####   ##        **
 **           ##                                                    ##        **
 **                                                                           **
 **                                                ... make the atoms dance   **
 **                                                                           **
 **            Copyright (C) by CP2K developers group (2000-2025)             **
 **                      J. Chem. Phys. 152, 194103 (2020)                    **
 **                                                                           **
 *******************************************************************************

 DFT| Spin unrestricted (spin-polarized) Kohn-Sham calculation               UKS
 DFT| Multiplicity                                                             1
 DFT| Number of spin states                                                    2
 DFT| Charge                                                                   0
 DFT| Self-interaction correction (SIC)                                       NO
 DFT| Cutoffs: density                                              1.000000E-10
 DFT|          gradient                                             1.000000E-10
 DFT|          tau                                                  1.000000E-10
 DFT|          cutoff_smoothing_range                               0.000000E+00
 DFT| XC density smoothing                                                  NONE
 DFT| XC derivatives                                                          PW

 FUNCTIONAL| PBE:
 FUNCTIONAL| J.P.Perdew, K.Burke, M.Ernzerhof, Phys. Rev. Letter, vol. 77, n 18,
 FUNCTIONAL|  pp. 3865-3868, (1996) {spin polarized}                            


 QS| Method:                                                                 GPW
 QS| Density plane wave grid type                        NON-SPHERICAL FULLSPACE
 QS| Number of grid levels:                                                    4
 QS| Density cutoff [a.u.]:                                                500.0
 QS| Multi grid cutoff [a.u.]: 1) grid level                               500.0
 QS|                           2) grid level                               166.7
 QS|                           3) grid level                                55.6
 QS|                           4) grid level                                18.5
 QS| Grid level progression factor:                                          3.0
 QS| Relative density cutoff [a.u.]:                                        50.0
 QS| Interaction thresholds: eps_pgf_orb:                                1.0E-16
 QS|                         eps_filter_matrix:                          0.0E+00
 QS|                         eps_core_charge:                            1.0E-18
 QS|                         eps_rho_gspace:                             1.0E-16
 QS|                         eps_rho_rspace:                             1.0E-16
 QS|                         eps_gvg_rspace:                             1.0E-08
 QS|                         eps_ppl:                                    1.0E-02
 QS|                         eps_ppnl:                                   1.0E-10


 ATOMIC KIND INFORMATION

  1. Atomic kind: Mn1                                   Number of atoms:       1

     Orbital Basis Set                                aug-DZVP-MOLOPT-GTH-tier-2

       Number of orbital shell sets:                                           1
       Number of orbital shells:                                              13
       Number of primitive Cartesian functions:                                7
       Number of Cartesian basis functions:                                   66
       Number of spherical basis functions:                                   51
       Norm type:                                                              2

       Normalised Cartesian orbitals:

                        Set   Shell   Orbital            Exponent    Coefficient

                          1       1    2s                0.101924      -0.010166
                                                         0.186818       0.000000
                                                         0.342420      -0.029553
                                                         0.889601      -0.406285
                                                         2.164527      -0.802059
                                                         4.848055       1.056057
                                                         8.544553       0.225258

                          1       2    3s                0.101924       0.132117
                                                         0.186818       0.000000
                                                         0.342420       0.057596
                                                         0.889601      -0.352840
                                                         2.164527      -0.238705
                                                         4.848055       0.210221
                                                         8.544553       0.030720

                          1       3    4s                0.101924       0.185513
                                                         0.186818       0.000000
                                                         0.342420      -0.835626
                                                         0.889601       1.097098
                                                         2.164527      -0.116441
                                                         4.848055       0.622702
                                                         8.544553       0.284362

                          1       4    5s                0.101924       0.023806
                                                         0.186818       0.003122
                                                         0.342420       0.262449
                                                         0.889601       0.010065
                                                         2.164527       0.000000
                                                         4.848055       0.000000
                                                         8.544553       0.000000

                          1       5    3px               0.101924      -0.000452
                                                         0.186818       0.000000
                                                         0.342420       0.034948
                                                         0.889601       0.563014
                                                         2.164527       1.858826
                                                         4.848055       1.259553
                                                         8.544553      -1.951927
                          1       5    3py               0.101924      -0.000452
                                                         0.186818       0.000000
                                                         0.342420       0.034948
                                                         0.889601       0.563014
                                                         2.164527       1.858826
                                                         4.848055       1.259553
                                                         8.544553      -1.951927
                          1       5    3pz               0.101924      -0.000452
                                                         0.186818       0.000000
                                                         0.342420       0.034948
                                                         0.889601       0.563014
                                                         2.164527       1.858826
                                                         4.848055       1.259553
                                                         8.544553      -1.951927

                          1       6    4px               0.101924       0.053179
                                                         0.186818       0.000000
                                                         0.342420       0.206414
                                                         0.889601      -0.192940
                                                         2.164527      -0.584760
                                                         4.848055      -0.162349
                                                         8.544553      -0.013413
                          1       6    4py               0.101924       0.053179
                                                         0.186818       0.000000
                                                         0.342420       0.206414
                                                         0.889601      -0.192940
                                                         2.164527      -0.584760
                                                         4.848055      -0.162349
                                                         8.544553      -0.013413
                          1       6    4pz               0.101924       0.053179
                                                         0.186818       0.000000
                                                         0.342420       0.206414
                                                         0.889601      -0.192940
                                                         2.164527      -0.584760
                                                         4.848055      -0.162349
                                                         8.544553      -0.013413

                          1       7    5px               0.101924       0.088237
                                                         0.186818      -0.025348
                                                         0.342420       0.021003
                                                         0.889601       0.069275
                                                         2.164527       0.000000
                                                         4.848055       0.000000
                                                         8.544553       0.000000
                          1       7    5py               0.101924       0.088237
                                                         0.186818      -0.025348
                                                         0.342420       0.021003
                                                         0.889601       0.069275
                                                         2.164527       0.000000
                                                         4.848055       0.000000
                                                         8.544553       0.000000
                          1       7    5pz               0.101924       0.088237
                                                         0.186818      -0.025348
                                                         0.342420       0.021003
                                                         0.889601       0.069275
                                                         2.164527       0.000000
                                                         4.848055       0.000000
                                                         8.544553       0.000000

                          1       8    4dx2              0.101924       0.002387
                                                         0.186818       0.000000
                                                         0.342420       0.078100
                                                         0.889601       0.468074
                                                         2.164527       2.075032
                                                         4.848055       4.951335
                                                         8.544553       6.814972
                          1       8    4dxy              0.101924       0.004135
                                                         0.186818       0.000000
                                                         0.342420       0.135273
                                                         0.889601       0.810728
                                                         2.164527       3.594061
                                                         4.848055       8.575964
                                                         8.544553      11.803877
                          1       8    4dxz              0.101924       0.004135
                                                         0.186818       0.000000
                                                         0.342420       0.135273
                                                         0.889601       0.810728
                                                         2.164527       3.594061
                                                         4.848055       8.575964
                                                         8.544553      11.803877
                          1       8    4dy2              0.101924       0.002387
                                                         0.186818       0.000000
                                                         0.342420       0.078100
                                                         0.889601       0.468074
                                                         2.164527       2.075032
                                                         4.848055       4.951335
                                                         8.544553       6.814972
                          1       8    4dyz              0.101924       0.004135
                                                         0.186818       0.000000
                                                         0.342420       0.135273
                                                         0.889601       0.810728
                                                         2.164527       3.594061
                                                         4.848055       8.575964
                                                         8.544553      11.803877
                          1       8    4dz2              0.101924       0.002387
                                                         0.186818       0.000000
                                                         0.342420       0.078100
                                                         0.889601       0.468074
                                                         2.164527       2.075032
                                                         4.848055       4.951335
                                                         8.544553       6.814972

                          1       9    5dx2              0.101924       0.020099
                                                         0.186818       0.000000
                                                         0.342420       0.101409
                                                         0.889601      -0.285805
                                                         2.164527      -1.776315
                                                         4.848055      -3.936284
                                                         8.544553      -5.197421
                          1       9    5dxy              0.101924       0.034812
                                                         0.186818       0.000000
                                                         0.342420       0.175646
                                                         0.889601      -0.495029
                                                         2.164527      -3.076667
                                                         4.848055      -6.817843
                                                         8.544553      -9.002197
                          1       9    5dxz              0.101924       0.034812
                                                         0.186818       0.000000
                                                         0.342420       0.175646
                                                         0.889601      -0.495029
                                                         2.164527      -3.076667
                                                         4.848055      -6.817843
                                                         8.544553      -9.002197
                          1       9    5dy2              0.101924       0.020099
                                                         0.186818       0.000000
                                                         0.342420       0.101409
                                                         0.889601      -0.285805
                                                         2.164527      -1.776315
                                                         4.848055      -3.936284
                                                         8.544553      -5.197421
                          1       9    5dyz              0.101924       0.034812
                                                         0.186818       0.000000
                                                         0.342420       0.175646
                                                         0.889601      -0.495029
                                                         2.164527      -3.076667
                                                         4.848055      -6.817843
                                                         8.544553      -9.002197
                          1       9    5dz2              0.101924       0.020099
                                                         0.186818       0.000000
                                                         0.342420       0.101409
                                                         0.889601      -0.285805
                                                         2.164527      -1.776315
                                                         4.848055      -3.936284
                                                         8.544553      -5.197421

                          1      10    6dx2              0.101924       0.026113
                                                         0.186818       0.006799
                                                         0.342420       0.019987
                                                         0.889601       0.106258
                                                         2.164527       0.000000
                                                         4.848055       0.000000
                                                         8.544553       0.000000
                          1      10    6dxy              0.101924       0.045229
                                                         0.186818       0.011776
                                                         0.342420       0.034619
                                                         0.889601       0.184044
                                                         2.164527       0.000000
                                                         4.848055       0.000000
                                                         8.544553       0.000000
                          1      10    6dxz              0.101924       0.045229
                                                         0.186818       0.011776
                                                         0.342420       0.034619
                                                         0.889601       0.184044
                                                         2.164527       0.000000
                                                         4.848055       0.000000
                                                         8.544553       0.000000
                          1      10    6dy2              0.101924       0.026113
                                                         0.186818       0.006799
                                                         0.342420       0.019987
                                                         0.889601       0.106258
                                                         2.164527       0.000000
                                                         4.848055       0.000000
                                                         8.544553       0.000000
                          1      10    6dyz              0.101924       0.045229
                                                         0.186818       0.011776
                                                         0.342420       0.034619
                                                         0.889601       0.184044
                                                         2.164527       0.000000
                                                         4.848055       0.000000
                                                         8.544553       0.000000
                          1      10    6dz2              0.101924       0.026113
                                                         0.186818       0.006799
                                                         0.342420       0.019987
                                                         0.889601       0.106258
                                                         2.164527       0.000000
                                                         4.848055       0.000000
                                                         8.544553       0.000000

                          1      11    5fx3              0.101924      -0.002552
                                                         0.186818       0.000000
                                                         0.342420      -0.069455
                                                         0.889601      -0.483279
                                                         2.164527      -0.041699
                                                         4.848055      -1.413171
                                                         8.544553       1.533133
                          1      11    5fx2y             0.101924      -0.005706
                                                         0.186818       0.000000
                                                         0.342420      -0.155306
                                                         0.889601      -1.080644
                                                         2.164527      -0.093241
                                                         4.848055      -3.159947
                                                         8.544553       3.428189
                          1      11    5fx2z             0.101924      -0.005706
                                                         0.186818       0.000000
                                                         0.342420      -0.155306
                                                         0.889601      -1.080644
                                                         2.164527      -0.093241
                                                         4.848055      -3.159947
                                                         8.544553       3.428189
                          1      11    5fxy2             0.101924      -0.005706
                                                         0.186818       0.000000
                                                         0.342420      -0.155306
                                                         0.889601      -1.080644
                                                         2.164527      -0.093241
                                                         4.848055      -3.159947
                                                         8.544553       3.428189
                          1      11    5fxyz             0.101924      -0.009882
                                                         0.186818       0.000000
                                                         0.342420      -0.268999
                                                         0.889601      -1.871731
                                                         2.164527      -0.161498
                                                         4.848055      -5.473189
                                                         8.544553       5.937797
                          1      11    5fxz2             0.101924      -0.005706
                                                         0.186818       0.000000
                                                         0.342420      -0.155306
                                                         0.889601      -1.080644
                                                         2.164527      -0.093241
                                                         4.848055      -3.159947
                                                         8.544553       3.428189
                          1      11    5fy3              0.101924      -0.002552
                                                         0.186818       0.000000
                                                         0.342420      -0.069455
                                                         0.889601      -0.483279
                                                         2.164527      -0.041699
                                                         4.848055      -1.413171
                                                         8.544553       1.533133
                          1      11    5fy2z             0.101924      -0.005706
                                                         0.186818       0.000000
                                                         0.342420      -0.155306
                                                         0.889601      -1.080644
                                                         2.164527      -0.093241
                                                         4.848055      -3.159947
                                                         8.544553       3.428189
                          1      11    5fyz2             0.101924      -0.005706
                                                         0.186818       0.000000
                                                         0.342420      -0.155306
                                                         0.889601      -1.080644
                                                         2.164527      -0.093241
                                                         4.848055      -3.159947
                                                         8.544553       3.428189
                          1      11    5fz3              0.101924      -0.002552
                                                         0.186818       0.000000
                                                         0.342420      -0.069455
                                                         0.889601      -0.483279
                                                         2.164527      -0.041699
                                                         4.848055      -1.413171
                                                         8.544553       1.533133

                          1      12    6fx3              0.101924       0.010626
                                                         0.186818      -0.010267
                                                         0.342420       0.000950
                                                         0.889601       0.008139
                                                         2.164527       0.000000
                                                         4.848055       0.000000
                                                         8.544553       0.000000
                          1      12    6fx2y             0.101924       0.023761
                                                         0.186818      -0.022958
                                                         0.342420       0.002124
                                                         0.889601       0.018199
                                                         2.164527       0.000000
                                                         4.848055       0.000000
                                                         8.544553       0.000000
                          1      12    6fx2z             0.101924       0.023761
                                                         0.186818      -0.022958
                                                         0.342420       0.002124
                                                         0.889601       0.018199
                                                         2.164527       0.000000
                                                         4.848055       0.000000
                                                         8.544553       0.000000
                          1      12    6fxy2             0.101924       0.023761
                                                         0.186818      -0.022958
                                                         0.342420       0.002124
                                                         0.889601       0.018199
                                                         2.164527       0.000000
                                                         4.848055       0.000000
                                                         8.544553       0.000000
                          1      12    6fxyz             0.101924       0.041156
                                                         0.186818      -0.039764
                                                         0.342420       0.003678
                                                         0.889601       0.031521
                                                         2.164527       0.000000
                                                         4.848055       0.000000
                                                         8.544553       0.000000
                          1      12    6fxz2             0.101924       0.023761
                                                         0.186818      -0.022958
                                                         0.342420       0.002124
                                                         0.889601       0.018199
                                                         2.164527       0.000000
                                                         4.848055       0.000000
                                                         8.544553       0.000000
                          1      12    6fy3              0.101924       0.010626
                                                         0.186818      -0.010267
                                                         0.342420       0.000950
                                                         0.889601       0.008139
                                                         2.164527       0.000000
                                                         4.848055       0.000000
                                                         8.544553       0.000000
                          1      12    6fy2z             0.101924       0.023761
                                                         0.186818      -0.022958
                                                         0.342420       0.002124
                                                         0.889601       0.018199
                                                         2.164527       0.000000
                                                         4.848055       0.000000
                                                         8.544553       0.000000
                          1      12    6fyz2             0.101924       0.023761
                                                         0.186818      -0.022958
                                                         0.342420       0.002124
                                                         0.889601       0.018199
                                                         2.164527       0.000000
                                                         4.848055       0.000000
                                                         8.544553       0.000000
                          1      12    6fz3              0.101924       0.010626
                                                         0.186818      -0.010267
                                                         0.342420       0.000950
                                                         0.889601       0.008139
                                                         2.164527       0.000000
                                                         4.848055       0.000000
                                                         8.544553       0.000000

                          1      13    6gx4              0.101924       0.003193
                                                         0.186818      -0.009835
                                                         0.342420       0.002034
                                                         0.889601       0.028095
                                                         2.164527       0.000000
                                                         4.848055       0.000000
                                                         8.544553       0.000000
                          1      13    6gx3y             0.101924       0.008447
                                                         0.186818      -0.026020
                                                         0.342420       0.005382
                                                         0.889601       0.074332
                                                         2.164527       0.000000
                                                         4.848055       0.000000
                                                         8.544553       0.000000
                          1      13    6gx3z             0.101924       0.008447
                                                         0.186818      -0.026020
                                                         0.342420       0.005382
                                                         0.889601       0.074332
                                                         2.164527       0.000000
                                                         4.848055       0.000000
                                                         8.544553       0.000000
                          1      13    6gx2y2            0.101924       0.010906
                                                         0.186818      -0.033592
                                                         0.342420       0.006948
                                                         0.889601       0.095963
                                                         2.164527       0.000000
                                                         4.848055       0.000000
                                                         8.544553       0.000000
                          1      13    6gx2yz            0.101924       0.018889
                                                         0.186818      -0.058183
                                                         0.342420       0.012034
                                                         0.889601       0.166212
                                                         2.164527       0.000000
                                                         4.848055       0.000000
                                                         8.544553       0.000000
                          1      13    6gx2z2            0.101924       0.010906
                                                         0.186818      -0.033592
                                                         0.342420       0.006948
                                                         0.889601       0.095963
                                                         2.164527       0.000000
                                                         4.848055       0.000000
                                                         8.544553       0.000000
                          1      13    6gxy3             0.101924       0.008447
                                                         0.186818      -0.026020
                                                         0.342420       0.005382
                                                         0.889601       0.074332
                                                         2.164527       0.000000
                                                         4.848055       0.000000
                                                         8.544553       0.000000
                          1      13    6gxy2z            0.101924       0.018889
                                                         0.186818      -0.058183
                                                         0.342420       0.012034
                                                         0.889601       0.166212
                                                         2.164527       0.000000
                                                         4.848055       0.000000
                                                         8.544553       0.000000
                          1      13    6gxyz2            0.101924       0.018889
                                                         0.186818      -0.058183
                                                         0.342420       0.012034
                                                         0.889601       0.166212
                                                         2.164527       0.000000
                                                         4.848055       0.000000
                                                         8.544553       0.000000
                          1      13    6gxz3             0.101924       0.008447
                                                         0.186818      -0.026020
                                                         0.342420       0.005382
                                                         0.889601       0.074332
                                                         2.164527       0.000000
                                                         4.848055       0.000000
                                                         8.544553       0.000000
                          1      13    6gy4              0.101924       0.003193
                                                         0.186818      -0.009835
                                                         0.342420       0.002034
                                                         0.889601       0.028095
                                                         2.164527       0.000000
                                                         4.848055       0.000000
                                                         8.544553       0.000000
                          1      13    6gy3z             0.101924       0.008447
                                                         0.186818      -0.026020
                                                         0.342420       0.005382
                                                         0.889601       0.074332
                                                         2.164527       0.000000
                                                         4.848055       0.000000
                                                         8.544553       0.000000
                          1      13    6gy2z2            0.101924       0.010906
                                                         0.186818      -0.033592
                                                         0.342420       0.006948
                                                         0.889601       0.095963
                                                         2.164527       0.000000
                                                         4.848055       0.000000
                                                         8.544553       0.000000
                          1      13    6gyz3             0.101924       0.008447
                                                         0.186818      -0.026020
                                                         0.342420       0.005382
                                                         0.889601       0.074332
                                                         2.164527       0.000000
                                                         4.848055       0.000000
                                                         8.544553       0.000000
                          1      13    6gz4              0.101924       0.003193
                                                         0.186818      -0.009835
                                                         0.342420       0.002034
                                                         0.889601       0.028095
                                                         2.164527       0.000000
                                                         4.848055       0.000000
                                                         8.544553       0.000000

       Atomic covalent radius [Angstrom]:                                  1.170

       Atomic van der Waals radius [Angstrom]:                             1.520

     GTH Potential information for                                       GTH-PBE

       Description:                       Goedecker-Teter-Hutter pseudopotential
                                           Goedecker et al., PRB 54, 1703 (1996)
                                          Hartwigsen et al., PRB 58, 3641 (1998)
                                                      Krack, TCA 114, 145 (2005)

       Gaussian exponent of the core charge distribution:               3.753049
       Electronic configuration (s p d ...):                           4   6   5

       Parameters of the local part of the GTH pseudopotential:

                          rloc        C1          C2          C3          C4
                        0.365000    6.093046   -0.446469

       Parameters of the non-local part of the GTH (SOC) pseudopotential:

                   l      r(l)      h(i,j,l)
                                    k(i,j,l)
                   0    0.295686    1.887120    6.356837
                                    6.356837   -8.206641
                   1    0.245613   -6.570025    7.983360
                                    7.983360   -9.446039
                                    0.183149   -0.046736
                                   -0.046736    0.055299
                   2    0.222523  -11.612051
                                    0.009511

  2. Atomic kind: Mn2                                   Number of atoms:       3

     Orbital Basis Set                                aug-DZVP-MOLOPT-GTH-tier-2

       Number of orbital shell sets:                                           1
       Number of orbital shells:                                              13
       Number of primitive Cartesian functions:                                7
       Number of Cartesian basis functions:                                   66
       Number of spherical basis functions:                                   51
       Norm type:                                                              2

       Normalised Cartesian orbitals:

                        Set   Shell   Orbital            Exponent    Coefficient

                          1       1    2s                0.101924      -0.010166
                                                         0.186818       0.000000
                                                         0.342420      -0.029553
                                                         0.889601      -0.406285
                                                         2.164527      -0.802059
                                                         4.848055       1.056057
                                                         8.544553       0.225258

                          1       2    3s                0.101924       0.132117
                                                         0.186818       0.000000
                                                         0.342420       0.057596
                                                         0.889601      -0.352840
                                                         2.164527      -0.238705
                                                         4.848055       0.210221
                                                         8.544553       0.030720

                          1       3    4s                0.101924       0.185513
                                                         0.186818       0.000000
                                                         0.342420      -0.835626
                                                         0.889601       1.097098
                                                         2.164527      -0.116441
                                                         4.848055       0.622702
                                                         8.544553       0.284362

                          1       4    5s                0.101924       0.023806
                                                         0.186818       0.003122
                                                         0.342420       0.262449
                                                         0.889601       0.010065
                                                         2.164527       0.000000
                                                         4.848055       0.000000
                                                         8.544553       0.000000

[...]
                         21        0.213855E-02                -103.442828542566
                         22        0.221942E-02                -103.442828485485
                         23        0.220652E-02                -103.442828488551
                         24        0.214221E-02                -103.442828537253
                         25        0.198091E-02                -103.442828663417
                         26        0.150588E-02                -103.442829409582
                         27        0.157279E-02                -103.442829411079
                         28        0.158392E-02                -103.442829408232
                         29        0.158887E-02                -103.442829406690
                         30        0.158754E-02                -103.442829406833
                         31        0.130887E-02                -103.442829474954
                         32        0.510885E-03                -103.442829620488
                         33        0.514669E-03                -103.442829620390
                         34        0.515245E-03                -103.442829620275
                         35        0.515836E-03                -103.442829620149
                         36        0.516687E-03                -103.442829619971
                         37        0.585561E-03                -103.442829654838
                         38        0.373411E-03                -103.442829670552
                         39        0.374344E-03                -103.442829670541
                         40        0.375000E-03                -103.442829670526
                         41        0.375778E-03                -103.442829670498
                         42        0.381027E-03                -103.442829670245
                         43        0.354464E-03                -103.442829671940
                         44        0.122941E-03                -103.442829682449
                         45        0.122937E-03                -103.442829682454
                         46        0.122915E-03                -103.442829682457
                         47        0.122902E-03                -103.442829682457
                         48        0.124382E-03                -103.442829682376
                         49        0.140458E-03                -103.442829684431
                         50        0.898725E-04                -103.442829685330
 No convergence within maximum number of iterations 

 Energy components [Hartree]           Total Energy ::         -103.442829685330
                                        Band Energy ::          -19.339568311560
                                     Kinetic Energy ::           54.050611595211
                                   Potential Energy ::         -157.493441280541
                                      Virial (-V/T) ::            2.913814231373
                                        Core Energy ::         -179.974161855548
                                          XC Energy ::          -11.053665016641
                                     Coulomb Energy ::           87.584997186859
                       Total Pseudopotential Energy ::         -234.132038772044
                       Local Pseudopotential Energy ::         -219.889940626982
                    Nonlocal Pseudopotential Energy ::          -14.242098145062
                                        Confinement ::            1.072653212857

 Orbital energies  State     Spin  L     Occupation   Energy[a.u.]    Energy[eV]

                       1    alpha  0          1.000      -3.147668    -85.652393
                       2    alpha  0          1.000      -0.128100     -3.485780
                       1     beta  0          1.000      -3.233142    -87.978265
                       2     beta  0          1.000      -0.144824     -3.940855

                       1    alpha  1          3.000      -1.896294    -51.600776
                       1     beta  1          3.000      -1.979311    -53.859801

                       1    alpha  2          1.500      -0.163300     -4.443614
                       1     beta  2          3.500      -0.232591     -6.329135


 Total Electron Density at R=0:                                         0.007039

 Spin 1
 Re-scaling the density matrix to get the right number of electrons for spin 1
                  # Electrons              Trace(P)               Scaling factor
                           30                28.000                        1.071

 Spin 2
 Re-scaling the density matrix to get the right number of electrons for spin 2
                  # Electrons              Trace(P)               Scaling factor
                           30                32.000                        0.938


 SCF WAVEFUNCTION OPTIMIZATION

  Step     Update method      Time    Convergence         Total energy    Change
  ------------------------------------------------------------------------------
     1 NoMix/Diag. 0.10E+00   38.2     0.80289739      -418.2552903128 -4.18E+02
     2 Broy./Diag. 0.10E+00   38.5     0.37810016      -416.6297020114  1.63E+00
     3 Broy./Diag. 0.10E+00   38.8     0.15605740      -419.0433331639 -2.41E+00
     4 Broy./Diag. 0.10E+00   38.7     0.02876289      -418.5363737932  5.07E-01
     5 Broy./Diag. 0.10E+00   38.5     0.03539494      -417.0195172122  1.52E+00
     6 Broy./Diag. 0.10E+00   38.7     0.01029144      -415.4438047410  1.58E+00
     7 Broy./Diag. 0.10E+00   38.7     0.05537969      -415.9400772325 -4.96E-01
     8 Broy./Diag. 0.10E+00   38.7     0.04732778      -416.2992903063 -3.59E-01
     9 Broy./Diag. 0.10E+00   38.3     0.03306193      -416.1741609533  1.25E-01
    10 Broy./Diag. 0.10E+00   39.1     0.01535515      -416.0312743878  1.43E-01
    11 Broy./Diag. 0.10E+00   38.5     0.01260835      -416.0019608673  2.93E-02
    12 Broy./Diag. 0.10E+00   38.8     0.07904664      -416.0873344533 -8.54E-02
    13 Broy./Diag. 0.10E+00   38.8     0.05009094      -416.5048818882 -4.18E-01
    14 Broy./Diag. 0.10E+00   38.8     0.12660737      -416.6909432967 -1.86E-01
    15 Broy./Diag. 0.10E+00   38.5     0.06226129      -416.2301046879  4.61E-01
    16 Broy./Diag. 0.10E+00   38.5     0.01979462      -416.5496902601 -3.20E-01
    17 Broy./Diag. 0.10E+00   38.6     0.00411751      -416.5888477266 -3.92E-02
    18 Broy./Diag. 0.10E+00   38.8     0.01050168      -416.5797625576  9.09E-03
    19 Broy./Diag. 0.10E+00   39.4     0.02222657      -416.6229684506 -4.32E-02
    20 Broy./Diag. 0.10E+00   38.9     0.00372442      -416.5519519088  7.10E-02
    21 Broy./Diag. 0.10E+00   39.3     0.00123279      -416.4709106471  8.10E-02
    22 Broy./Diag. 0.10E+00   38.9     0.00545532      -416.4545341930  1.64E-02
    23 Broy./Diag. 0.10E+00   38.8     0.03295200      -416.5266769889 -7.21E-02
    24 Broy./Diag. 0.10E+00   38.9     0.00560335      -416.4598746100  6.68E-02
    25 Broy./Diag. 0.10E+00   38.6     0.04209433      -416.4443200455  1.56E-02
    26 Broy./Diag. 0.10E+00   38.4     0.07983417      -416.1006723475  3.44E-01
    27 Broy./Diag. 0.10E+00   39.3     0.00973343      -416.4515458280 -3.51E-01
    28 Broy./Diag. 0.10E+00   38.8     0.00628713      -416.3768080527  7.47E-02
    29 Broy./Diag. 0.10E+00   39.0     0.01311402      -416.3310734736  4.57E-02
    30 Broy./Diag. 0.10E+00   38.8     0.02212448      -416.3754682260 -4.44E-02
    31 Broy./Diag. 0.10E+00   38.8     0.05166074      -416.3197678175  5.57E-02
    32 Broy./Diag. 0.10E+00   38.4     0.04852000      -416.6407653696 -3.21E-01
    33 Broy./Diag. 0.10E+00   39.2     0.01425331      -416.5828351863  5.79E-02
    34 Broy./Diag. 0.10E+00   39.0     0.00994095      -416.4651166238  1.18E-01
    35 Broy./Diag. 0.10E+00   38.3     0.05127143      -416.2934446013  1.72E-01
    36 Broy./Diag. 0.10E+00   38.2     0.02943998      -415.9740616653  3.19E-01
    37 Broy./Diag. 0.10E+00   38.7     0.00462788      -416.2174065283 -2.43E-01
    38 Broy./Diag. 0.10E+00   38.8     0.00223004      -416.1804018247  3.70E-02
    39 Broy./Diag. 0.10E+00   38.4     0.04876284      -416.1416291569  3.88E-02
    40 Broy./Diag. 0.10E+00   38.9     0.00498860      -416.3689382361 -2.27E-01
    41 Broy./Diag. 0.10E+00   38.7     0.01475951      -416.3738251491 -4.89E-03
    42 Broy./Diag. 0.10E+00   38.8     0.00737548      -416.3572877523  1.65E-02
    43 Broy./Diag. 0.10E+00   39.0     0.01843489      -416.3704645966 -1.32E-02
    44 Broy./Diag. 0.10E+00   38.8     0.01032557      -416.3541812151  1.63E-02
    45 Broy./Diag. 0.10E+00   39.1     0.02237605      -416.2972992298  5.69E-02
    46 Broy./Diag. 0.10E+00   38.9     0.01950966      -416.2191146783  7.82E-02
    47 Broy./Diag. 0.10E+00   38.6     0.00490048      -416.1329755874  8.61E-02
    48 Broy./Diag. 0.10E+00   38.8     0.01759472      -416.1632487279 -3.03E-02
    49 Broy./Diag. 0.10E+00   38.7     0.06795792      -416.3160187947 -1.53E-01
    50 Broy./Diag. 0.10E+00   39.3     0.07666043      -415.8773760054  4.39E-01
    51 Broy./Diag. 0.10E+00   38.7     0.00157888      -416.3804987774 -5.03E-01
    52 Broy./Diag. 0.10E+00   38.8     0.01214703      -416.3841396075 -3.64E-03
    53 Broy./Diag. 0.10E+00   39.2     0.01735638      -416.3751837584  8.96E-03
    54 Broy./Diag. 0.10E+00   38.7     0.01148330      -416.2678837672  1.07E-01
    55 Broy./Diag. 0.10E+00   38.7     0.00307934      -416.3331475357 -6.53E-02
    56 Broy./Diag. 0.10E+00   38.7     0.00311477      -416.3104742600  2.27E-02
    57 Broy./Diag. 0.10E+00   39.5     0.03509364      -416.3071193120  3.35E-03
    58 Broy./Diag. 0.10E+00   38.8     0.03717484      -416.0387224251  2.68E-01
    59 Broy./Diag. 0.10E+00   38.5     0.06380462      -415.9973033847  4.14E-02
    60 Broy./Diag. 0.10E+00   38.7     0.07708431      -416.3798531874 -3.83E-01
    61 Broy./Diag. 0.10E+00   38.8     0.13937962      -415.6807636824  6.99E-01
    62 Broy./Diag. 0.10E+00   38.5     0.00181342      -416.5007545081 -8.20E-01
    63 Broy./Diag. 0.10E+00   38.8     0.17590311      -416.4789134813  2.18E-02
    64 Broy./Diag. 0.10E+00   38.8     0.05198117      -417.2423418238 -7.63E-01
    65 Broy./Diag. 0.10E+00   38.9     0.03204440      -417.0491473272  1.93E-01
    66 Broy./Diag. 0.10E+00   39.1     0.04452846      -416.9793198358  6.98E-02
    67 Broy./Diag. 0.10E+00   38.4     0.03145781      -416.7203250746  2.59E-01
    68 Broy./Diag. 0.10E+00   38.7     0.01963684      -416.9156939880 -1.95E-01
    69 Broy./Diag. 0.10E+00   38.8     0.00895155      -416.9841073428 -6.84E-02
    70 Broy./Diag. 0.10E+00   38.6     0.01527476      -416.9064043274  7.77E-02
    71 Broy./Diag. 0.10E+00   38.8     0.01193350      -416.9305299111 -2.41E-02
    72 Broy./Diag. 0.10E+00   38.7     0.00538540      -416.9052285131  2.53E-02
    73 Broy./Diag. 0.10E+00   38.6     0.00402491      -416.9176198276 -1.24E-02
    74 Broy./Diag. 0.10E+00   38.8     0.01240212      -416.8512409719  6.64E-02
    75 Broy./Diag. 0.10E+00   38.7     0.00379324      -416.8644992120 -1.33E-02
    76 Broy./Diag. 0.10E+00   38.5     0.01263622      -416.9098047452 -4.53E-02
    77 Broy./Diag. 0.10E+00   38.6     0.00298792      -416.8946239850  1.52E-02
    78 Broy./Diag. 0.10E+00   38.5     0.01647601      -416.8816819001  1.29E-02
    79 Broy./Diag. 0.10E+00   38.5     0.01177362      -416.9448491393 -6.32E-02
    80 Broy./Diag. 0.10E+00   38.6     0.01844565      -416.8619861992  8.29E-02
    81 Broy./Diag. 0.10E+00   38.7     0.00531007      -416.7604134546  1.02E-01
    82 Broy./Diag. 0.10E+00   38.7     0.01208983      -416.6345231997  1.26E-01
    83 Broy./Diag. 0.10E+00   38.7     0.00976499      -416.4495256274  1.85E-01
    84 Broy./Diag. 0.10E+00   38.8     0.00149260      -416.4659116981 -1.64E-02
    85 Broy./Diag. 0.10E+00   38.5     0.00268860      -416.4082979750  5.76E-02
    86 Broy./Diag. 0.10E+00   39.0     0.00259869      -416.3897071289  1.86E-02
    87 Broy./Diag. 0.10E+00   38.7     0.00951036      -416.4248821477 -3.52E-02
    88 Broy./Diag. 0.10E+00   38.6     0.00343871      -416.4839146497 -5.90E-02
    89 Broy./Diag. 0.10E+00   38.7     0.00187792      -416.4623482008  2.16E-02
    90 Broy./Diag. 0.10E+00   38.9     0.00105948      -416.4467530808  1.56E-02
    91 Broy./Diag. 0.10E+00   38.8     0.00368620      -416.4420876790  4.67E-03
    92 Broy./Diag. 0.10E+00   38.8     0.00274646      -416.4398865392  2.20E-03
    93 Broy./Diag. 0.10E+00   39.4     0.00202878      -416.4342616926  5.62E-03
    94 Broy./Diag. 0.10E+00   38.6     0.01275282      -416.4442601898 -1.00E-02
    95 Broy./Diag. 0.10E+00   38.5     0.01065416      -416.4752122736 -3.10E-02
    96 Broy./Diag. 0.10E+00   39.2     0.00554954      -416.4570868205  1.81E-02
    97 Broy./Diag. 0.10E+00   38.8     0.01727770      -416.4251940601  3.19E-02
    98 Broy./Diag. 0.10E+00   38.9     0.02251619      -416.4728063957 -4.76E-02
    99 Broy./Diag. 0.10E+00   38.6     0.02546157      -416.5032688547 -3.05E-02
   100 Broy./Diag. 0.10E+00   39.0     0.00884888      -416.4645898091  3.87E-02
   101 Broy./Diag. 0.10E+00   38.7     0.04942990      -416.4647375983 -1.48E-04
   102 Broy./Diag. 0.10E+00   38.8     0.07534593      -416.4906201081 -2.59E-02
   103 Broy./Diag. 0.10E+00   38.9     0.15274400      -416.3483384796  1.42E-01
   104 Broy./Diag. 0.10E+00   39.3     0.02275885      -416.7615291157 -4.13E-01
   105 Broy./Diag. 0.10E+00   38.8     0.00800228      -416.8745117463 -1.13E-01
   106 Broy./Diag. 0.10E+00   38.9     0.00987836      -416.8952171758 -2.07E-02
   107 Broy./Diag. 0.10E+00   38.6     0.00925769      -416.8653037557  2.99E-02
   108 Broy./Diag. 0.10E+00   38.9     0.00658928      -416.8259770251  3.93E-02
   109 Broy./Diag. 0.10E+00   38.6     0.00322283      -416.8410002143 -1.50E-02
   110 Broy./Diag. 0.10E+00   38.8     0.01210383      -416.8267538669  1.42E-02
   111 Broy./Diag. 0.10E+00   38.8     0.00507376      -416.7653158573  6.14E-02
   112 Broy./Diag. 0.10E+00   38.8     0.03972700      -416.6529829654  1.12E-01
   113 Broy./Diag. 0.10E+00   38.9     0.02693035      -416.2688024173  3.84E-01
   114 Broy./Diag. 0.10E+00   38.7     0.01328657      -416.1043797553  1.64E-01
   115 Broy./Diag. 0.10E+00   38.8     0.01057038      -416.2167358225 -1.12E-01
   116 Broy./Diag. 0.10E+00   38.2     0.01724127      -416.2114119320  5.32E-03
   117 Broy./Diag. 0.10E+00   38.3     0.02517464      -416.0763112132  1.35E-01
   118 Broy./Diag. 0.10E+00   38.5     0.02402544      -416.2539193079 -1.78E-01
   119 Broy./Diag. 0.10E+00   38.6     0.04175717      -416.3406105051 -8.67E-02
   120 Broy./Diag. 0.10E+00   38.9     0.02860017      -416.9399124918 -5.99E-01
   121 Broy./Diag. 0.10E+00   38.7     0.00425383      -417.4286971097 -4.89E-01
   122 Broy./Diag. 0.10E+00   38.5     0.01383428      -417.4357722875 -7.08E-03
   123 Broy./Diag. 0.10E+00   39.0     0.01438213      -417.4413495793 -5.58E-03
   124 Broy./Diag. 0.10E+00   38.6     0.01309854      -417.3821603506  5.92E-02
   125 Broy./Diag. 0.10E+00   38.6     0.04901469      -417.3288463203  5.33E-02
   126 Broy./Diag. 0.10E+00   38.7     0.02125182      -416.9167328180  4.12E-01
   127 Broy./Diag. 0.10E+00   38.5     0.01493417      -416.7561782718  1.61E-01
   128 Broy./Diag. 0.10E+00   39.6     0.00658565      -416.6096837682  1.46E-01
   129 Broy./Diag. 0.10E+00   38.9     0.00174657      -416.5758632042  3.38E-02
   130 Broy./Diag. 0.10E+00   39.0     0.01394755      -416.5758899378 -2.67E-05
   131 Broy./Diag. 0.10E+00   39.1     0.02421192      -416.4631588275  1.13E-01
   132 Broy./Diag. 0.10E+00   38.6     0.01801070      -416.4050929285  5.81E-02
   133 Broy./Diag. 0.10E+00   38.4     0.00853959      -416.2244364457  1.81E-01
   134 Broy./Diag. 0.10E+00   38.8     0.01200388      -416.3699875121 -1.46E-01
   135 Broy./Diag. 0.10E+00   38.7     0.03232978      -416.3544628120  1.55E-02
   136 Broy./Diag. 0.10E+00   38.7     0.03435339      -416.4371180194 -8.27E-02
   137 Broy./Diag. 0.10E+00   39.2     0.02398554      -416.3269753499  1.10E-01
   138 Broy./Diag. 0.10E+00   38.5     0.03037817      -416.1637865728  1.63E-01
   139 Broy./Diag. 0.10E+00   38.8     0.01839387      -416.1829730051 -1.92E-02
   140 Broy./Diag. 0.10E+00   39.2     0.00950411      -416.1349775175  4.80E-02
   141 Broy./Diag. 0.10E+00   39.2     0.05806174      -416.0864862952  4.85E-02
   142 Broy./Diag. 0.10E+00   38.2     0.12467571      -416.0333824660  5.31E-02
   143 Broy./Diag. 0.10E+00   38.7     0.11699382      -416.1595895686 -1.26E-01
   144 Broy./Diag. 0.10E+00   39.0     0.19120114      -416.0612767585  9.83E-02
   145 Broy./Diag. 0.10E+00   38.4     0.01218825      -416.4142003201 -3.53E-01
   146 Broy./Diag. 0.10E+00   38.7     0.01201458      -416.4742946595 -6.01E-02
   147 Broy./Diag. 0.10E+00   39.6     0.08576503      -416.5624700746 -8.82E-02
   148 Broy./Diag. 0.10E+00   38.2     0.05513604      -416.6118699074 -4.94E-02
   149 Broy./Diag. 0.10E+00   39.2     0.00718976      -416.5951347347  1.67E-02
   150 Broy./Diag. 0.10E+00   39.0     0.02230200      -416.5603132566  3.48E-02
   151 Broy./Diag. 0.10E+00   39.1     0.01986212      -416.4836801684  7.66E-02
   152 Broy./Diag. 0.10E+00   39.1     0.01029449      -416.4084073298  7.53E-02
   153 Broy./Diag. 0.10E+00   38.7     0.01191717      -416.3657562698  4.27E-02
   154 Broy./Diag. 0.10E+00   38.7     0.02622183      -416.4818252395 -1.16E-01
   155 Broy./Diag. 0.10E+00   38.3     0.03241143      -416.5835455367 -1.02E-01
   156 Broy./Diag. 0.10E+00   38.7     0.05938941      -416.5331555747  5.04E-02
   157 Broy./Diag. 0.10E+00   38.3     0.13014556      -416.3955045192  1.38E-01
   158 Broy./Diag. 0.10E+00   39.0     0.04883049      -416.4803776931 -8.49E-02
   159 Broy./Diag. 0.10E+00   39.3     0.10253035      -416.5630288179 -8.27E-02
   160 Broy./Diag. 0.10E+00   39.3     0.00652109      -416.4639486457  9.91E-02
   161 Broy./Diag. 0.10E+00   38.5     0.05790033      -416.4849605872 -2.10E-02
   162 Broy./Diag. 0.10E+00   38.7     0.01730688      -416.5961329726 -1.11E-01
   163 Broy./Diag. 0.10E+00   39.1     0.03168051      -416.6492749194 -5.31E-02
   164 Broy./Diag. 0.10E+00   38.7     0.01803493      -416.6409498254  8.33E-03
   165 Broy./Diag. 0.10E+00   38.5     0.02865846      -416.5951677939  4.58E-02
   166 Broy./Diag. 0.10E+00   38.7     0.03286744      -416.4732731393  1.22E-01
   167 Broy./Diag. 0.10E+00   38.7     0.00869913      -416.3713101505  1.02E-01
   168 Broy./Diag. 0.10E+00   38.7     0.02172888      -416.3873009193 -1.60E-02
   169 Broy./Diag. 0.10E+00   38.2     0.06795124      -416.2744614542  1.13E-01
   170 Broy./Diag. 0.10E+00   38.8     0.04321964      -416.4097704700 -1.35E-01
   171 Broy./Diag. 0.10E+00   38.7     0.02493541      -416.5909354142 -1.81E-01
   172 Broy./Diag. 0.10E+00   38.2     0.02483844      -416.5589068565  3.20E-02
   173 Broy./Diag. 0.10E+00   38.2     0.03159538      -416.6066365330 -4.77E-02
   174 Broy./Diag. 0.10E+00   39.3     0.02434938      -416.6156468179 -9.01E-03
   175 Broy./Diag. 0.10E+00   38.7     0.03150378      -416.5419436150  7.37E-02
   176 Broy./Diag. 0.10E+00   38.7     0.05461810      -416.6068089258 -6.49E-02
   177 Broy./Diag. 0.10E+00   38.8     0.00503374      -416.3618504295  2.45E-01
   178 Broy./Diag. 0.10E+00   38.7     0.01260637      -416.3057432634  5.61E-02
   179 Broy./Diag. 0.10E+00   38.8     0.01174432      -416.2904973004  1.52E-02
   180 Broy./Diag. 0.10E+00   38.7     0.03966480      -416.2402250395  5.03E-02
   181 Broy./Diag. 0.10E+00   38.7     0.00301627      -416.3079335425 -6.77E-02
   182 Broy./Diag. 0.10E+00   38.7     0.03455076      -416.2348943097  7.30E-02
   183 Broy./Diag. 0.10E+00   39.0     0.01053456      -416.1313645587  1.04E-01
   184 Broy./Diag. 0.10E+00   39.2     0.02284023      -416.1019626068  2.94E-02
   185 Broy./Diag. 0.10E+00   39.3     0.01395436      -416.0946494988  7.31E-03
