Ti                                      
   1.00000000000000     
     2.936640    0.000000    0.000000
     1.468320    2.543205    0.000000
     0.000000    0.000000    4.651930
   Ti
     2
Direct
  0.000000  0.000000  0.000000
  0.333333  0.333333  0.500000
 
   28   28   48
  530.26      504.78      435.85      342.19      245.05      160.45      96.149      53.055      27.976      15.773    
  10.694      8.2651      7.1191      6.6602      6.5446      6.6603      7.1192      8.2650      10.694      15.773    
  27.976      53.055      96.149      160.45      245.05      342.19      435.85      504.78      504.78      457.39    
  376.22      281.76      192.75      120.71      69.437      37.416      20.349      12.798      9.4837      7.8315    
  7.1056      6.8529      6.8529      7.1055      7.8315      9.4837      12.798      20.349      37.416      69.438    
  120.71      192.75      281.76      376.22      457.39      504.78      435.85      376.22      295.22      211.28    
  138.32      83.118      46.415      25.312      15.161      10.815      8.6406      7.6141      7.2061      7.1044    
  7.2060      7.6141      8.6407      10.815      15.161      25.312      46.416      83.118      138.32      211.28    
  295.22      376.22      435.85      457.89      342.19      281.76      211.28      144.74      90.931      52.915    
  29.576      17.456      12.086      9.4595      8.1406      7.5702      7.3781      7.3781      7.5703      8.1407    
  9.4595      12.086      17.456      29.576      52.915      90.931      144.74      211.28      281.76      342.19    
  377.40      377.40      245.05      192.75      138.32      90.931      55.288      32.046      19.152      13.102    
  10.172      8.6231      7.9063      7.6345      7.5710      7.6346      7.9064      8.6231      10.172      13.102    
  19.152      32.046      55.288      90.931      138.32      192.75      245.05      283.40      297.54      283.40    
  160.45      120.71      83.118      52.915      32.046      19.779      13.678      10.659      8.9941      8.1770    
  7.8430      7.7419      7.7419      7.8429      8.1770      8.9942      10.659      13.678      19.779      32.046    
  52.915      83.118      120.71      160.45      194.36      214.05      214.05      194.36      96.149      69.437    
  46.415      29.576      19.152      13.678      10.832      9.1964      8.3524      7.9860      7.8660      7.8437    
  7.8660      7.9859      8.3522      9.1963      10.832      13.678      19.152      29.576      46.415      69.437    
  96.149      121.83      140.62      147.53      140.62      121.83      53.055      37.416      25.312      17.456    
  13.102      10.659      9.1964      8.4132      8.0579      7.9374      7.9148      7.9148      7.9375      8.0578    
  8.4129      9.1962      10.658      13.102      17.457      25.312      37.416      53.055      69.882      84.333    
  92.735      92.735      84.333      69.882      27.976      20.349      15.161      12.086      10.172      8.9941    
  8.3524      8.0579      7.9602      7.9493      7.9540      7.9493      7.9604      8.0580      8.3524      8.9939    
  10.171      12.086      15.161      20.349      27.976      37.281      46.485      53.310      55.837      53.311    
  46.485      37.281      15.773      12.798      10.815      9.4595      8.6231      8.1770      7.9860      7.9374    
  7.9493      7.9684      7.9684      7.9492      7.9376      7.9864      8.1772      8.6231      9.4593      10.815    
  12.798      15.773      19.891      24.601      28.807      31.304      31.304      28.807      24.601      19.891    
  10.694      9.4837      8.6406      8.1406      7.9063      7.8430      7.8660      7.9148      7.9540      7.9684    
  7.9539      7.9146      7.8661      7.8432      7.9066      8.1409      8.6407      9.4837      10.694      12.238    
  14.122      16.079      17.590      18.160      17.589      16.078      14.122      12.238      8.2651      7.8315    
  7.6141      7.5702      7.6345      7.7419      7.8437      7.9148      7.9493      7.9492      7.9146      7.8434    
  7.7417      7.6345      7.5704      7.6144      7.8316      8.2651      8.9129      9.7111      10.534      11.229    
  11.640      11.640      11.229      10.534      9.7110      8.9129      7.1191      7.1056      7.2061      7.3781    
  7.5710      7.7419      7.8660      7.9375      7.9604      7.9376      7.8661      7.7417      7.5706      7.3778    
  7.2060      7.1057      7.1193      7.2671      7.5368      7.8802      8.2205      8.4713      8.5638      8.4717    
  8.2210      7.8804      7.5367      7.2669      6.6602      6.8529      7.1044      7.3781      7.6346      7.8429    
  7.9859      8.0578      8.0580      7.9864      7.8432      7.6345      7.3778      7.1041      6.8528      6.6602    
  6.5495      6.5249      6.5722      6.6615      6.7541      6.8123      6.8125      6.7544      6.6617      6.5721    
  6.5247      6.5493      6.5446      6.8529      7.2060      7.5703      7.9064      8.1770      8.3522      8.4129    
  8.3524      8.1772      7.9066      7.5704      7.2060      6.8528      6.5443      6.3011      6.1276      6.0162    
  5.9533      5.9240      5.9138      5.9118      5.9136      5.9236      5.9530      6.0160      6.1277      6.3014    
  6.6603      7.1055      7.6141      8.1407      8.6231      8.9942      9.1963      9.1962      8.9939      8.6231    
  8.1409      7.6144      7.1057      6.6602      6.3011      6.0293      5.8309      5.6876      5.5856      5.5182    
  5.4841      5.4839      5.5177      5.5852      5.6876      5.8312      6.0297      6.3014      7.1192      7.8315    
  8.6407      9.4595      10.172      10.659      10.832      10.658      10.171      9.4593      8.6407      7.8316    
  7.1193      6.5495      6.1276      5.8309      5.6255      5.4810      5.3799      5.3173      5.2958      5.3172    
  5.3799      5.4813      5.6259      5.8311      6.1275      6.5493      8.2650      9.4837      10.815      12.086    
  13.102      13.678      13.678      13.102      12.086      10.815      9.4837      8.2651      7.2671      6.5249    
  6.0162      5.6876      5.4810      5.3506      5.2704      5.2309      5.2310      5.2706      5.3510      5.4813    
  5.6877      6.0159      6.5246      7.2668      10.694      12.798      15.161      17.456      19.152      19.779    
  19.152      17.457      15.161      12.798      10.694      8.9129      7.5368      6.5722      5.9533      5.5856    
  5.3799      5.2704      5.2175      5.2018      5.2177      5.2706      5.3798      5.5853      5.9530      6.5720    
  7.5368      8.9129      15.773      20.349      25.312      29.576      32.046      32.046      29.576      25.312    
  20.349      15.773      12.238      9.7111      7.8802      6.6615      5.9240      5.5182      5.3173      5.2309    
  5.2018      5.2018      5.2309      5.3171      5.5178      5.9237      6.6615      7.8804      9.7112      12.238    
  27.976      37.416      46.416      52.915      55.288      52.915      46.415      37.416      27.976      19.891    
  14.122      10.534      8.2205      6.7541      5.9138      5.4841      5.2958      5.2310      5.2177      5.2309    
  5.2956      5.4839      5.9138      6.7544      8.2208      10.534      14.122      19.891      53.055      69.438    
  83.118      90.931      90.931      83.118      69.437      53.055      37.281      24.601      16.079      11.229    
  8.4713      6.8123      5.9118      5.4839      5.3172      5.2706      5.2706      5.3171      5.4839      5.9120    
  6.8127      8.4715      11.229      16.079      24.601      37.281      96.149      120.71      138.32      144.74    
  138.32      120.71      96.149      69.882      46.485      28.807      17.590      11.640      8.5638      6.8125    
  5.9136      5.5177      5.3799      5.3510      5.3798      5.5178      5.9138      6.8127      8.5637      11.640    
  17.590      28.808      46.485      69.881      160.45      192.75      211.28      211.28      192.75      160.45    
  121.83      84.333      53.310      31.304      18.160      11.640      8.4717      6.7544      5.9236      5.5852    
  5.4813      5.4813      5.5853      5.9237      6.7544      8.4715      11.640      18.160      31.304      53.311    
  84.333      121.83      245.05      281.76      295.22      281.76      245.05      194.36      140.62      92.735    
  55.837      31.304      17.589      11.229      8.2210      6.6617      5.9530      5.6876      5.6259      5.6877    
  5.9530      6.6615      8.2208      11.229      17.590      31.304      55.837      92.735      140.62      194.36    
  342.19      376.22      376.22      342.19      283.40      214.05      147.53      92.735      53.311      28.807    
  16.078      10.534      7.8804      6.5721      6.0160      5.8312      5.8311      6.0159      6.5720      7.8804    
  10.534      16.079      28.808      53.311      92.735      147.53      214.05      283.40      435.85      457.39    
  435.85      377.40      297.54      214.05      140.62      84.333      46.485      24.601      14.122      9.7110    
  7.5367      6.5247      6.1277      6.0297      6.1275      6.5246      7.5368      9.7112      14.122      24.601    
  46.485      84.333      140.62      214.05      297.54      377.40      504.78      504.78      457.89      377.40    
  283.40      194.36      121.83      69.882      37.281      19.891      12.238      8.9129      7.2669      6.5493    
  6.3014      6.3014      6.5493      7.2668      8.9129      12.238      19.891      37.281      69.881      121.83    
  194.36      283.40      377.40      457.89      508.24      483.83      417.79      328.03      234.92      153.80    
  92.169      50.921      26.987      15.389      10.540      8.1946      7.0905      6.6504      6.5400      6.6503    
  7.0906      8.1947      10.540      15.389      26.987      50.921      92.169      153.80      234.92      328.03    
  417.79      483.83      483.83      438.43      360.65      270.12      184.78      115.71      66.601      35.995    
  19.744      12.568      9.3761      7.7821      7.0843      6.8428      6.8426      7.0841      7.7823      9.3762    
  12.568      19.743      35.995      66.601      115.71      184.78      270.12      360.65      438.43      483.83    
  417.79      360.65      283.02      202.55      132.60      79.706      44.595      24.472      14.827      10.667    
  8.5675      7.5791      7.1882      7.0914      7.1880      7.5791      8.5677      10.667      14.826      24.471    
  44.595      79.706      132.60      202.55      283.02      360.65      417.79      438.91      328.03      270.12    
  202.55      138.75      87.194      50.812      28.537      17.015      11.898      9.3623      8.0912      7.5436    
  7.3605      7.3605      7.5437      8.0913      9.3623      11.898      17.015      28.537      50.812      87.193    
  138.75      202.55      270.12      328.03      361.78      361.78      234.92      184.78      132.60      87.194    
  53.083      30.895      18.630      12.879      10.053      8.5603      7.8714      7.6119      7.5518      7.6120    
  7.8715      8.5604      10.053      12.879      18.630      30.895      53.083      87.193      132.60      184.78    
  234.92      271.68      285.24      271.68      153.80      115.71      79.706      50.812      30.895      19.228    
  13.432      10.526      8.9210      8.1352      7.8158      7.7203      7.7203      7.8158      8.1351      8.9211    
  10.526      13.432      19.228      30.895      50.812      79.706      115.71      153.80      186.31      205.18    
  205.18      186.31      92.169      66.601      44.595      28.537      18.630      13.432      10.694      9.1177    
  8.3061      7.9555      7.8421      7.8215      7.8421      7.9554      8.3058      9.1176      10.694      13.432    
  18.630      28.538      44.595      66.601      92.169      116.77      134.77      141.40      134.77      116.77    
  50.921      35.995      24.472      17.015      12.879      10.526      9.1177      8.3653      8.0257      7.9118    
  7.8913      7.8914      7.9119      8.0255      8.3650      9.1175      10.526      12.879      17.015      24.472    
  35.995      50.920      67.005      80.832      88.874      88.874      80.832      67.005      26.987      19.744    
  14.827      11.898      10.053      8.9210      8.3061      8.0257      7.9341      7.9250      7.9302      7.9252    
  7.9342      8.0257      8.3061      8.9209      10.053      11.898      14.827      19.743      26.987      35.845    
  44.622      51.138      53.551      51.138      44.623      35.846      15.389      12.568      10.667      9.3623    
  8.5603      8.1352      7.9555      7.9118      7.9250      7.9442      7.9442      7.9251      7.9120      7.9558    
  8.1354      8.5603      9.3621      10.667      12.568      15.389      19.289      23.757      27.753      30.127    
  30.127      27.753      23.757      19.289      10.540      9.3761      8.5675      8.0912      7.8714      7.8158    
  7.8421      7.8913      7.9302      7.9442      7.9300      7.8912      7.8421      7.8161      7.8717      8.0915    
  8.5676      9.3761      10.540      12.019      13.804      15.654      17.084      17.623      17.083      15.654    
  13.804      12.019      8.1946      7.7821      7.5791      7.5436      7.6119      7.7203      7.8215      7.8914    
  7.9252      7.9251      7.8912      7.8211      7.7201      7.6119      7.5439      7.5794      7.7823      8.1947    
  8.8152      9.5818      10.373      11.038      11.428      11.428      11.037      10.373      9.5817      8.8151    
  7.0905      7.0843      7.1882      7.3605      7.5518      7.7203      7.8421      7.9119      7.9342      7.9120    
  7.8421      7.7201      7.5514      7.3602      7.1881      7.0843      7.0907      7.2272      7.4821      7.8091    
  8.1343      8.3743      8.4629      8.3747      8.1348      7.8093      7.4819      7.2269      6.6504      6.8428    
  7.0914      7.3605      7.6120      7.8158      7.9554      8.0255      8.0257      7.9558      7.8161      7.6119    
  7.3602      7.0910      6.8425      6.6503      6.5370      6.5072      6.5474      6.6291      6.7152      6.7697    
  6.7699      6.7156      6.6293      6.5472      6.5070      6.5369      6.5400      6.8426      7.1880      7.5437    
  7.8715      8.1351      8.3058      8.3650      8.3061      8.1354      7.8717      7.5439      7.1881      6.8425    
  6.5397      6.2994      6.1262      6.0130      5.9471      5.9145      5.9019      5.8989      5.9017      5.9142    
  5.9468      6.0129      6.1264      6.2998      6.6503      7.0841      7.5791      8.0913      8.5604      8.9211    
  9.1176      9.1175      8.9209      8.5603      8.0915      7.5794      7.0843      6.6503      6.2994      6.0326    
  5.8361      5.6926      5.5893      5.5205      5.4855      5.4853      5.5200      5.5889      5.6926      5.8364    
  6.0329      6.2997      7.0906      7.7823      8.5677      9.3623      10.053      10.526      10.694      10.526    
  10.053      9.3621      8.5676      7.7823      7.0907      6.5370      6.1262      5.8361      5.6335      5.4895    
  5.3877      5.3244      5.3024      5.3242      5.3877      5.4898      5.6340      5.8363      6.1261      6.5368    
  8.1947      9.3762      10.667      11.898      12.879      13.432      13.432      12.879      11.898      10.667    
  9.3761      8.1947      7.2272      6.5072      6.0130      5.6926      5.4895      5.3599      5.2791      5.2389    
  5.2390      5.2793      5.3602      5.4899      5.6927      6.0127      6.5068      7.2269      10.540      12.568    
  14.826      17.015      18.630      19.228      18.630      17.015      14.827      12.568      10.540      8.8152    
  7.4821      6.5474      5.9471      5.5893      5.3877      5.2791      5.2257      5.2097      5.2259      5.2793    
  5.3877      5.5890      5.9468      6.5472      7.4821      8.8152      15.389      19.743      24.471      28.537    
  30.895      30.895      28.538      24.472      19.743      15.389      12.019      9.5818      7.8091      6.6291    
  5.9145      5.5205      5.3244      5.2389      5.2097      5.2098      5.2391      5.3242      5.5200      5.9142    
  6.6291      7.8094      9.5819      12.019      26.987      35.995      44.595      50.812      53.083      50.812    
  44.595      35.995      26.987      19.289      13.804      10.373      8.1343      6.7152      5.9019      5.4855    
  5.3024      5.2390      5.2259      5.2391      5.3023      5.4852      5.9018      6.7155      8.1346      10.373    
  13.804      19.289      50.921      66.601      79.706      87.193      87.193      79.706      66.601      50.920    
  35.845      23.757      15.654      11.038      8.3743      6.7697      5.8989      5.4853      5.3242      5.2793    
  5.2793      5.3242      5.4852      5.8991      6.7701      8.3745      11.037      15.654      23.757      35.846    
  92.169      115.71      132.60      138.75      132.60      115.71      92.169      67.005      44.622      27.753    
  17.084      11.428      8.4629      6.7699      5.9017      5.5200      5.3877      5.3602      5.3877      5.5200    
  5.9018      6.7701      8.4629      11.428      17.083      27.753      44.623      67.005      153.80      184.78    
  202.55      202.55      184.78      153.80      116.77      80.832      51.138      30.127      17.623      11.428    
  8.3747      6.7156      5.9142      5.5889      5.4898      5.4899      5.5890      5.9142      6.7155      8.3745    
  11.428      17.623      30.127      51.139      80.832      116.77      234.92      270.12      283.02      270.12    
  234.92      186.31      134.77      88.874      53.551      30.127      17.083      11.037      8.1348      6.6293    
  5.9468      5.6926      5.6340      5.6927      5.9468      6.6291      8.1346      11.037      17.083      30.127    
  53.551      88.874      134.77      186.31      328.03      360.65      360.65      328.03      271.68      205.18    
  141.40      88.874      51.138      27.753      15.654      10.373      7.8093      6.5472      6.0129      5.8364    
  5.8363      6.0127      6.5472      7.8094      10.373      15.654      27.753      51.139      88.874      141.40    
  205.18      271.68      417.79      438.43      417.79      361.78      285.24      205.18      134.77      80.832    
  44.623      23.757      13.804      9.5817      7.4819      6.5070      6.1264      6.0329      6.1261      6.5068    
  7.4821      9.5819      13.804      23.757      44.623      80.832      134.77      205.18      285.24      361.78    
  483.83      483.83      438.91      361.78      271.68      186.31      116.77      67.005      35.846      19.289    
  12.019      8.8151      7.2269      6.5369      6.2998      6.2997      6.5368      7.2269      8.8152      12.019    
  19.289      35.846      67.005      116.77      186.31      271.68      361.78      438.91      447.91      426.43    
  368.29      289.21      207.10      135.55      81.259      45.090      24.302      14.348      10.108      7.9954    
  7.0080      6.6201      6.5245      6.6200      7.0081      7.9956      10.108      14.348      24.303      45.090    
  81.258      135.55      207.10      289.21      368.29      426.43      426.43      386.47      317.96      238.15    
  162.89      102.01      58.836      32.122      18.103      11.936      9.0719      7.6413      7.0218      6.8113    
  6.8110      7.0216      7.6415      9.0722      11.935      18.102      32.123      58.836      102.01      162.89    
  238.15      317.96      386.47      426.43      368.29      317.96      249.54      178.57      116.90      70.356    
  39.625      22.187      13.915      10.248      8.3599      7.4782      7.1352      7.0518      7.1349      7.4782    
  8.3602      10.248      13.915      22.187      39.625      70.357      116.90      178.57      249.54      317.96    
  368.29      386.89      289.21      238.15      178.57      122.33      76.947      45.065      25.712      15.814    
  11.369      9.0870      7.9499      7.4666      7.3086      7.3086      7.4666      7.9500      9.0870      11.369    
  15.814      25.712      45.065      76.947      122.33      178.57      238.15      289.21      318.95      318.95    
  207.10      162.89      116.90      76.947      47.054      27.760      17.212      12.256      9.7191      8.3817    
  7.7712      7.5463      7.4958      7.5464      7.7713      8.3818      9.7192      12.256      17.212      27.760    
  47.053      76.947      116.90      162.89      207.10      239.51      251.47      239.51      135.55      102.01    
  70.356      45.065      27.760      17.730      12.751      10.151      8.7137      8.0160      7.7380      7.6579    
  7.6580      7.7380      8.0160      8.7137      10.151      12.751      17.729      27.760      45.064      70.356    
  102.01      135.55      164.20      180.84      180.84      164.20      81.259      58.836      39.625      25.712    
  17.212      12.751      10.305      8.8946      8.1745      7.8687      7.7737      7.7579      7.7738      7.8686    
  8.1742      8.8945      10.305      12.751      17.212      25.712      39.625      58.836      81.259      102.89    
  118.73      124.56      118.73      102.89      45.090      32.122      22.187      15.814      12.256      10.151    
  8.8946      8.2294      7.9342      7.8394      7.8250      7.8252      7.8396      7.9340      8.2290      8.8945    
  10.151      12.256      15.814      22.188      32.122      45.090      59.134      71.242      78.294      78.294    
  71.242      59.134      24.302      18.103      13.915      11.369      9.7191      8.7137      8.1745      7.9342    
  7.8603      7.8568      7.8630      7.8570      7.8604      7.9342      8.1744      8.7136      9.7188      11.369    
  13.915      18.103      24.302      31.939      39.545      45.210      47.311      45.210      39.545      31.939    
  14.348      11.936      10.248      9.0870      8.3817      8.0160      7.8687      7.8394      7.8568      7.8763    
  7.8764      7.8569      7.8396      7.8690      8.0163      8.3817      9.0867      10.248      11.936      14.348    
  17.660      21.471      24.895      26.935      26.934      24.895      21.471      17.661      10.108      9.0719    
  8.3599      7.9499      7.7712      7.7380      7.7737      7.8250      7.8630      7.8764      7.8629      7.8249    
  7.7738      7.7382      7.7716      7.9501      8.3600      9.0719      10.108      11.415      12.942      14.510    
  15.720      16.177      15.719      14.510      12.942      11.415      7.9954      7.6413      7.4782      7.4666    
  7.5463      7.6579      7.7579      7.8252      7.8570      7.8569      7.8249      7.7575      7.6577      7.5464    
  7.4668      7.4786      7.6415      7.9955      8.5400      9.2192      9.9234      10.510      10.849      10.849    
  10.510      9.9234      9.2193      8.5400      7.0080      7.0218      7.1352      7.3086      7.4958      7.6580    
  7.7738      7.8396      7.8604      7.8396      7.7738      7.6577      7.4954      7.3083      7.1350      7.0219    
  7.0083      7.1136      7.3281      7.6105      7.8943      8.1049      8.1828      8.1053      7.8948      7.6107    
  7.3279      7.1132      6.6201      6.8113      7.0518      7.3086      7.5464      7.7380      7.8686      7.9340    
  7.9342      7.8690      7.7382      7.5464      7.3083      7.0514      6.8110      6.6200      6.5002      6.4565    
  6.4778      6.5392      6.6081      6.6527      6.6530      6.6086      6.5394      6.4776      6.4562      6.5000    
  6.5245      6.8110      7.1349      7.4666      7.7713      8.0160      8.1742      8.2290      8.1744      8.0163    
  7.7716      7.4668      7.1350      6.8110      6.5241      6.2927      6.1210      6.0035      5.9300      5.8892    
  5.8704      5.8652      5.8703      5.8889      5.9297      6.0033      6.1211      6.2931      6.6200      7.0216    
  7.4782      7.9500      8.3818      8.7137      8.8945      8.8945      8.7136      8.3817      7.9501      7.4786    
  7.0219      6.6200      6.2927      6.0400      5.8496      5.7065      5.6005      5.5285      5.4914      5.4912    
  5.5279      5.6001      5.7065      5.8499      6.0404      6.2929      7.0081      7.6415      8.3602      9.0870    
  9.7192      10.151      10.305      10.151      9.7188      9.0867      8.3600      7.6415      7.0083      6.5002    
  6.1210      5.8496      5.6558      5.5138      5.4109      5.3457      5.3230      5.3455      5.4107      5.5141    
  5.6562      5.8498      6.1208      6.4999      7.9956      9.0722      10.248      11.369      12.256      12.751    
  12.751      12.256      11.369      10.248      9.0719      7.9955      7.1136      6.4565      6.0035      5.7065    
  5.5138      5.3866      5.3047      5.2632      5.2632      5.3049      5.3870      5.5142      5.7066      6.0032    
  6.4561      7.1134      10.108      11.935      13.915      15.814      17.212      17.729      17.212      15.814    
  13.915      11.936      10.108      8.5400      7.3281      6.4778      5.9300      5.6005      5.4109      5.3047    
  5.2502      5.2334      5.2505      5.3050      5.4108      5.6003      5.9297      6.4777      7.3282      8.5402    
  14.348      18.102      22.187      25.712      27.760      27.760      25.712      22.188      18.103      14.348    
  11.415      9.2192      7.6105      6.5392      5.8892      5.5285      5.3457      5.2632      5.2334      5.2335    
  5.2634      5.3455      5.5280      5.8890      6.5393      7.6107      9.2195      11.415      24.303      32.123    
  39.625      45.065      47.053      45.064      39.625      32.122      24.302      17.660      12.942      9.9234    
  7.8943      6.6081      5.8704      5.4914      5.3230      5.2632      5.2505      5.2634      5.3229      5.4911    
  5.8704      6.6085      7.8946      9.9233      12.942      17.660      45.090      58.836      70.357      76.947    
  76.947      70.356      58.836      45.090      31.939      21.471      14.510      10.510      8.1049      6.6527    
  5.8652      5.4912      5.3455      5.3049      5.3050      5.3455      5.4911      5.8653      6.6532      8.1052    
  10.510      14.510      21.471      31.939      81.258      102.01      116.90      122.33      116.90      102.01    
  81.259      59.134      39.545      24.895      15.720      10.849      8.1828      6.6530      5.8703      5.5279    
  5.4107      5.3870      5.4108      5.5280      5.8704      6.6532      8.1829      10.849      15.720      24.895    
  39.546      59.134      135.55      162.89      178.57      178.57      162.89      135.55      102.89      71.242    
  45.210      26.935      16.177      10.849      8.1053      6.6086      5.8889      5.6001      5.5141      5.5142    
  5.6003      5.8890      6.6085      8.1052      10.849      16.177      26.935      45.210      71.242      102.89    
  207.10      238.15      249.54      238.15      207.10      164.20      118.73      78.294      47.311      26.934    
  15.719      10.510      7.8948      6.5394      5.9297      5.7065      5.6562      5.7066      5.9297      6.5393    
  7.8946      10.510      15.720      26.935      47.311      78.294      118.73      164.20      289.21      317.96    
  317.96      289.21      239.51      180.84      124.56      78.294      45.210      24.895      14.510      9.9234    
  7.6107      6.4776      6.0033      5.8499      5.8498      6.0032      6.4777      7.6107      9.9233      14.510    
  24.895      45.210      78.294      124.56      180.84      239.51      368.29      386.47      368.29      318.95    
  251.47      180.84      118.73      71.242      39.545      21.471      12.942      9.2193      7.3279      6.4562    
  6.1211      6.0404      6.1208      6.4561      7.3282      9.2195      12.942      21.471      39.546      71.242    
  118.73      180.84      251.47      318.95      426.43      426.43      386.89      318.95      239.51      164.20    
  102.89      59.134      31.939      17.661      11.415      8.5400      7.1132      6.5000      6.2931      6.2929    
  6.4999      7.1134      8.5402      11.415      17.660      31.939      59.134      102.89      164.20      239.51    
  318.95      386.89      363.85      346.43      299.24      234.99      168.22      110.05      66.066      37.038    
  20.642      12.924      9.4746      7.7003      6.8821      6.5694      6.4949      6.5693      6.8822      7.7006    
  9.4746      12.924      20.642      37.038      66.066      110.05      168.22      235.00      299.24      346.43    
  346.43      314.00      258.37      193.50      132.30      82.880      48.061      26.805      15.869      11.030    
  8.6231      7.4299      6.9240      6.7581      6.7578      6.9237      7.4301      8.6233      11.030      15.869    
  26.805      48.062      82.880      132.30      193.50      258.37      314.00      346.43      299.24      258.37    
  202.76      145.07      94.980      57.350      32.768      19.069      12.651      9.6309      8.0510      7.3246    
  7.0508      6.9869      7.0505      7.3245      8.0512      9.6309      12.651      19.069      32.768      57.351    
  94.980      145.07      202.76      258.37      299.24      314.34      234.99      193.50      145.07      99.395    
  62.679      37.114      21.842      14.165      10.592      8.6793      7.7376      7.3478      7.2262      7.2262    