Ti                                      
   1.00000000000000     
     2.936640    0.000000    0.000000
     1.468320    2.543205    0.000000
     0.000000    0.000000    4.651930
   Ti
     2
Direct
  0.000000  0.000000  0.000000
  0.333333  0.333333  0.500000
 
   28   28   48
 0.53026169924E+03 0.50477905865E+03 0.43584580853E+03 0.34218652396E+03 0.24505083113E+03
 0.16044614060E+03 0.96148992418E+02 0.53055252661E+02 0.27976220399E+02 0.15772745961E+02
 0.10693847685E+02 0.82650600290E+01 0.71190810305E+01 0.66601616662E+01 0.65445984796E+01
 0.66603111689E+01 0.71191565187E+01 0.82649548694E+01 0.10693731264E+02 0.15772799056E+02
 0.27976353944E+02 0.53055240673E+02 0.96148816169E+02 0.16044602343E+03 0.24505091854E+03
 0.34218669296E+03 0.43584587177E+03 0.50477902509E+03 0.50477905865E+03 0.45739306546E+03
 0.37622032497E+03 0.28176294965E+03 0.19275101855E+03 0.12070808686E+03 0.69437275085E+02
 0.37416255927E+02 0.20348830453E+02 0.12797630144E+02 0.94837127359E+01 0.78314516306E+01
 0.71055645263E+01 0.68529323083E+01 0.68528877176E+01 0.71055207420E+01 0.78315014123E+01
 0.94837456386E+01 0.12797509440E+02 0.20348700382E+02 0.37416418986E+02 0.69437723998E+02
 0.12070840141E+03 0.19275088020E+03 0.28176258465E+03 0.37622021076E+03 0.45739328381E+03
 0.50477921871E+03 0.43584580853E+03 0.37622032497E+03 0.29522202483E+03 0.21128083175E+03
 0.13831961696E+03 0.83117644522E+02 0.46415376483E+02 0.25312498708E+02 0.15160861201E+02
 0.10815202016E+02 0.86405811223E+01 0.76141477402E+01 0.72060872857E+01 0.71044394443E+01
 0.72059661050E+01 0.76141302339E+01 0.86406954369E+01 0.10815178635E+02 0.15160591800E+02
 0.25312328712E+02 0.46415670467E+02 0.83118194460E+02 0.13831980506E+03 0.21128039614E+03
 0.29522137043E+03 0.37621996394E+03 0.43584576492E+03 0.45788782430E+03 0.34218652396E+03
 0.28176294965E+03 0.21128083175E+03 0.14473748827E+03 0.90931274715E+02 0.52915239001E+02
 0.29575976074E+02 0.17456410779E+02 0.12085989705E+02 0.94594911229E+01 0.81406386227E+01
 0.75701802751E+01 0.73780644299E+01 0.73781067543E+01 0.75702663780E+01 0.81406868413E+01
 0.94594553711E+01 0.12085891589E+02 0.17456308913E+02 0.29575917596E+02 0.52915229557E+02
 0.90931266256E+02 0.14473738936E+03 0.21128056472E+03 0.28176253943E+03 0.34218613279E+03
 0.37739743633E+03 0.37739759895E+03 0.24505083113E+03 0.19275101855E+03 0.13831961696E+03
 0.90931274715E+02 0.55288100141E+02 0.32046284893E+02 0.19152092475E+02 0.13102250004E+02
 0.10171599360E+02 0.86231332101E+01 0.79063079537E+01 0.76344904199E+01 0.75709873354E+01
 0.76345841334E+01 0.79063702160E+01 0.86231424781E+01 0.10171678884E+02 0.13102411305E+02
 0.19152113482E+02 0.32046003858E+02 0.55287728631E+02 0.90931207825E+02 0.13831993376E+03
 0.19275137167E+03 0.24505090465E+03 0.28339829888E+03 0.29754276200E+03 0.28339840565E+03
 0.16044614060E+03 0.12070808686E+03 0.83117644522E+02 0.52915239001E+02 0.32046284893E+02
 0.19778951743E+02 0.13678279512E+02 0.10658562854E+02 0.89941409700E+01 0.81770124211E+01
 0.78429819409E+01 0.77419166228E+01 0.77418875658E+01 0.78429077062E+01 0.81769616423E+01
 0.89942253863E+01 0.10658794325E+02 0.13678475549E+02 0.19778908020E+02 0.32046065396E+02
 0.52915181531E+02 0.83118001597E+02 0.12070873077E+03 0.16044671160E+03 0.19435947831E+03
 0.21404764022E+03 0.21404756970E+03 0.19435918733E+03 0.96148992418E+02 0.69437275085E+02
 0.46415376483E+02 0.29575976074E+02 0.19152092475E+02 0.13678279512E+02 0.10831939444E+02
 0.91964276008E+01 0.83523850688E+01 0.79859998083E+01 0.78660496599E+01 0.78437428658E+01
 0.78660108142E+01 0.79858887109E+01 0.83522261724E+01 0.91963321060E+01 0.10831998905E+02
 0.13678453370E+02 0.19152246598E+02 0.29576035552E+02 0.46415406911E+02 0.69437399840E+02
 0.96149251746E+02 0.12183290205E+03 0.14061811587E+03 0.14753286857E+03 0.14061791235E+03
 0.12183259733E+03 0.53055252661E+02 0.37416255927E+02 0.25312498708E+02 0.17456410779E+02
 0.13102250004E+02 0.10658562854E+02 0.91964276008E+01 0.84131712086E+01 0.80578595317E+01
 0.79373974103E+01 0.79147625575E+01 0.79148130149E+01 0.79374652553E+01 0.80577931671E+01
 0.84129381717E+01 0.91961777051E+01 0.10658483548E+02 0.13102360383E+02 0.17456522347E+02
 0.25312400000E+02 0.37415929906E+02 0.53054890780E+02 0.69881511133E+02 0.84333021143E+02
 0.92734792741E+02 0.92734773127E+02 0.84333044673E+02 0.69881711340E+02 0.27976220399E+02
 0.20348830453E+02 0.15160861201E+02 0.12085989705E+02 0.10171599360E+02 0.89941409700E+01
 0.83523850688E+01 0.80578595317E+01 0.79602139874E+01 0.79492621267E+01 0.79540475553E+01
 0.79493248804E+01 0.79603613469E+01 0.80580204930E+01 0.83523990538E+01 0.89939422054E+01
 0.10171328256E+02 0.12085834396E+02 0.15160818635E+02 0.20348715343E+02 0.27975913140E+02
 0.37280988701E+02 0.46484622583E+02 0.53310436843E+02 0.55836758812E+02 0.53310583266E+02
 0.46484937392E+02 0.37281391898E+02 0.15772745961E+02 0.12797630144E+02 0.10815202016E+02
 0.94594911229E+01 0.86231332101E+01 0.81770124211E+01 0.79859998083E+01 0.79373974103E+01
 0.79492621267E+01 0.79684309413E+01 0.79683783659E+01 0.79492424743E+01 0.79376065966E+01
 0.79863613263E+01 0.81772288098E+01 0.86230563668E+01 0.94592923575E+01 0.10815124114E+02
 0.12797692748E+02 0.15772794044E+02 0.19890776899E+02 0.24600918859E+02 0.28807431865E+02
 0.31303712193E+02 0.31303692697E+02 0.28807421705E+02 0.24600965898E+02 0.19890816235E+02
 0.10693847685E+02 0.94837127359E+01 0.86405811223E+01 0.81406386227E+01 0.79063079537E+01
 0.78429819409E+01 0.78660496599E+01 0.79147625575E+01 0.79540475553E+01 0.79683783659E+01
 0.79538518439E+01 0.79145698949E+01 0.78660584889E+01 0.78432153712E+01 0.79066306670E+01
 0.81408988156E+01 0.86407095271E+01 0.94837271098E+01 0.10693827706E+02 0.12238406521E+02
 0.14121901655E+02 0.16078804984E+02 0.17589692670E+02 0.18160339178E+02 0.17589444383E+02
 0.16078480149E+02 0.14121683578E+02 0.12238346663E+02 0.82650600290E+01 0.78314516306E+01
 0.76141477402E+01 0.75701802751E+01 0.76344904199E+01 0.77419166228E+01 0.78437428658E+01
 0.79148130149E+01 0.79493248804E+01 0.79492424743E+01 0.79145698949E+01 0.78434086873E+01
 0.77416736327E+01 0.76345110659E+01 0.75704411443E+01 0.76144354510E+01 0.78315850160E+01
 0.82650571084E+01 0.89128861665E+01 0.97110597346E+01 0.10533613298E+02 0.11229308995E+02
 0.11639973160E+02 0.11639983108E+02 0.11229306325E+02 0.10533565704E+02 0.97110116981E+01
 0.89128923992E+01 0.71190810305E+01 0.71055645263E+01 0.72060872857E+01 0.73780644299E+01
 0.75709873354E+01 0.77418875658E+01 0.78660108142E+01 0.79374652553E+01 0.79603613469E+01
 0.79376065966E+01 0.78660584889E+01 0.77416736327E+01 0.75706137303E+01 0.73777692439E+01
 0.72059992729E+01 0.71056575827E+01 0.71192871677E+01 0.72671012519E+01 0.75367745909E+01
 0.78801935134E+01 0.82205093762E+01 0.84713080452E+01 0.85638497238E+01 0.84717231935E+01
 0.82209915287E+01 0.78804059126E+01 0.75366745928E+01 0.72668655348E+01 0.66601616662E+01
 0.68529323083E+01 0.71044394443E+01 0.73781067543E+01 0.76345841334E+01 0.78429077062E+01
 0.79858887109E+01 0.80577931671E+01 0.80580204930E+01 0.79863613263E+01 0.78432153712E+01
 0.76345110659E+01 0.73777692439E+01 0.71040934548E+01 0.68527501528E+01 0.66601903534E+01
 0.65494743799E+01 0.65249182175E+01 0.65721629915E+01 0.66615072811E+01 0.67541235669E+01
 0.68123414576E+01 0.68124974825E+01 0.67544363932E+01 0.66616822019E+01 0.65720672964E+01
 0.65246676137E+01 0.65492706703E+01 0.65445984796E+01 0.68528877176E+01 0.72059661050E+01
 0.75702663780E+01 0.79063702160E+01 0.81769616423E+01 0.83522261724E+01 0.84129381717E+01
 0.83523990538E+01 0.81772288098E+01 0.79066306670E+01 0.75704411443E+01 0.72059992729E+01
 0.68527501528E+01 0.65443292318E+01 0.63010885226E+01 0.61275687721E+01 0.60161654053E+01
 0.59533336225E+01 0.59240005809E+01 0.59138202866E+01 0.59117627760E+01 0.59135930559E+01
 0.59236336623E+01 0.59529878761E+01 0.60160073691E+01 0.61276651024E+01 0.63013555816E+01
 0.66603111689E+01 0.71055207420E+01 0.76141302339E+01 0.81406868413E+01 0.86231424781E+01
 0.89942253863E+01 0.91963321060E+01 0.91961777051E+01 0.89939422054E+01 0.86230563668E+01
 0.81408988156E+01 0.76144354510E+01 0.71056575827E+01 0.66601903534E+01 0.63010885226E+01
 0.60293142823E+01 0.58309091166E+01 0.56876356950E+01 0.55856058578E+01 0.55182047827E+01
 0.54841111068E+01 0.54838809703E+01 0.55177082832E+01 0.55852287408E+01 0.56876039856E+01
 0.58311681303E+01 0.60296789817E+01 0.63013949975E+01 0.71191565187E+01 0.78315014123E+01
 0.86406954369E+01 0.94594553711E+01 0.10171678884E+02 0.10658794325E+02 0.10831998905E+02
 0.10658483548E+02 0.10171328256E+02 0.94592923575E+01 0.86407095271E+01 0.78315850160E+01
 0.71192871677E+01 0.65494743799E+01 0.61275687721E+01 0.58309091166E+01 0.56254719922E+01
 0.54810194570E+01 0.53798708113E+01 0.53173383313E+01 0.52957680769E+01 0.53171854173E+01
 0.53798596075E+01 0.54813250952E+01 0.56259000826E+01 0.58311367770E+01 0.61275142139E+01
 0.65493076475E+01 0.82649548694E+01 0.94837456386E+01 0.10815178635E+02 0.12085891589E+02
 0.13102411305E+02 0.13678475549E+02 0.13678453370E+02 0.13102360383E+02 0.12085834396E+02
 0.10815124114E+02 0.94837271098E+01 0.82650571084E+01 0.72671012519E+01 0.65249182175E+01
 0.60161654053E+01 0.56876356950E+01 0.54810194570E+01 0.53506315686E+01 0.52703919128E+01
 0.52308990729E+01 0.52309821520E+01 0.52706461454E+01 0.53510087031E+01 0.54813474155E+01
 0.56877091375E+01 0.60159359935E+01 0.65245520904E+01 0.72668213042E+01 0.10693731264E+02
 0.12797509440E+02 0.15160591800E+02 0.17456308913E+02 0.19152113482E+02 0.19778908020E+02
 0.19152246598E+02 0.17456522347E+02 0.15160818635E+02 0.12797692748E+02 0.10693827706E+02
 0.89128861665E+01 0.75367745909E+01 0.65721629915E+01 0.59533336225E+01 0.55856058578E+01
 0.53798708113E+01 0.52703919128E+01 0.52174726815E+01 0.52017910997E+01 0.52177073876E+01
 0.52705933640E+01 0.53797996754E+01 0.55852945740E+01 0.59530146536E+01 0.65720085391E+01
 0.75367587407E+01 0.89128750557E+01 0.15772799056E+02 0.20348700382E+02 0.25312328712E+02
 0.29575917596E+02 0.32046003858E+02 0.32046065396E+02 0.29576035552E+02 0.25312400000E+02
 0.20348715343E+02 0.15772794044E+02 0.12238406521E+02 0.97110597346E+01 0.78801935134E+01
 0.66615072811E+01 0.59240005809E+01 0.55182047827E+01 0.53173383313E+01 0.52308990729E+01
 0.52017910997E+01 0.52018482763E+01 0.52309241286E+01 0.53171123022E+01 0.55177825723E+01
 0.59236911882E+01 0.66615160226E+01 0.78804117745E+01 0.97112478875E+01 0.12238471348E+02
 0.27976353944E+02 0.37416418986E+02 0.46415670467E+02 0.52915229557E+02 0.55287728631E+02
 0.52915181531E+02 0.46415406911E+02 0.37415929906E+02 0.27975913140E+02 0.19890776899E+02
 0.14121901655E+02 0.10533613298E+02 0.82205093762E+01 0.67541235669E+01 0.59138202866E+01
 0.54841111068E+01 0.52957680769E+01 0.52309821520E+01 0.52177073876E+01 0.52309241286E+01
 0.52956160610E+01 0.54839484846E+01 0.59138363017E+01 0.67543631361E+01 0.82207586899E+01
 0.10533661686E+02 0.14121848136E+02 0.19890922171E+02 0.53055240673E+02 0.69437723998E+02
 0.83118194460E+02 0.90931266256E+02 0.90931207825E+02 0.83118001597E+02 0.69437399840E+02
 0.53054890780E+02 0.37280988701E+02 0.24600918859E+02 0.16078804984E+02 0.11229308995E+02
 0.84713080452E+01 0.68123414576E+01 0.59117627760E+01 0.54838809703E+01 0.53171854173E+01
 0.52706461454E+01 0.52705933640E+01 0.53171123022E+01 0.54839484846E+01 0.59120223383E+01
 0.68126555551E+01 0.84714685343E+01 0.11229239848E+02 0.16078642666E+02 0.24600886082E+02
 0.37281191157E+02 0.96148816169E+02 0.12070840141E+03 0.13831980506E+03 0.14473738936E+03
 0.13831993376E+03 0.12070873077E+03 0.96149251746E+02 0.69881511133E+02 0.46484622583E+02
 0.28807431865E+02 0.17589692670E+02 0.11639973160E+02 0.85638497238E+01 0.68124974825E+01
 0.59135930559E+01 0.55177082832E+01 0.53798596075E+01 0.53510087031E+01 0.53797996754E+01
 0.55177825723E+01 0.59138363017E+01 0.68126555551E+01 0.85637181979E+01 0.11639709652E+02
 0.17589613825E+02 0.28807568045E+02 0.46484671568E+02 0.69881250358E+02 0.16044602343E+03
 0.19275088020E+03 0.21128039614E+03 0.21128056472E+03 0.19275137167E+03 0.16044671160E+03
 0.12183290205E+03 0.84333021143E+02 0.53310436843E+02 0.31303712193E+02 0.18160339178E+02
 0.11639983108E+02 0.84717231935E+01 0.67544363932E+01 0.59236336623E+01 0.55852287408E+01
 0.54813250952E+01 0.54813474155E+01 0.55852945740E+01 0.59236911882E+01 0.67543631361E+01
 0.84714685343E+01 0.11639709652E+02 0.18160297539E+02 0.31303929226E+02 0.53310616251E+02
 0.84332830873E+02 0.12183231969E+03 0.24505091854E+03 0.28176258465E+03 0.29522137043E+03
 0.28176253943E+03 0.24505090465E+03 0.19435947831E+03 0.14061811587E+03 0.92734792741E+02
 0.55836758812E+02 0.31303692697E+02 0.17589444383E+02 0.11229306325E+02 0.82209915287E+01
 0.66616822019E+01 0.59529878761E+01 0.56876039856E+01 0.56259000826E+01 0.56877091375E+01
 0.59530146536E+01 0.66615160226E+01 0.82207586899E+01 0.11229239848E+02 0.17589613825E+02
 0.31303929226E+02 0.55836847514E+02 0.92734687431E+02 0.14061794589E+03 0.19435938654E+03
 0.34218669296E+03 0.37622021076E+03 0.37621996394E+03 0.34218613279E+03 0.28339829888E+03
 0.21404764022E+03 0.14753286857E+03 0.92734773127E+02 0.53310583266E+02 0.28807421705E+02
 0.16078480149E+02 0.10533565704E+02 0.78804059126E+01 0.65720672964E+01 0.60160073691E+01
 0.58311681303E+01 0.58311367770E+01 0.60159359935E+01 0.65720085391E+01 0.78804117745E+01
 0.10533661686E+02 0.16078642666E+02 0.28807568045E+02 0.53310616251E+02 0.92734687431E+02
 0.14753281805E+03 0.21404784008E+03 0.28339879913E+03 0.43584587177E+03 0.45739328381E+03
 0.43584576492E+03 0.37739743633E+03 0.29754276200E+03 0.21404756970E+03 0.14061791235E+03
 0.84333044673E+02 0.46484937392E+02 0.24600965898E+02 0.14121683578E+02 0.97110116981E+01
 0.75366745928E+01 0.65246676137E+01 0.61276651024E+01 0.60296789817E+01 0.61275142139E+01
 0.65245520904E+01 0.75367587407E+01 0.97112478875E+01 0.14121848136E+02 0.24600886082E+02
 0.46484671568E+02 0.84332830873E+02 0.14061794589E+03 0.21404784008E+03 0.29754309774E+03
 0.37739767826E+03 0.50477902509E+03 0.50477921871E+03 0.45788782430E+03 0.37739759895E+03
 0.28339840565E+03 0.19435918733E+03 0.12183259733E+03 0.69881711340E+02 0.37281391898E+02
 0.19890816235E+02 0.12238346663E+02 0.89128923992E+01 0.72668655348E+01 0.65492706703E+01
 0.63013555816E+01 0.63013949975E+01 0.65493076475E+01 0.72668213042E+01 0.89128750557E+01
 0.12238471348E+02 0.19890922171E+02 0.37281191157E+02 0.69881250358E+02 0.12183231969E+03
 0.19435938654E+03 0.28339879913E+03 0.37739767826E+03 0.45788753883E+03 0.50824303030E+03
 0.48383236058E+03 0.41778912015E+03 0.32803297095E+03 0.23491630524E+03 0.15379754993E+03
 0.92169138488E+02 0.50920683342E+02 0.26987296622E+02 0.15388909549E+02 0.10540290271E+02
 0.81946482035E+01 0.70904796454E+01 0.66503614424E+01 0.65400111581E+01 0.66503156819E+01
 0.70905525781E+01 0.81947451217E+01 0.10540205435E+02 0.15388805812E+02 0.26987426731E+02
 0.50920803163E+02 0.92168888066E+02 0.15379721034E+03 0.23491639178E+03 0.32803327826E+03
 0.41778904490E+03 0.48383200459E+03 0.48383236058E+03 0.43843429632E+03 0.36065199829E+03
 0.27011526224E+03 0.18477749221E+03 0.11571220355E+03 0.66600616041E+02 0.35994747754E+02
 0.19743527836E+02 0.12568396418E+02 0.93760665612E+01 0.77820897564E+01 0.70842929730E+01
 0.68427618832E+01 0.68425902766E+01 0.70841155834E+01 0.77822529590E+01 0.93762276287E+01
 0.12568176626E+02 0.19743295817E+02 0.35995022805E+02 0.66601152137E+02 0.11571238217E+03
 0.18477726360E+03 0.27011504625E+03 0.36065195709E+03 0.43843428568E+03 0.48383234147E+03
 0.41778912015E+03 0.36065199829E+03 0.28301816113E+03 0.20254664133E+03 0.13259938807E+03
 0.79705614443E+02 0.44594906374E+02 0.24471535882E+02 0.14826757319E+02 0.10666765044E+02
 0.85674918460E+01 0.75791420384E+01 0.71882293678E+01 0.70913549541E+01 0.71879709537E+01
 0.75791130732E+01 0.85677212199E+01 0.10666725463E+02 0.14826351065E+02 0.24471379249E+02
 0.44595361403E+02 0.79706203424E+02 0.13259949473E+03 0.20254627465E+03 0.28301772407E+03
 0.36065171976E+03 0.41778899588E+03 0.43890875437E+03 0.32803297095E+03 0.27011526224E+03
 0.20254664133E+03 0.13875372144E+03 0.87193516972E+02 0.50812394173E+02 0.28537435788E+02
 0.17014773622E+02 0.11898286673E+02 0.93623245711E+01 0.80911726799E+01 0.75436396153E+01
 0.73605224199E+01 0.73605124845E+01 0.75436756719E+01 0.80912747235E+01 0.93623272041E+01
 0.11898101356E+02 0.17014589958E+02 0.28537440625E+02 0.50812480194E+02 0.87193480662E+02
 0.13875355878E+03 0.20254644244E+03 0.27011501516E+03 0.32803269075E+03 0.36177939807E+03
 0.36177953314E+03 0.23491630524E+03 0.18477749221E+03 0.13259938807E+03 0.87193516972E+02
 0.53083128663E+02 0.30895110525E+02 0.18630396689E+02 0.12878676000E+02 0.10053401569E+02
 0.85603280464E+01 0.78713863697E+01 0.76119045036E+01 0.75518166404E+01 0.76119945511E+01
 0.78714681817E+01 0.85603694414E+01 0.10053478616E+02 0.12878795336E+02 0.18630389872E+02
 0.30894839025E+02 0.53082747020E+02 0.87193364734E+02 0.13259958496E+03 0.18477778974E+03
 0.23491642172E+03 0.27167756320E+03 0.28523621817E+03 0.27167760239E+03 0.15379754993E+03
 0.11571220355E+03 0.79705614443E+02 0.50812394173E+02 0.30895110525E+02 0.19227704356E+02
 0.13432220765E+02 0.10525898743E+02 0.89210260097E+01 0.81352081273E+01 0.78158280201E+01
 0.77202900900E+01 0.77202932126E+01 0.78157923663E+01 0.81351464670E+01 0.89211084470E+01
 0.10526183909E+02 0.13432453071E+02 0.19227622860E+02 0.30894848214E+02 0.50812336963E+02
 0.79705929836E+02 0.11571270689E+03 0.15379798298E+03 0.18630698801E+03 0.20518112543E+03
 0.20518104536E+03 0.18630673398E+03 0.92169138488E+02 0.66600616041E+02 0.44594906374E+02
 0.28537435788E+02 0.18630396689E+02 0.13432220765E+02 0.10694102874E+02 0.91176635356E+01
 0.83060893602E+01 0.79555258153E+01 0.78420733723E+01 0.78214705586E+01 0.78421021176E+01
 0.79553978149E+01 0.83058484900E+01 0.91175952808E+01 0.10694283515E+02 0.13432417777E+02
 0.18630473934E+02 0.28537517763E+02 0.44595082633E+02 0.66600805042E+02 0.92169304043E+02
 0.11677162675E+03 0.13477208599E+03 0.14139880918E+03 0.13477190349E+03 0.11677142396E+03
 0.50920683342E+02 0.35994747754E+02 0.24471535882E+02 0.17014773622E+02 0.12878676000E+02
 0.10525898743E+02 0.91176635356E+01 0.83653147730E+01 0.80256743212E+01 0.79118308207E+01
 0.78913190118E+01 0.78914278547E+01 0.79119390386E+01 0.80255037555E+01 0.83649899240E+01
 0.91174844707E+01 0.10525902033E+02 0.12878718198E+02 0.17014815564E+02 0.24471560383E+02
 0.35994624741E+02 0.50920392475E+02 0.67005050642E+02 0.80831819579E+02 0.88873964411E+02
 0.88873919232E+02 0.80831832629E+02 0.67005279415E+02 0.26987296622E+02 0.19743527836E+02
 0.14826757319E+02 0.11898286673E+02 0.10053401569E+02 0.89210260097E+01 0.83060893602E+01
 0.80256743212E+01 0.79340954839E+01 0.79250122681E+01 0.79301608919E+01 0.79251688802E+01
 0.79342372522E+01 0.80257186949E+01 0.83060657904E+01 0.89208925964E+01 0.10053119381E+02
 0.11898016072E+02 0.14826671429E+02 0.19743488369E+02 0.26987040089E+02 0.35845490191E+02
 0.44622437034E+02 0.51138435140E+02 0.53551159090E+02 0.51138488223E+02 0.44622707584E+02
 0.35845904090E+02 0.15388909549E+02 0.12568396418E+02 0.10666765044E+02 0.93623245711E+01
 0.85603280464E+01 0.81352081273E+01 0.79555258153E+01 0.79118308207E+01 0.79250122681E+01
 0.79442254618E+01 0.79442364878E+01 0.79250795112E+01 0.79120269676E+01 0.79558402367E+01
 0.81354469100E+01 0.85602878513E+01 0.93620882752E+01 0.10666619577E+02 0.12568418442E+02
 0.15388889772E+02 0.19288609674E+02 0.23756554414E+02 0.27753042771E+02 0.30126913652E+02
 0.30126820780E+02 0.27752933491E+02 0.23756633013E+02 0.19288760138E+02 0.10540290271E+02
 0.93760665612E+01 0.85674918460E+01 0.80911726799E+01 0.78713863697E+01 0.78158280201E+01
 0.78420733723E+01 0.78913190118E+01 0.79301608919E+01 0.79442364878E+01 0.79300225901E+01
 0.78911703890E+01 0.78420907343E+01 0.78160762527E+01 0.78717406754E+01 0.80914555044E+01
 0.85676427450E+01 0.93761134041E+01 0.10540253594E+02 0.12018804733E+02 0.13803706399E+02
 0.15654400335E+02 0.17083536859E+02 0.17623441948E+02 0.17083201712E+02 0.15654055295E+02
 0.13803590775E+02 0.12018851943E+02 0.81946482035E+01 0.77820897564E+01 0.75791420384E+01
 0.75436396153E+01 0.76119045036E+01 0.77202900900E+01 0.78214705586E+01 0.78914278547E+01
 0.79251688802E+01 0.79250795112E+01 0.78911703890E+01 0.78211303244E+01 0.77200555999E+01
 0.76119308423E+01 0.75438924488E+01 0.75794411358E+01 0.77822921454E+01 0.81947391228E+01
 0.88151518377E+01 0.95817624194E+01 0.10372739578E+02 0.11037533455E+02 0.11427861256E+02
 0.11427844110E+02 0.11037496196E+02 0.10372705854E+02 0.95817381936E+01 0.88151177371E+01
 0.70904796454E+01 0.70842929730E+01 0.71882293678E+01 0.73605224199E+01 0.75518166404E+01
 0.77202932126E+01 0.78421021176E+01 0.79119390386E+01 0.79342372522E+01 0.79120269676E+01
 0.78420907343E+01 0.77200555999E+01 0.75514426734E+01 0.73602053547E+01 0.71880860592E+01
 0.70843433149E+01 0.70907056275E+01 0.72271626149E+01 0.74820798526E+01 0.78091494722E+01
 0.81343089567E+01 0.83742985275E+01 0.84629168359E+01 0.83747256361E+01 0.81347965638E+01
 0.78093323028E+01 0.74819082725E+01 0.72268531646E+01 0.66503614424E+01 0.68427618832E+01
 0.70913549541E+01 0.73605124845E+01 0.76119945511E+01 0.78157923663E+01 0.79553978149E+01
 0.80255037555E+01 0.80257186949E+01 0.79558402367E+01 0.78160762527E+01 0.76119308423E+01
 0.73602053547E+01 0.70910038696E+01 0.68425039699E+01 0.66502869003E+01 0.65370222238E+01
 0.65072306583E+01 0.65473621053E+01 0.66290654792E+01 0.67152028930E+01 0.67697094534E+01
 0.67698951574E+01 0.67155690313E+01 0.66292542001E+01 0.65472310914E+01 0.65069580373E+01
 0.65368695994E+01 0.65400111581E+01 0.68425902766E+01 0.71879709537E+01 0.75436756719E+01
 0.78714681817E+01 0.81351464670E+01 0.83058484900E+01 0.83649899240E+01 0.83060657904E+01
 0.81354469100E+01 0.78717406754E+01 0.75438924488E+01 0.71880860592E+01 0.68425039699E+01
 0.65397091543E+01 0.62994490051E+01 0.61262437514E+01 0.60130033605E+01 0.59470811815E+01
 0.59144782621E+01 0.59018620378E+01 0.58989225453E+01 0.59016722037E+01 0.59141525831E+01
 0.59467537525E+01 0.60128594937E+01 0.61263906762E+01 0.62997931478E+01 0.66503156819E+01
 0.70841155834E+01 0.75791130732E+01 0.80912747235E+01 0.85603694414E+01 0.89211084470E+01
 0.91175952808E+01 0.91174844707E+01 0.89208925964E+01 0.85602878513E+01 0.80914555044E+01
 0.75794411358E+01 0.70843433149E+01 0.66502869003E+01 0.62994490051E+01 0.60325784539E+01
 0.58361016615E+01 0.56926254534E+01 0.55893122667E+01 0.55204988494E+01 0.54855238095E+01
 0.54852800765E+01 0.55199827169E+01 0.55889375470E+01 0.56926120610E+01 0.58363729726E+01
 0.60329351550E+01 0.62997091037E+01 0.70905525781E+01 0.77822529590E+01 0.85677212199E+01
 0.93623272041E+01 0.10053478616E+02 0.10526183909E+02 0.10694283515E+02 0.10525902033E+02
 0.10053119381E+02 0.93620882752E+01 0.85676427450E+01 0.77822921454E+01 0.70907056275E+01
 0.65370222238E+01 0.61262437514E+01 0.58361016615E+01 0.56335247312E+01 0.54895412833E+01
 0.53877323768E+01 0.53243865776E+01 0.53024456461E+01 0.53241703361E+01 0.53876694524E+01
 0.54898443489E+01 0.56339545050E+01 0.58362855632E+01 0.61261100326E+01 0.65367856575E+01
 0.81947451217E+01 0.93762276287E+01 0.10666725463E+02 0.11898101356E+02 0.12878795336E+02
 0.13432453071E+02 0.13432417777E+02 0.12878718198E+02 0.11898016072E+02 0.10666619577E+02
 0.93761134041E+01 0.81947391228E+01 0.72271626149E+01 0.65072306583E+01 0.60130033605E+01
 0.56926254534E+01 0.54895412833E+01 0.53598541717E+01 0.52790610282E+01 0.52389485048E+01
 0.52390084389E+01 0.52792764074E+01 0.53602232123E+01 0.54898859675E+01 0.56926938254E+01
 0.60127365852E+01 0.65068483424E+01 0.72269385777E+01 0.10540205435E+02 0.12568176626E+02
 0.14826351065E+02 0.17014589958E+02 0.18630389872E+02 0.19227622860E+02 0.18630473934E+02
 0.17014815564E+02 0.14826671429E+02 0.12568418442E+02 0.10540253594E+02 0.88151518377E+01
 0.74820798526E+01 0.65473621053E+01 0.59470811815E+01 0.55893122667E+01 0.53877323768E+01
 0.52790610282E+01 0.52256599320E+01 0.52096583209E+01 0.52259273726E+01 0.52792890924E+01
 0.53876735650E+01 0.55890216354E+01 0.59467893012E+01 0.65472329602E+01 0.74821173454E+01
 0.88152304547E+01 0.15388805812E+02 0.19743295817E+02 0.24471379249E+02 0.28537440625E+02
 0.30894839025E+02 0.30894848214E+02 0.28537517763E+02 0.24471560383E+02 0.19743488369E+02
 0.15388889772E+02 0.12018804733E+02 0.95817624194E+01 0.78091494722E+01 0.66290654792E+01
 0.59144782621E+01 0.55204988494E+01 0.53243865776E+01 0.52389485048E+01 0.52096583209E+01
 0.52097731501E+01 0.52390526219E+01 0.53241504790E+01 0.55200386474E+01 0.59141989193E+01
 0.66291286378E+01 0.78093742684E+01 0.95819411238E+01 0.12018861735E+02 0.26987426731E+02
 0.35995022805E+02 0.44595361403E+02 0.50812480194E+02 0.53082747020E+02 0.50812336963E+02
 0.44595082633E+02 0.35994624741E+02 0.26987040089E+02 0.19288609674E+02 0.13803706399E+02
 0.10372739578E+02 0.81343089567E+01 0.67152028930E+01 0.59018620378E+01 0.54855238095E+01
 0.53024456461E+01 0.52390084389E+01 0.52259273726E+01 0.52390526219E+01 0.53022976909E+01
 0.54852468690E+01 0.59018364432E+01 0.67155120632E+01 0.81345697704E+01 0.10372695277E+02
 0.13803592771E+02 0.19288755138E+02 0.50920803163E+02 0.66601152137E+02 0.79706203424E+02
 0.87193480662E+02 0.87193364734E+02 0.79705929836E+02 0.66600805042E+02 0.50920392475E+02
 0.35845490191E+02 0.23756554414E+02 0.15654400335E+02 0.11037533455E+02 0.83742985275E+01
 0.67697094534E+01 0.58989225453E+01 0.54852800765E+01 0.53241703361E+01 0.52792764074E+01
 0.52792890924E+01 0.53241504790E+01 0.54852468690E+01 0.58990808248E+01 0.67700839977E+01
 0.83745384749E+01 0.11037385502E+02 0.15654125352E+02 0.23756570386E+02 0.35845830098E+02
 0.92168888066E+02 0.11571238217E+03 0.13259949473E+03 0.13875355878E+03 0.13259958496E+03
 0.11571270689E+03 0.92169304043E+02 0.67005050642E+02 0.44622437034E+02 0.27753042771E+02
 0.17083536859E+02 0.11427861256E+02 0.84629168359E+01 0.67698951574E+01 0.59016722037E+01
 0.55199827169E+01 0.53876694524E+01 0.53602232123E+01 0.53876735650E+01 0.55200386474E+01
 0.59018364432E+01 0.67700839977E+01 0.84629037945E+01 0.11427603043E+02 0.17083343800E+02
 0.27753162632E+02 0.44622632425E+02 0.67004921436E+02 0.15379721034E+03 0.18477726360E+03
 0.20254627465E+03 0.20254644244E+03 0.18477778974E+03 0.15379798298E+03 0.11677162675E+03
 0.80831819579E+02 0.51138435140E+02 0.30126913652E+02 0.17623441948E+02 0.11427844110E+02
 0.83747256361E+01 0.67155690313E+01 0.59141525831E+01 0.55889375470E+01 0.54898443489E+01
 0.54898859675E+01 0.55890216354E+01 0.59141989193E+01 0.67155120632E+01 0.83745384749E+01
 0.11427603043E+02 0.17623347783E+02 0.30127082652E+02 0.51138645697E+02 0.80831664977E+02
 0.11677099573E+03 0.23491639178E+03 0.27011504625E+03 0.28301772407E+03 0.27011501516E+03
 0.23491642172E+03 0.18630698801E+03 0.13477208599E+03 0.88873964411E+02 0.53551159090E+02
 0.30126820780E+02 0.17083201712E+02 0.11037496196E+02 0.81347965638E+01 0.66292542001E+01
 0.59467537525E+01 0.56926120610E+01 0.56339545050E+01 0.56926938254E+01 0.59467893012E+01
 0.66291286378E+01 0.81345697704E+01 0.11037385502E+02 0.17083343800E+02 0.30127082652E+02
 0.53551267146E+02 0.88873808986E+02 0.13477181631E+03 0.18630681032E+03 0.32803327826E+03
 0.36065195709E+03 0.36065171976E+03 0.32803269075E+03 0.27167756320E+03 0.20518112543E+03
 0.14139880918E+03 0.88873919232E+02 0.51138488223E+02 0.27752933491E+02 0.15654055295E+02
 0.10372705854E+02 0.78093323028E+01 0.65472310914E+01 0.60128594937E+01 0.58363729726E+01
 0.58362855632E+01 0.60127365852E+01 0.65472329602E+01 0.78093742684E+01 0.10372695277E+02
 0.15654125352E+02 0.27753162632E+02 0.51138645697E+02 0.88873808986E+02 0.14139866321E+03
 0.20518133387E+03 0.27167814397E+03 0.41778904490E+03 0.43843428568E+03 0.41778899588E+03
 0.36177939807E+03 0.28523621817E+03 0.20518104536E+03 0.13477190349E+03 0.80831832629E+02
 0.44622707584E+02 0.23756633013E+02 0.13803590775E+02 0.95817381936E+01 0.74819082725E+01
 0.65069580373E+01 0.61263906762E+01 0.60329351550E+01 0.61261100326E+01 0.65068483424E+01
 0.74821173454E+01 0.95819411238E+01 0.13803592771E+02 0.23756570386E+02 0.44622632425E+02
 0.80831664977E+02 0.13477181631E+03 0.20518133387E+03 0.28523675406E+03 0.36177974123E+03
 0.48383200459E+03 0.48383234147E+03 0.43890875437E+03 0.36177953314E+03 0.27167760239E+03
 0.18630673398E+03 0.11677142396E+03 0.67005279415E+02 0.35845904090E+02 0.19288760138E+02
 0.12018851943E+02 0.88151177371E+01 0.72268531646E+01 0.65368695994E+01 0.62997931478E+01
 0.62997091037E+01 0.65367856575E+01 0.72269385777E+01 0.88152304547E+01 0.12018861735E+02
 0.19288755138E+02 0.35845830098E+02 0.67004921436E+02 0.11677099573E+03 0.18630681032E+03
 0.27167814397E+03 0.36177974123E+03 0.43890831719E+03 0.44791446096E+03 0.42643249975E+03
 0.36828868269E+03 0.28920925827E+03 0.20710047821E+03 0.13554780873E+03 0.81258666567E+02
 0.45090113359E+02 0.24302480662E+02 0.14347836665E+02 0.10108113097E+02 0.79954166424E+01
 0.70080069770E+01 0.66201431324E+01 0.65245034903E+01 0.66199736211E+01 0.70080732085E+01
 0.79956388259E+01 0.10108058665E+02 0.14347645994E+02 0.24302600482E+02 0.45090289399E+02
 0.81258346316E+02 0.13554732023E+03 0.20710056172E+03 0.28920965379E+03 0.36828853061E+03
 0.42643195393E+03 0.42643249975E+03 0.38646845211E+03 0.31795883373E+03 0.23815487803E+03
 0.16289049771E+03 0.10200549845E+03 0.58835893908E+02 0.32122354048E+02 0.18102674697E+02
 0.11935572104E+02 0.90719312093E+01 0.76412572167E+01 0.70218172652E+01 0.68112764229E+01
 0.68110308968E+01 0.70215584384E+01 0.76414793630E+01 0.90721697992E+01 0.11935313993E+02
 0.18102398508E+02 0.32122680504E+02 0.58836450778E+02 0.10200559415E+03 0.16289025004E+03
 0.23815477037E+03 0.31795879301E+03 0.38646822438E+03 0.42643233296E+03 0.36828868269E+03
 0.31795883373E+03 0.24953539764E+03 0.17857362900E+03 0.11690129399E+03 0.70356010731E+02