   2   2   0   0
  0.1737142E+02  0.2936640E-09  0.2936640E-09  0.4651930E-09  0.5000000E-15
  1.000000000000000E-004
  CAR 
 Ti                                      
     62.58016503    -53.78905102  301      8.35857390      1.00000000
    -53.789  0.0000E+00  0.0000E+00
    -53.401  0.0000E+00  0.0000E+00
    -53.013  0.0000E+00  0.0000E+00
    -52.625  0.0000E+00  0.0000E+00
    -52.237  0.0000E+00  0.0000E+00
    -51.850  0.0000E+00  0.0000E+00
    -51.462  0.0000E+00  0.0000E+00
    -51.074  0.0000E+00  0.0000E+00
    -50.686  0.0000E+00  0.0000E+00
    -50.298  0.0000E+00  0.0000E+00
    -49.910  0.0000E+00  0.0000E+00
    -49.522  0.0000E+00  0.0000E+00
    -49.134  0.0000E+00  0.0000E+00
    -48.746  0.3385E-13  0.1313E-13
    -48.358  0.6350E+01  0.2463E+01
    -47.971  0.3233E+01  0.4000E+01
    -47.583  0.0000E+00  0.4000E+01
    -47.195  0.0000E+00  0.4000E+01
    -46.807  0.0000E+00  0.4000E+01
    -46.419  0.0000E+00  0.4000E+01
    -46.031  0.0000E+00  0.4000E+01
    -45.643  0.0000E+00  0.4000E+01
    -45.255  0.0000E+00  0.4000E+01
    -44.867  0.0000E+00  0.4000E+01
    -44.480  0.0000E+00  0.4000E+01
    -44.092  0.0000E+00  0.4000E+01
    -43.704  0.0000E+00  0.4000E+01
    -43.316  0.0000E+00  0.4000E+01
    -42.928  0.0000E+00  0.4000E+01
    -42.540  0.0000E+00  0.4000E+01
    -42.152  0.0000E+00  0.4000E+01
    -41.764  0.0000E+00  0.4000E+01
    -41.376  0.0000E+00  0.4000E+01
    -40.988  0.0000E+00  0.4000E+01
    -40.601  0.0000E+00  0.4000E+01
    -40.213  0.0000E+00  0.4000E+01
    -39.825  0.0000E+00  0.4000E+01
    -39.437  0.0000E+00  0.4000E+01
    -39.049  0.0000E+00  0.4000E+01
    -38.661  0.0000E+00  0.4000E+01
    -38.273  0.0000E+00  0.4000E+01
    -37.885  0.0000E+00  0.4000E+01
    -37.497  0.0000E+00  0.4000E+01
    -37.109  0.0000E+00  0.4000E+01
    -36.722  0.0000E+00  0.4000E+01
    -36.334  0.0000E+00  0.4000E+01
    -35.946  0.0000E+00  0.4000E+01
    -35.558  0.0000E+00  0.4000E+01
    -35.170  0.0000E+00  0.4000E+01
    -34.782  0.0000E+00  0.4000E+01
    -34.394  0.0000E+00  0.4000E+01
    -34.006  0.0000E+00  0.4000E+01
    -33.618  0.0000E+00  0.4000E+01
    -33.230  0.0000E+00  0.4000E+01
    -32.843  0.0000E+00  0.4000E+01
    -32.455  0.0000E+00  0.4000E+01
    -32.067  0.0000E+00  0.4000E+01
    -31.679  0.0000E+00  0.4000E+01
    -31.291  0.0000E+00  0.4000E+01
    -30.903  0.0000E+00  0.4000E+01
    -30.515  0.0000E+00  0.4000E+01
    -30.127  0.0000E+00  0.4000E+01
    -29.739  0.0000E+00  0.4000E+01
    -29.352  0.0000E+00  0.4000E+01
    -28.964  0.0000E+00  0.4000E+01
    -28.576  0.0000E+00  0.4000E+01
    -28.188  0.0000E+00  0.4000E+01
    -27.800  0.0000E+00  0.4000E+01
    -27.412  0.0000E+00  0.4000E+01
    -27.024  0.0000E+00  0.4000E+01
    -26.636  0.0000E+00  0.4000E+01
    -26.248  0.0000E+00  0.4000E+01
    -25.860  0.0000E+00  0.4000E+01
    -25.473  0.0000E+00  0.4000E+01
    -25.085  0.7740E-01  0.4030E+01
    -24.697  0.1128E+02  0.8407E+01
    -24.309  0.1929E+02  0.1599E+02
    -23.921  0.0000E+00  0.1600E+02
    -23.533  0.0000E+00  0.1600E+02
    -23.145  0.0000E+00  0.1600E+02
    -22.757  0.0000E+00  0.1600E+02
    -22.369  0.0000E+00  0.1600E+02
    -21.981  0.0000E+00  0.1600E+02
    -21.594  0.0000E+00  0.1600E+02
    -21.206  0.0000E+00  0.1600E+02
    -20.818  0.0000E+00  0.1600E+02
    -20.430  0.0000E+00  0.1600E+02
    -20.042  0.0000E+00  0.1600E+02
    -19.654  0.0000E+00  0.1600E+02
    -19.266  0.0000E+00  0.1600E+02
    -18.878  0.0000E+00  0.1600E+02
    -18.490  0.0000E+00  0.1600E+02
    -18.102  0.0000E+00  0.1600E+02
    -17.715  0.0000E+00  0.1600E+02
    -17.327  0.0000E+00  0.1600E+02
    -16.939  0.0000E+00  0.1600E+02
    -16.551  0.0000E+00  0.1600E+02
    -16.163  0.0000E+00  0.1600E+02
    -15.775  0.0000E+00  0.1600E+02
    -15.387  0.0000E+00  0.1600E+02
    -14.999  0.0000E+00  0.1600E+02
    -14.611  0.0000E+00  0.1600E+02
    -14.224  0.0000E+00  0.1600E+02
    -13.836  0.0000E+00  0.1600E+02
    -13.448  0.0000E+00  0.1600E+02
    -13.060  0.0000E+00  0.1600E+02
    -12.672  0.0000E+00  0.1600E+02
    -12.284  0.0000E+00  0.1600E+02
    -11.896  0.0000E+00  0.1600E+02
    -11.508  0.0000E+00  0.1600E+02
    -11.120  0.0000E+00  0.1600E+02
    -10.732  0.0000E+00  0.1600E+02
    -10.345  0.0000E+00  0.1600E+02
     -9.957  0.0000E+00  0.1600E+02
     -9.569  0.0000E+00  0.1600E+02
     -9.181  0.0000E+00  0.1600E+02
     -8.793  0.0000E+00  0.1600E+02
     -8.405  0.0000E+00  0.1600E+02
     -8.017  0.0000E+00  0.1600E+02
     -7.629  0.0000E+00  0.1600E+02
     -7.241  0.0000E+00  0.1600E+02
     -6.853  0.0000E+00  0.1600E+02
     -6.466  0.0000E+00  0.1600E+02
     -6.078  0.0000E+00  0.1600E+02
     -5.690  0.0000E+00  0.1600E+02
     -5.302  0.0000E+00  0.1600E+02
     -4.914  0.0000E+00  0.1600E+02
     -4.526  0.0000E+00  0.1600E+02
     -4.138  0.0000E+00  0.1600E+02
     -3.750  0.0000E+00  0.1600E+02
     -3.362  0.0000E+00  0.1600E+02
     -2.974  0.0000E+00  0.1600E+02
     -2.587  0.0000E+00  0.1600E+02
     -2.199  0.0000E+00  0.1600E+02
     -1.811  0.0000E+00  0.1600E+02
     -1.423  0.0000E+00  0.1600E+02
     -1.035  0.0000E+00  0.1600E+02
     -0.647  0.0000E+00  0.1600E+02
     -0.259  0.0000E+00  0.1600E+02
      0.129  0.0000E+00  0.1600E+02
      0.517  0.0000E+00  0.1600E+02
      0.904  0.0000E+00  0.1600E+02
      1.292  0.0000E+00  0.1600E+02
      1.680  0.0000E+00  0.1600E+02
      2.068  0.1985E-05  0.1600E+02
      2.456  0.3021E-01  0.1601E+02
      2.844  0.2010E+00  0.1609E+02
      3.232  0.1213E+00  0.1614E+02
      3.620  0.2042E+00  0.1622E+02
      4.008  0.4226E+00  0.1638E+02
      4.396  0.2937E+00  0.1649E+02
      4.783  0.2751E+00  0.1661E+02
      5.171  0.7889E+00  0.1692E+02
      5.559  0.7764E+00  0.1722E+02
      5.947  0.1703E+01  0.1788E+02
      6.335  0.1951E+01  0.1868E+02
      6.723  0.2753E+01  0.1975E+02
      7.111  0.2253E+01  0.2064E+02
      7.499  0.2862E+01  0.2176E+02
      7.887  0.3526E+01  0.2319E+02
      8.275  0.1832E+01  0.2392E+02
      8.662  0.3080E+01  0.2514E+02
      9.050  0.3754E+01  0.2665E+02
      9.438  0.5070E+01  0.2867E+02
      9.826  0.3387E+01  0.3003E+02
     10.214  0.2163E+01  0.3089E+02
     10.602  0.2704E+01  0.3194E+02
     10.990  0.1467E+01  0.3252E+02
     11.378  0.3951E+01  0.3406E+02
     11.766  0.5844E+01  0.3640E+02
     12.154  0.2733E+01  0.3754E+02
     12.541  0.8517E+00  0.3788E+02
     12.929  0.1516E+01  0.3848E+02
     13.317  0.5602E+00  0.3870E+02
     13.705  0.6862E+00  0.3897E+02
     14.093  0.7142E+00  0.3925E+02
     14.481  0.6329E+00  0.3950E+02
     14.869  0.9320E+00  0.3986E+02
     15.257  0.5367E-16  0.3986E+02
     15.645  0.1629E+00  0.3992E+02
     16.032  0.2124E+00  0.4001E+02
     16.420  0.2182E+00  0.4010E+02
     16.808  0.6038E+00  0.4033E+02
     17.196  0.1509E+01  0.4092E+02
     17.584  0.1123E+01  0.4137E+02
     17.972  0.1452E+01  0.4194E+02
     18.360  0.1269E+01  0.4243E+02
     18.748  0.1385E+01  0.4298E+02
     19.136  0.8554E+00  0.4333E+02
     19.524  0.7843E+00  0.4365E+02
     19.911  0.9634E+00  0.4403E+02
     20.299  0.1053E+01  0.4443E+02
     20.687  0.1050E+01  0.4484E+02
     21.075  0.1322E+01  0.4536E+02
     21.463  0.1623E+01  0.4601E+02
     21.851  0.1657E+01  0.4668E+02
     22.239  0.6956E+00  0.4695E+02
     22.627  0.2388E+01  0.4788E+02
     23.015  0.8069E+00  0.4819E+02
     23.403  0.1349E+01  0.4872E+02
     23.790  0.1767E+01  0.4942E+02
     24.178  0.1411E+01  0.4997E+02
     24.566  0.1128E+01  0.5044E+02
     24.954  0.9549E+00  0.5081E+02
     25.342  0.1184E+01  0.5129E+02
     25.730  0.1494E+01  0.5189E+02
     26.118  0.1325E+01  0.5242E+02
     26.506  0.4373E+00  0.5260E+02
     26.894  0.1556E+01  0.5322E+02
     27.282  0.5926E+00  0.5347E+02
     27.669  0.1684E+01  0.5412E+02
     28.057  0.1538E+01  0.5477E+02
     28.445  0.5534E+00  0.5500E+02
     28.833  0.1538E+01  0.5560E+02
     29.221  0.5416E+00  0.5581E+02
     29.609  0.1514E+01  0.5640E+02
     29.997  0.1106E+01  0.5684E+02
     30.385  0.1196E+01  0.5730E+02
     30.773  0.1146E+01  0.5776E+02
     31.160  0.1952E+01  0.5854E+02
     31.548  0.1315E+01  0.5909E+02
     31.936  0.8637E+00  0.5943E+02
     32.324  0.1227E+01  0.5991E+02
     32.712  0.1988E+01  0.6069E+02
     33.100  0.1417E+01  0.6126E+02
     33.488  0.1463E+01  0.6185E+02
     33.876  0.1699E+01  0.6251E+02
     34.264  0.1349E+01  0.6304E+02
     34.652  0.1812E+01  0.6376E+02
     35.039  0.1037E+01  0.6417E+02
     35.427  0.1726E+01  0.6484E+02
     35.815  0.1439E+01  0.6541E+02
     36.203  0.1130E+01  0.6587E+02
     36.591  0.1047E+01  0.6627E+02
     36.979  0.9448E+00  0.6666E+02
     37.367  0.1247E+01  0.6717E+02
     37.755  0.1373E+01  0.6771E+02
     38.143  0.1187E+01  0.6818E+02
     38.531  0.2199E+01  0.6903E+02
     38.918  0.1546E+01  0.6966E+02
     39.306  0.1736E+01  0.7035E+02
     39.694  0.1295E+01  0.7088E+02
     40.082  0.1605E+01  0.7151E+02
     40.470  0.1857E+01  0.7227E+02
     40.858  0.1656E+01  0.7292E+02
     41.246  0.1401E+01  0.7347E+02
     41.634  0.8753E+00  0.7385E+02
     42.022  0.1418E+01  0.7440E+02
     42.410  0.2359E+01  0.7533E+02
     42.797  0.1646E+01  0.7601E+02
     43.185  0.2184E+01  0.7686E+02
     43.573  0.1978E+01  0.7766E+02
     43.961  0.2598E+01  0.7867E+02
     44.349  0.1140E+01  0.7913E+02
     44.737  0.1091E+01  0.7957E+02
     45.125  0.1381E+01  0.8011E+02
     45.513  0.1501E+01  0.8070E+02
     45.901  0.1163E+01  0.8119E+02
     46.288  0.1930E+01  0.8194E+02
     46.676  0.2129E+01  0.8278E+02
     47.064  0.1688E+01  0.8344E+02
     47.452  0.1686E+01  0.8412E+02
     47.840  0.1708E+01  0.8478E+02
     48.228  0.9671E+00  0.8517E+02
     48.616  0.1060E+01  0.8559E+02
     49.004  0.2881E+01  0.8671E+02
     49.392  0.2459E+01  0.8769E+02
     49.780  0.2442E+01  0.8866E+02
     50.167  0.2237E+01  0.8961E+02
     50.555  0.1824E+01  0.9033E+02
     50.943  0.2476E+01  0.9131E+02
     51.331  0.9597E+00  0.9169E+02
     51.719  0.2016E+01  0.9248E+02
     52.107  0.1586E+01  0.9310E+02
     52.495  0.1255E+01  0.9361E+02
     52.883  0.1026E+01  0.9402E+02
     53.271  0.1058E+01  0.9445E+02
     53.659  0.1905E+01  0.9520E+02
     54.046  0.6551E+00  0.9547E+02
     54.434  0.4520E+00  0.9564E+02
     54.822  0.3586E+00  0.9579E+02
     55.210  0.1210E+00  0.9584E+02
     55.598  0.1408E+00  0.9589E+02
     55.986  0.3018E-02  0.9589E+02
     56.374  0.1371E+00  0.9594E+02
     56.762  0.7481E-02  0.9595E+02
     57.150  0.1134E+00  0.9599E+02
     57.537  0.2014E-01  0.9600E+02
     57.925  0.0000E+00  0.9600E+02
     58.313  0.0000E+00  0.9600E+02
     58.701  0.0000E+00  0.9600E+02
     59.089  0.0000E+00  0.9600E+02
     59.477  0.0000E+00  0.9600E+02
     59.865  0.0000E+00  0.9600E+02
     60.253  0.0000E+00  0.9600E+02
     60.641  0.0000E+00  0.9600E+02
     61.029  0.0000E+00  0.9600E+02
     61.416  0.0000E+00  0.9600E+02
     61.804  0.0000E+00  0.9600E+02
     62.192  0.0000E+00  0.9600E+02
     62.580  0.0000E+00  0.9600E+02
