Ti                                      
           1
     2.936640    0.000000    0.000000
     1.468320    2.543205    0.000000
     0.000000    0.000000    4.651930
   Ti
     2
Direct configuration=     1
   0.00000000  0.00000000  0.00000000
   0.33333333  0.33333333  0.50000000
