 DBCSR| CPU Multiplication driver                                           BLAS (U)
 DBCSR| Multrec recursion limit                                              512 (U)
 DBCSR| Multiplication stack size                                           1000 (D)
 DBCSR| Maximum elements for images                                    UNLIMITED (U)
 DBCSR| Multiplicative factor virtual images                                   1 (U)
 DBCSR| Use multiplication densification                                       T (D)
 DBCSR| Multiplication size stacks                                             3 (U)
 DBCSR| Use memory pool for CPU allocation                                     F (U)
 DBCSR| Number of 3D layers                                               SINGLE (U)
 DBCSR| Use MPI memory allocation                                              F (U)
 DBCSR| Use RMA algorithm                                                      F (U)
 DBCSR| Use Communication thread                                               T (U)
 DBCSR| Communication thread load                                             45 (D)
 DBCSR| MPI: My process id                                                     0
 DBCSR| MPI: Number of processes                                               8
 DBCSR| OMP: Current number of threads                                        12
 DBCSR| OMP: Max number of threads                                            12
 DBCSR| Split modifier for TAS multiplication algorithm                  1.0E+00 (U)


  **** **** ******  **  PROGRAM STARTED AT               2025-08-03 17:56:04.664
 ***** ** ***  *** **   PROGRAM STARTED ON                          i06r01c05s01
 **    ****   ******    PROGRAM STARTED BY                               di38fab
 ***** **    ** ** **   PROGRAM PROCESS ID                               3546111
  **** **  *******  **  PROGRAM STARTED IN /hppfs/scratch/04/di38fab/09_GTH/Delt
                                           a_Set/Tc/DZVP-MOLOPT-PBE-GTH/8x8x8

 CP2K| version string:                 CP2K version 2025.1 (Development Version)
 CP2K| source code revision number:                                  git:3130539
 CP2K| cp2kflags: omp libint fftw3 libxc parallel scalapack max_contr=4         
 CP2K| is freely available from                            https://www.cp2k.org/
 CP2K| Program compiled at                         Tue Jun  3 16:14:32 CEST 2025
 CP2K| Program compiled on                                               login01
 CP2K| Program compiled for                                        Supermuc-foss
 CP2K| Data directory path                  /hppfs/work/pn36zo/di38fab/cp2k/data
 CP2K| Input file name                                                    GW.inp

 GLOBAL| Force Environment number                                              1
 GLOBAL| Basis set file name            /hppfs/scratch/04/di38fab/09_GTH/BASIS_A
 GLOBAL| Potential file name            /hppfs/work/pn36zo/di38fab/cp2k/data/GTH
 GLOBAL| MM Potential file name                                     MM_POTENTIAL
 GLOBAL| Coordinate file name                                             Tc.cif
 GLOBAL| Method name                                                        CP2K
 GLOBAL| Project name                                                       WSe2
 GLOBAL| Run type                                                         ENERGY
 GLOBAL| FFT library                                                       FFTW3
 GLOBAL| Diagonalization library                                       ScaLAPACK
 GLOBAL| Cholesky decomposition library                                ScaLAPACK
 GLOBAL| DGEMM library                                                      BLAS
 GLOBAL| Orthonormality check for eigenvectors                          DISABLED
 GLOBAL| Matrix multiplication library                                 ScaLAPACK
 GLOBAL| All-to-all communication in single precision                          F
 GLOBAL| FFTs using library dependent lengths                                  F
 GLOBAL| Grid backend                                                       AUTO
 GLOBAL| Global print level                                               MEDIUM
 GLOBAL| MPI I/O enabled                                                       T
 GLOBAL| Total number of message passing processes                             8
 GLOBAL| Number of threads for this process                                   12
 GLOBAL| This output is from process                                           0
 GLOBAL| OpenMP stack size per thread (OMP_STACKSIZE)                    default
 GLOBAL| CPU model name             Intel(R) Xeon(R) Platinum 8174 CPU @ 3.10GHz

 MEMORY| system memory details [Kb]
 MEMORY|                        rank 0           min           max       average
 MEMORY| MemTotal             98436660      98436660      98436660      98436660
 MEMORY| MemFree              84454712      84454712      84700580      84577646
 MEMORY| Buffers                     0             0             0             0
 MEMORY| Cached                2365932       2364616       2365932       2365274
 MEMORY| Slab                  1266724       1266724       1270392       1268558
 MEMORY| SReclaimable           280560        272656        280560        276608
 MEMORY| MemLikelyFree        87101204      87101204      87337852      87219528


 *** Fundamental physical constants (SI units) ***

 *** Literature: B. J. Mohr and B. N. Taylor,
 ***             CODATA recommended values of the fundamental physical
 ***             constants: 2006, Web Version 5.1
 ***             http://physics.nist.gov/constants

 Speed of light in vacuum [m/s]                             2.99792458000000E+08
 Magnetic constant or permeability of vacuum [N/A**2]       1.25663706143592E-06
 Electric constant or permittivity of vacuum [F/m]          8.85418781762039E-12
 Planck constant (h) [J*s]                                  6.62606896000000E-34
 Planck constant (h-bar) [J*s]                              1.05457162825177E-34
 Elementary charge [C]                                      1.60217648700000E-19
 Electron mass [kg]                                         9.10938215000000E-31
 Electron g factor [ ]                                     -2.00231930436220E+00
 Proton mass [kg]                                           1.67262163700000E-27
 Fine-structure constant                                    7.29735253760000E-03
 Rydberg constant [1/m]                                     1.09737315685270E+07
 Avogadro constant [1/mol]                                  6.02214179000000E+23
 Boltzmann constant [J/K]                                   1.38065040000000E-23
 Atomic mass unit [kg]                                      1.66053878200000E-27
 Bohr radius [m]                                            5.29177208590000E-11

 *** Conversion factors ***

 [u] -> [a.u.]                                              1.82288848426455E+03
 [Angstrom] -> [Bohr] = [a.u.]                              1.88972613288564E+00
 [a.u.] = [Bohr] -> [Angstrom]                              5.29177208590000E-01
 [a.u.] -> [s]                                              2.41888432650478E-17
 [a.u.] -> [fs]                                             2.41888432650478E-02
 [a.u.] -> [J]                                              4.35974393937059E-18
 [a.u.] -> [N]                                              8.23872205491840E-08
 [a.u.] -> [K]                                              3.15774647902944E+05
 [a.u.] -> [kJ/mol]                                         2.62549961709828E+03
 [a.u.] -> [kcal/mol]                                       6.27509468713739E+02
 [a.u.] -> [Pa]                                             2.94210107994716E+13
 [a.u.] -> [bar]                                            2.94210107994716E+08
 [a.u.] -> [atm]                                            2.90362800883016E+08
 [a.u.] -> [eV]                                             2.72113838565563E+01
 [a.u.] -> [Hz]                                             6.57968392072181E+15
 [a.u.] -> [1/cm] (wave numbers)                            2.19474631370540E+05
 [a.u./Bohr**2] -> [1/cm]                                   5.14048714338585E+03
 

 CELL_TOP| Volume [angstrom^3]:                                        29.192145
 CELL_TOP| Vector a [angstrom     2.762     0.000     0.000   |a| =     2.761870
 CELL_TOP| Vector b [angstrom     1.381     2.392     0.000   |b| =     2.761870
 CELL_TOP| Vector c [angstrom     0.000     0.000     4.419   |c| =     4.419050
 CELL_TOP| Angle (b,c), alpha [degree]:                                90.000000
 CELL_TOP| Angle (a,c), beta  [degree]:                                90.000000
 CELL_TOP| Angle (a,b), gamma [degree]:                                60.000000
 CELL_TOP| Numerically orthorhombic:                                          NO
 CELL_TOP| Periodicity                                                       XYZ

 CELL_CIF| Volume [angstrom^3]:                                        29.192145
 CELL_CIF| Vector a [angstrom     2.762     0.000     0.000   |a| =     2.761870
 CELL_CIF| Vector b [angstrom     1.381     2.392     0.000   |b| =     2.761870
 CELL_CIF| Vector c [angstrom     0.000     0.000     4.419   |c| =     4.419050
 CELL_CIF| Angle (b,c), alpha [degree]:                                90.000000
 CELL_CIF| Angle (a,c), beta  [degree]:                                90.000000
 CELL_CIF| Angle (a,b), gamma [degree]:                                60.000000
 CELL_CIF| Numerically orthorhombic:                                          NO
 CELL_CIF| Periodicity                                                       XYZ

 GENERATE|  Preliminary Number of Bonds generated:                             0
 GENERATE|  Achieved consistency in connectivity generation.

 CELL| Volume [angstrom^3]:                                            29.192145
 CELL| Vector a [angstrom]:       2.762     0.000     0.000   |a| =     2.761870
 CELL| Vector b [angstrom]:       1.381     2.392     0.000   |b| =     2.761870
 CELL| Vector c [angstrom]:       0.000     0.000     4.419   |c| =     4.419050
 CELL| Angle (b,c), alpha [degree]:                                    90.000000
 CELL| Angle (a,c), beta  [degree]:                                    90.000000
 CELL| Angle (a,b), gamma [degree]:                                    60.000000
 CELL| Numerically orthorhombic:                                              NO
 CELL| Periodicity                                                           XYZ

 CELL_REF| Volume [angstrom^3]:                                        29.192145
 CELL_REF| Vector a [angstrom     2.762     0.000     0.000   |a| =     2.761870
 CELL_REF| Vector b [angstrom     1.381     2.392     0.000   |b| =     2.761870
 CELL_REF| Vector c [angstrom     0.000     0.000     4.419   |c| =     4.419050
 CELL_REF| Angle (b,c), alpha [degree]:                                90.000000
 CELL_REF| Angle (a,c), beta  [degree]:                                90.000000
 CELL_REF| Angle (a,b), gamma [degree]:                                60.000000
 CELL_REF| Numerically orthorhombic:                                          NO
 CELL_REF| Periodicity                                                       XYZ

 *** WARNING in cryssym.F:180 :: Symmetry library SPGLIB not available ***


 *******************************************************************************
                                    Kpoints
 *******************************************************************************
 BRILLOUIN| K-point scheme                                        Monkhorst-Pack
 BRILLOUIN| K-Point grid                                             8    8    8
 BRILLOUIN| Accuracy in Symmetry determination                      0.100000E-05
 BRILLOUIN| K-Point point group symmetrization                               OFF
 BRILLOUIN| Wavefunction type                                            COMPLEX
 BRILLOUIN| List of Kpoints [2 Pi/Bohr]                                      256
 BRILLOUIN| Number           Weight            X              Y              Z
 BRILLOUIN|     1           0.00391       -0.43750       -0.43750       -0.43750
 BRILLOUIN|     2           0.00391       -0.43750       -0.43750       -0.31250
 BRILLOUIN|     3           0.00391       -0.43750       -0.43750       -0.18750
 BRILLOUIN|     4           0.00391       -0.43750       -0.43750       -0.06250
 BRILLOUIN|     5           0.00391       -0.43750       -0.43750        0.06250
 BRILLOUIN|     6           0.00391       -0.43750       -0.43750        0.18750
 BRILLOUIN|     7           0.00391       -0.43750       -0.43750        0.31250
 BRILLOUIN|     8           0.00391       -0.43750       -0.43750        0.43750
 BRILLOUIN|     9           0.00391       -0.43750       -0.31250       -0.43750
 BRILLOUIN|    10           0.00391       -0.43750       -0.31250       -0.31250
 BRILLOUIN|    11           0.00391       -0.43750       -0.31250       -0.18750
 BRILLOUIN|    12           0.00391       -0.43750       -0.31250       -0.06250
 BRILLOUIN|    13           0.00391       -0.43750       -0.31250        0.06250
 BRILLOUIN|    14           0.00391       -0.43750       -0.31250        0.18750
 BRILLOUIN|    15           0.00391       -0.43750       -0.31250        0.31250
 BRILLOUIN|    16           0.00391       -0.43750       -0.31250        0.43750
 BRILLOUIN|    17           0.00391       -0.43750       -0.18750       -0.43750
 BRILLOUIN|    18           0.00391       -0.43750       -0.18750       -0.31250
 BRILLOUIN|    19           0.00391       -0.43750       -0.18750       -0.18750
 BRILLOUIN|    20           0.00391       -0.43750       -0.18750       -0.06250
 BRILLOUIN|    21           0.00391       -0.43750       -0.18750        0.06250
 BRILLOUIN|    22           0.00391       -0.43750       -0.18750        0.18750
 BRILLOUIN|    23           0.00391       -0.43750       -0.18750        0.31250
 BRILLOUIN|    24           0.00391       -0.43750       -0.18750        0.43750
 BRILLOUIN|    25           0.00391       -0.43750       -0.06250       -0.43750
 BRILLOUIN|    26           0.00391       -0.43750       -0.06250       -0.31250
 BRILLOUIN|    27           0.00391       -0.43750       -0.06250       -0.18750
 BRILLOUIN|    28           0.00391       -0.43750       -0.06250       -0.06250
 BRILLOUIN|    29           0.00391       -0.43750       -0.06250        0.06250
 BRILLOUIN|    30           0.00391       -0.43750       -0.06250        0.18750
 BRILLOUIN|    31           0.00391       -0.43750       -0.06250        0.31250
 BRILLOUIN|    32           0.00391       -0.43750       -0.06250        0.43750
 BRILLOUIN|    33           0.00391       -0.43750        0.06250       -0.43750
 BRILLOUIN|    34           0.00391       -0.43750        0.06250       -0.31250
 BRILLOUIN|    35           0.00391       -0.43750        0.06250       -0.18750
 BRILLOUIN|    36           0.00391       -0.43750        0.06250       -0.06250
 BRILLOUIN|    37           0.00391       -0.43750        0.06250        0.06250
 BRILLOUIN|    38           0.00391       -0.43750        0.06250        0.18750
 BRILLOUIN|    39           0.00391       -0.43750        0.06250        0.31250
 BRILLOUIN|    40           0.00391       -0.43750        0.06250        0.43750
 BRILLOUIN|    41           0.00391       -0.43750        0.18750       -0.43750
 BRILLOUIN|    42           0.00391       -0.43750        0.18750       -0.31250
 BRILLOUIN|    43           0.00391       -0.43750        0.18750       -0.18750
 BRILLOUIN|    44           0.00391       -0.43750        0.18750       -0.06250
 BRILLOUIN|    45           0.00391       -0.43750        0.18750        0.06250
 BRILLOUIN|    46           0.00391       -0.43750        0.18750        0.18750
 BRILLOUIN|    47           0.00391       -0.43750        0.18750        0.31250
 BRILLOUIN|    48           0.00391       -0.43750        0.18750        0.43750
 BRILLOUIN|    49           0.00391       -0.43750        0.31250       -0.43750
 BRILLOUIN|    50           0.00391       -0.43750        0.31250       -0.31250
 BRILLOUIN|    51           0.00391       -0.43750        0.31250       -0.18750
 BRILLOUIN|    52           0.00391       -0.43750        0.31250       -0.06250
 BRILLOUIN|    53           0.00391       -0.43750        0.31250        0.06250
 BRILLOUIN|    54           0.00391       -0.43750        0.31250        0.18750
 BRILLOUIN|    55           0.00391       -0.43750        0.31250        0.31250
 BRILLOUIN|    56           0.00391       -0.43750        0.31250        0.43750
 BRILLOUIN|    57           0.00391       -0.43750        0.43750       -0.43750
 BRILLOUIN|    58           0.00391       -0.43750        0.43750       -0.31250
 BRILLOUIN|    59           0.00391       -0.43750        0.43750       -0.18750
 BRILLOUIN|    60           0.00391       -0.43750        0.43750       -0.06250
 BRILLOUIN|    61           0.00391       -0.43750        0.43750        0.06250
 BRILLOUIN|    62           0.00391       -0.43750        0.43750        0.18750
 BRILLOUIN|    63           0.00391       -0.43750        0.43750        0.31250
 BRILLOUIN|    64           0.00391       -0.43750        0.43750        0.43750
 BRILLOUIN|    65           0.00391       -0.31250       -0.43750       -0.43750
 BRILLOUIN|    66           0.00391       -0.31250       -0.43750       -0.31250
 BRILLOUIN|    67           0.00391       -0.31250       -0.43750       -0.18750
 BRILLOUIN|    68           0.00391       -0.31250       -0.43750       -0.06250
 BRILLOUIN|    69           0.00391       -0.31250       -0.43750        0.06250
 BRILLOUIN|    70           0.00391       -0.31250       -0.43750        0.18750
 BRILLOUIN|    71           0.00391       -0.31250       -0.43750        0.31250
 BRILLOUIN|    72           0.00391       -0.31250       -0.43750        0.43750
 BRILLOUIN|    73           0.00391       -0.31250       -0.31250       -0.43750
 BRILLOUIN|    74           0.00391       -0.31250       -0.31250       -0.31250
 BRILLOUIN|    75           0.00391       -0.31250       -0.31250       -0.18750
 BRILLOUIN|    76           0.00391       -0.31250       -0.31250       -0.06250
 BRILLOUIN|    77           0.00391       -0.31250       -0.31250        0.06250
 BRILLOUIN|    78           0.00391       -0.31250       -0.31250        0.18750
 BRILLOUIN|    79           0.00391       -0.31250       -0.31250        0.31250
 BRILLOUIN|    80           0.00391       -0.31250       -0.31250        0.43750
 BRILLOUIN|    81           0.00391       -0.31250       -0.18750       -0.43750
 BRILLOUIN|    82           0.00391       -0.31250       -0.18750       -0.31250
 BRILLOUIN|    83           0.00391       -0.31250       -0.18750       -0.18750
 BRILLOUIN|    84           0.00391       -0.31250       -0.18750       -0.06250
 BRILLOUIN|    85           0.00391       -0.31250       -0.18750        0.06250
 BRILLOUIN|    86           0.00391       -0.31250       -0.18750        0.18750
 BRILLOUIN|    87           0.00391       -0.31250       -0.18750        0.31250
 BRILLOUIN|    88           0.00391       -0.31250       -0.18750        0.43750
 BRILLOUIN|    89           0.00391       -0.31250       -0.06250       -0.43750
 BRILLOUIN|    90           0.00391       -0.31250       -0.06250       -0.31250
 BRILLOUIN|    91           0.00391       -0.31250       -0.06250       -0.18750
 BRILLOUIN|    92           0.00391       -0.31250       -0.06250       -0.06250
 BRILLOUIN|    93           0.00391       -0.31250       -0.06250        0.06250
 BRILLOUIN|    94           0.00391       -0.31250       -0.06250        0.18750
 BRILLOUIN|    95           0.00391       -0.31250       -0.06250        0.31250
 BRILLOUIN|    96           0.00391       -0.31250       -0.06250        0.43750
 BRILLOUIN|    97           0.00391       -0.31250        0.06250       -0.43750
 BRILLOUIN|    98           0.00391       -0.31250        0.06250       -0.31250
 BRILLOUIN|    99           0.00391       -0.31250        0.06250       -0.18750
 BRILLOUIN|   100           0.00391       -0.31250        0.06250       -0.06250
 BRILLOUIN|   101           0.00391       -0.31250        0.06250        0.06250
 BRILLOUIN|   102           0.00391       -0.31250        0.06250        0.18750
 BRILLOUIN|   103           0.00391       -0.31250        0.06250        0.31250
 BRILLOUIN|   104           0.00391       -0.31250        0.06250        0.43750
 BRILLOUIN|   105           0.00391       -0.31250        0.18750       -0.43750
 BRILLOUIN|   106           0.00391       -0.31250        0.18750       -0.31250
 BRILLOUIN|   107           0.00391       -0.31250        0.18750       -0.18750
 BRILLOUIN|   108           0.00391       -0.31250        0.18750       -0.06250
 BRILLOUIN|   109           0.00391       -0.31250        0.18750        0.06250
 BRILLOUIN|   110           0.00391       -0.31250        0.18750        0.18750
 BRILLOUIN|   111           0.00391       -0.31250        0.18750        0.31250
 BRILLOUIN|   112           0.00391       -0.31250        0.18750        0.43750
 BRILLOUIN|   113           0.00391       -0.31250        0.31250       -0.43750
 BRILLOUIN|   114           0.00391       -0.31250        0.31250       -0.31250
 BRILLOUIN|   115           0.00391       -0.31250        0.31250       -0.18750
 BRILLOUIN|   116           0.00391       -0.31250        0.31250       -0.06250
 BRILLOUIN|   117           0.00391       -0.31250        0.31250        0.06250
 BRILLOUIN|   118           0.00391       -0.31250        0.31250        0.18750
 BRILLOUIN|   119           0.00391       -0.31250        0.31250        0.31250
 BRILLOUIN|   120           0.00391       -0.31250        0.31250        0.43750
 BRILLOUIN|   121           0.00391       -0.31250        0.43750       -0.43750
 BRILLOUIN|   122           0.00391       -0.31250        0.43750       -0.31250
 BRILLOUIN|   123           0.00391       -0.31250        0.43750       -0.18750
 BRILLOUIN|   124           0.00391       -0.31250        0.43750       -0.06250
 BRILLOUIN|   125           0.00391       -0.31250        0.43750        0.06250
 BRILLOUIN|   126           0.00391       -0.31250        0.43750        0.18750
 BRILLOUIN|   127           0.00391       -0.31250        0.43750        0.31250
 BRILLOUIN|   128           0.00391       -0.31250        0.43750        0.43750
 BRILLOUIN|   129           0.00391       -0.18750       -0.43750       -0.43750
 BRILLOUIN|   130           0.00391       -0.18750       -0.43750       -0.31250
 BRILLOUIN|   131           0.00391       -0.18750       -0.43750       -0.18750
 BRILLOUIN|   132           0.00391       -0.18750       -0.43750       -0.06250
 BRILLOUIN|   133           0.00391       -0.18750       -0.43750        0.06250
 BRILLOUIN|   134           0.00391       -0.18750       -0.43750        0.18750
 BRILLOUIN|   135           0.00391       -0.18750       -0.43750        0.31250
 BRILLOUIN|   136           0.00391       -0.18750       -0.43750        0.43750
 BRILLOUIN|   137           0.00391       -0.18750       -0.31250       -0.43750
 BRILLOUIN|   138           0.00391       -0.18750       -0.31250       -0.31250
 BRILLOUIN|   139           0.00391       -0.18750       -0.31250       -0.18750
 BRILLOUIN|   140           0.00391       -0.18750       -0.31250       -0.06250
 BRILLOUIN|   141           0.00391       -0.18750       -0.31250        0.06250
 BRILLOUIN|   142           0.00391       -0.18750       -0.31250        0.18750
 BRILLOUIN|   143           0.00391       -0.18750       -0.31250        0.31250
 BRILLOUIN|   144           0.00391       -0.18750       -0.31250        0.43750
 BRILLOUIN|   145           0.00391       -0.18750       -0.18750       -0.43750
 BRILLOUIN|   146           0.00391       -0.18750       -0.18750       -0.31250
 BRILLOUIN|   147           0.00391       -0.18750       -0.18750       -0.18750
 BRILLOUIN|   148           0.00391       -0.18750       -0.18750       -0.06250
 BRILLOUIN|   149           0.00391       -0.18750       -0.18750        0.06250
 BRILLOUIN|   150           0.00391       -0.18750       -0.18750        0.18750
 BRILLOUIN|   151           0.00391       -0.18750       -0.18750        0.31250
 BRILLOUIN|   152           0.00391       -0.18750       -0.18750        0.43750
 BRILLOUIN|   153           0.00391       -0.18750       -0.06250       -0.43750
 BRILLOUIN|   154           0.00391       -0.18750       -0.06250       -0.31250
 BRILLOUIN|   155           0.00391       -0.18750       -0.06250       -0.18750
 BRILLOUIN|   156           0.00391       -0.18750       -0.06250       -0.06250
 BRILLOUIN|   157           0.00391       -0.18750       -0.06250        0.06250
 BRILLOUIN|   158           0.00391       -0.18750       -0.06250        0.18750
 BRILLOUIN|   159           0.00391       -0.18750       -0.06250        0.31250
 BRILLOUIN|   160           0.00391       -0.18750       -0.06250        0.43750
 BRILLOUIN|   161           0.00391       -0.18750        0.06250       -0.43750
 BRILLOUIN|   162           0.00391       -0.18750        0.06250       -0.31250
 BRILLOUIN|   163           0.00391       -0.18750        0.06250       -0.18750
 BRILLOUIN|   164           0.00391       -0.18750        0.06250       -0.06250
 BRILLOUIN|   165           0.00391       -0.18750        0.06250        0.06250
 BRILLOUIN|   166           0.00391       -0.18750        0.06250        0.18750
 BRILLOUIN|   167           0.00391       -0.18750        0.06250        0.31250
 BRILLOUIN|   168           0.00391       -0.18750        0.06250        0.43750
 BRILLOUIN|   169           0.00391       -0.18750        0.18750       -0.43750
 BRILLOUIN|   170           0.00391       -0.18750        0.18750       -0.31250
 BRILLOUIN|   171           0.00391       -0.18750        0.18750       -0.18750
 BRILLOUIN|   172           0.00391       -0.18750        0.18750       -0.06250
 BRILLOUIN|   173           0.00391       -0.18750        0.18750        0.06250
 BRILLOUIN|   174           0.00391       -0.18750        0.18750        0.18750
 BRILLOUIN|   175           0.00391       -0.18750        0.18750        0.31250
 BRILLOUIN|   176           0.00391       -0.18750        0.18750        0.43750
 BRILLOUIN|   177           0.00391       -0.18750        0.31250       -0.43750
 BRILLOUIN|   178           0.00391       -0.18750        0.31250       -0.31250
 BRILLOUIN|   179           0.00391       -0.18750        0.31250       -0.18750
 BRILLOUIN|   180           0.00391       -0.18750        0.31250       -0.06250
 BRILLOUIN|   181           0.00391       -0.18750        0.31250        0.06250
 BRILLOUIN|   182           0.00391       -0.18750        0.31250        0.18750
 BRILLOUIN|   183           0.00391       -0.18750        0.31250        0.31250
 BRILLOUIN|   184           0.00391       -0.18750        0.31250        0.43750
 BRILLOUIN|   185           0.00391       -0.18750        0.43750       -0.43750
 BRILLOUIN|   186           0.00391       -0.18750        0.43750       -0.31250
 BRILLOUIN|   187           0.00391       -0.18750        0.43750       -0.18750
 BRILLOUIN|   188           0.00391       -0.18750        0.43750       -0.06250
 BRILLOUIN|   189           0.00391       -0.18750        0.43750        0.06250
 BRILLOUIN|   190           0.00391       -0.18750        0.43750        0.18750
 BRILLOUIN|   191           0.00391       -0.18750        0.43750        0.31250
 BRILLOUIN|   192           0.00391       -0.18750        0.43750        0.43750
 BRILLOUIN|   193           0.00391       -0.06250       -0.43750       -0.43750
 BRILLOUIN|   194           0.00391       -0.06250       -0.43750       -0.31250
 BRILLOUIN|   195           0.00391       -0.06250       -0.43750       -0.18750
 BRILLOUIN|   196           0.00391       -0.06250       -0.43750       -0.06250
 BRILLOUIN|   197           0.00391       -0.06250       -0.43750        0.06250
 BRILLOUIN|   198           0.00391       -0.06250       -0.43750        0.18750
 BRILLOUIN|   199           0.00391       -0.06250       -0.43750        0.31250
 BRILLOUIN|   200           0.00391       -0.06250       -0.43750        0.43750
 BRILLOUIN|   201           0.00391       -0.06250       -0.31250       -0.43750
 BRILLOUIN|   202           0.00391       -0.06250       -0.31250       -0.31250
 BRILLOUIN|   203           0.00391       -0.06250       -0.31250       -0.18750
 BRILLOUIN|   204           0.00391       -0.06250       -0.31250       -0.06250
 BRILLOUIN|   205           0.00391       -0.06250       -0.31250        0.06250
 BRILLOUIN|   206           0.00391       -0.06250       -0.31250        0.18750
 BRILLOUIN|   207           0.00391       -0.06250       -0.31250        0.31250
 BRILLOUIN|   208           0.00391       -0.06250       -0.31250        0.43750
 BRILLOUIN|   209           0.00391       -0.06250       -0.18750       -0.43750
 BRILLOUIN|   210           0.00391       -0.06250       -0.18750       -0.31250
 BRILLOUIN|   211           0.00391       -0.06250       -0.18750       -0.18750
 BRILLOUIN|   212           0.00391       -0.06250       -0.18750       -0.06250
 BRILLOUIN|   213           0.00391       -0.06250       -0.18750        0.06250
 BRILLOUIN|   214           0.00391       -0.06250       -0.18750        0.18750
 BRILLOUIN|   215           0.00391       -0.06250       -0.18750        0.31250
 BRILLOUIN|   216           0.00391       -0.06250       -0.18750        0.43750
 BRILLOUIN|   217           0.00391       -0.06250       -0.06250       -0.43750
 BRILLOUIN|   218           0.00391       -0.06250       -0.06250       -0.31250
 BRILLOUIN|   219           0.00391       -0.06250       -0.06250       -0.18750
 BRILLOUIN|   220           0.00391       -0.06250       -0.06250       -0.06250
 BRILLOUIN|   221           0.00391       -0.06250       -0.06250        0.06250
 BRILLOUIN|   222           0.00391       -0.06250       -0.06250        0.18750
 BRILLOUIN|   223           0.00391       -0.06250       -0.06250        0.31250
 BRILLOUIN|   224           0.00391       -0.06250       -0.06250        0.43750
 BRILLOUIN|   225           0.00391       -0.06250        0.06250       -0.43750
 BRILLOUIN|   226           0.00391       -0.06250        0.06250       -0.31250
 BRILLOUIN|   227           0.00391       -0.06250        0.06250       -0.18750
 BRILLOUIN|   228           0.00391       -0.06250        0.06250       -0.06250
 BRILLOUIN|   229           0.00391       -0.06250        0.06250        0.06250
 BRILLOUIN|   230           0.00391       -0.06250        0.06250        0.18750
 BRILLOUIN|   231           0.00391       -0.06250        0.06250        0.31250
 BRILLOUIN|   232           0.00391       -0.06250        0.06250        0.43750
 BRILLOUIN|   233           0.00391       -0.06250        0.18750       -0.43750
 BRILLOUIN|   234           0.00391       -0.06250        0.18750       -0.31250
 BRILLOUIN|   235           0.00391       -0.06250        0.18750       -0.18750
 BRILLOUIN|   236           0.00391       -0.06250        0.18750       -0.06250
 BRILLOUIN|   237           0.00391       -0.06250        0.18750        0.06250
 BRILLOUIN|   238           0.00391       -0.06250        0.18750        0.18750
 BRILLOUIN|   239           0.00391       -0.06250        0.18750        0.31250
 BRILLOUIN|   240           0.00391       -0.06250        0.18750        0.43750
 BRILLOUIN|   241           0.00391       -0.06250        0.31250       -0.43750
 BRILLOUIN|   242           0.00391       -0.06250        0.31250       -0.31250
 BRILLOUIN|   243           0.00391       -0.06250        0.31250       -0.18750
 BRILLOUIN|   244           0.00391       -0.06250        0.31250       -0.06250
 BRILLOUIN|   245           0.00391       -0.06250        0.31250        0.06250
 BRILLOUIN|   246           0.00391       -0.06250        0.31250        0.18750
 BRILLOUIN|   247           0.00391       -0.06250        0.31250        0.31250
 BRILLOUIN|   248           0.00391       -0.06250        0.31250        0.43750
 BRILLOUIN|   249           0.00391       -0.06250        0.43750       -0.43750
 BRILLOUIN|   250           0.00391       -0.06250        0.43750       -0.31250
 BRILLOUIN|   251           0.00391       -0.06250        0.43750       -0.18750
 BRILLOUIN|   252           0.00391       -0.06250        0.43750       -0.06250
 BRILLOUIN|   253           0.00391       -0.06250        0.43750        0.06250
 BRILLOUIN|   254           0.00391       -0.06250        0.43750        0.18750
 BRILLOUIN|   255           0.00391       -0.06250        0.43750        0.31250
 BRILLOUIN|   256           0.00391       -0.06250        0.43750        0.43750
 *******************************************************************************

 *******************************************************************************
 *******************************************************************************
 **                                                                           **
 **     #####                         ##              ##                      **
 **    ##   ##            ##          ##              ##                      **
 **   ##     ##                       ##            ######                    **
 **   ##     ##  ##   ##  ##   #####  ##  ##   ####   ##    #####    #####    **
 **   ##     ##  ##   ##  ##  ##      ## ##   ##      ##   ##   ##  ##   ##   **
 **   ##  ## ##  ##   ##  ##  ##      ####     ###    ##   ######   ######    **
 **    ##  ###   ##   ##  ##  ##      ## ##      ##   ##   ##       ##        **
 **     #######   #####   ##   #####  ##  ##  ####    ##    #####   ##        **
 **           ##                                                    ##        **
 **                                                                           **
 **                                                ... make the atoms dance   **
 **                                                                           **
 **            Copyright (C) by CP2K developers group (2000-2025)             **
 **                      J. Chem. Phys. 152, 194103 (2020)                    **
 **                                                                           **
 *******************************************************************************

 DFT| Spin restricted Kohn-Sham (RKS) calculation                            RKS
 DFT| Multiplicity                                                             1
 DFT| Number of spin states                                                    1
 DFT| Charge                                                                   0
 DFT| Self-interaction correction (SIC)                                       NO
 DFT| Cutoffs: density                                              1.000000E-10
 DFT|          gradient                                             1.000000E-10
 DFT|          tau                                                  1.000000E-10
 DFT|          cutoff_smoothing_range                               0.000000E+00
 DFT| XC density smoothing                                                  NONE
 DFT| XC derivatives                                                          PW

 FUNCTIONAL| PBE:
 FUNCTIONAL| J.P.Perdew, K.Burke, M.Ernzerhof, Phys. Rev. Letter, vol. 77, n 18,
 FUNCTIONAL|  pp. 3865-3868, (1996) {spin unpolarized}                          


 QS| Method:                                                                 GPW
 QS| Density plane wave grid type                        NON-SPHERICAL FULLSPACE
 QS| Number of grid levels:                                                    4
 QS| Density cutoff [a.u.]:                                                500.0
 QS| Multi grid cutoff [a.u.]: 1) grid level                               500.0
 QS|                           2) grid level                               166.7
 QS|                           3) grid level                                55.6
 QS|                           4) grid level                                18.5
 QS| Grid level progression factor:                                          3.0
 QS| Relative density cutoff [a.u.]:                                        50.0
 QS| Interaction thresholds: eps_pgf_orb:                                1.0E-16
 QS|                         eps_filter_matrix:                          0.0E+00
 QS|                         eps_core_charge:                            1.0E-18
 QS|                         eps_rho_gspace:                             1.0E-16
 QS|                         eps_rho_rspace:                             1.0E-16
 QS|                         eps_gvg_rspace:                             1.0E-08
 QS|                         eps_ppl:                                    1.0E-02
 QS|                         eps_ppnl:                                   1.0E-10


 ATOMIC KIND INFORMATION

  1. Atomic kind: Tc                                    Number of atoms:       2

     Orbital Basis Set                                   DZVP-MOLOPT-GGA-GTH-q15

       Number of orbital shell sets:                                           1
       Number of orbital shells:                                               8
       Number of primitive Cartesian functions:                                7
       Number of Cartesian basis functions:                                   31
       Number of spherical basis functions:                                   26
       Norm type:                                                              2

       Normalised Cartesian orbitals:

                        Set   Shell   Orbital            Exponent    Coefficient

                          1       1    2s                6.238376       0.094028
                                                         3.196363      -0.371334
                                                         1.984239      -0.152447
                                                         0.880043      -0.181311
                                                         0.415053       0.200617
                                                         0.165954       0.233695
                                                         0.056012      -0.127158

                          1       2    3s                6.238376      -0.158223
                                                         3.196363       0.800848
                                                         1.984239      -0.173173
                                                         0.880043      -0.311066
                                                         0.415053      -0.030499
                                                         0.165954      -0.073618
                                                         0.056012      -0.026333

                          1       3    4s                6.238376      -0.109357
                                                         3.196363       0.627382
                                                         1.984239      -0.354102
                                                         0.880043      -0.330285
                                                         0.415053      -0.099204
                                                         0.165954       0.139465
                                                         0.056012       0.047756

                          1       4    3px               6.238376      -0.245827
                                                         3.196363       1.455720
                                                         1.984239      -1.019134
                                                         0.880043      -0.456679
                                                         0.415053      -0.163131
                                                         0.165954      -0.036546
                                                         0.056012      -0.004195
                          1       4    3py               6.238376      -0.245827
                                                         3.196363       1.455720
                                                         1.984239      -1.019134
                                                         0.880043      -0.456679
                                                         0.415053      -0.163131
                                                         0.165954      -0.036546
                                                         0.056012      -0.004195
                          1       4    3pz               6.238376      -0.245827
                                                         3.196363       1.455720
                                                         1.984239      -1.019134
                                                         0.880043      -0.456679
                                                         0.415053      -0.163131
                                                         0.165954      -0.036546
                                                         0.056012      -0.004195

                          1       5    4px               6.238376       0.015089
                                                         3.196363       0.889397
                                                         1.984239      -0.965321
                                                         0.880043      -0.588473
                                                         0.415053       0.154469
                                                         0.165954       0.098623
                                                         0.056012       0.012359
                          1       5    4py               6.238376       0.015089
                                                         3.196363       0.889397
                                                         1.984239      -0.965321
                                                         0.880043      -0.588473
                                                         0.415053       0.154469
                                                         0.165954       0.098623
                                                         0.056012       0.012359
                          1       5    4pz               6.238376       0.015089
                                                         3.196363       0.889397
                                                         1.984239      -0.965321
                                                         0.880043      -0.588473
                                                         0.415053       0.154469
                                                         0.165954       0.098623
                                                         0.056012       0.012359

                          1       6    4dx2              6.238376      -0.142225
                                                         3.196363      -1.065197
                                                         1.984239       1.595153
                                                         0.880043       0.491169
                                                         0.415053       0.142451
                                                         0.165954       0.013964
                                                         0.056012      -0.000029
                          1       6    4dxy              6.238376      -0.246341
                                                         3.196363      -1.844975
                                                         1.984239       2.762887
                                                         0.880043       0.850729
                                                         0.415053       0.246733
                                                         0.165954       0.024186
                                                         0.056012      -0.000050
                          1       6    4dxz              6.238376      -0.246341
                                                         3.196363      -1.844975
                                                         1.984239       2.762887
                                                         0.880043       0.850729
                                                         0.415053       0.246733
                                                         0.165954       0.024186
                                                         0.056012      -0.000050
                          1       6    4dy2              6.238376      -0.142225
                                                         3.196363      -1.065197
                                                         1.984239       1.595153
                                                         0.880043       0.491169
                                                         0.415053       0.142451
                                                         0.165954       0.013964
                                                         0.056012      -0.000029
                          1       6    4dyz              6.238376      -0.246341
                                                         3.196363      -1.844975
                                                         1.984239       2.762887
                                                         0.880043       0.850729
                                                         0.415053       0.246733
                                                         0.165954       0.024186
                                                         0.056012      -0.000050
                          1       6    4dz2              6.238376      -0.142225
                                                         3.196363      -1.065197
                                                         1.984239       1.595153
                                                         0.880043       0.491169
                                                         0.415053       0.142451
                                                         0.165954       0.013964
                                                         0.056012      -0.000029

                          1       7    5dx2              6.238376       0.729056
                                                         3.196363      -0.507028
                                                         1.984239      -0.114289
                                                         0.880043      -0.356952
                                                         0.415053      -0.024721
                                                         0.165954       0.048231
                                                         0.056012       0.005155
                          1       7    5dxy              6.238376       1.262761
                                                         3.196363      -0.878199
                                                         1.984239      -0.197954
                                                         0.880043      -0.618259
                                                         0.415053      -0.042817
                                                         0.165954       0.083538
                                                         0.056012       0.008928
                          1       7    5dxz              6.238376       1.262761
                                                         3.196363      -0.878199
                                                         1.984239      -0.197954
                                                         0.880043      -0.618259
                                                         0.415053      -0.042817
                                                         0.165954       0.083538
                                                         0.056012       0.008928
                          1       7    5dy2              6.238376       0.729056
                                                         3.196363      -0.507028
                                                         1.984239      -0.114289
                                                         0.880043      -0.356952
                                                         0.415053      -0.024721
                                                         0.165954       0.048231
                                                         0.056012       0.005155
                          1       7    5dyz              6.238376       1.262761
                                                         3.196363      -0.878199
                                                         1.984239      -0.197954
                                                         0.880043      -0.618259
                                                         0.415053      -0.042817
                                                         0.165954       0.083538
                                                         0.056012       0.008928
                          1       7    5dz2              6.238376       0.729056
                                                         3.196363      -0.507028
                                                         1.984239      -0.114289
                                                         0.880043      -0.356952
                                                         0.415053      -0.024721
                                                         0.165954       0.048231
                                                         0.056012       0.005155

                          1       8    5fx3              6.238376       0.144676
                                                         3.196363       0.566369
                                                         1.984239      -0.481619
                                                         0.880043      -0.320193
                                                         0.415053      -0.112268
                                                         0.165954      -0.007964
                                                         0.056012       0.000094
                          1       8    5fx2y             6.238376       0.323506
                                                         3.196363       1.266440
                                                         1.984239      -1.076932
                                                         0.880043      -0.715973
                                                         0.415053      -0.251039
                                                         0.165954      -0.017807
                                                         0.056012       0.000210
                          1       8    5fx2z             6.238376       0.323506
                                                         3.196363       1.266440
                                                         1.984239      -1.076932
                                                         0.880043      -0.715973
                                                         0.415053      -0.251039
                                                         0.165954      -0.017807
                                                         0.056012       0.000210
                          1       8    5fxy2             6.238376       0.323506
                                                         3.196363       1.266440
                                                         1.984239      -1.076932
                                                         0.880043      -0.715973
                                                         0.415053      -0.251039
                                                         0.165954      -0.017807
                                                         0.056012       0.000210
                          1       8    5fxyz             6.238376       0.560329
                                                         3.196363       2.193538
                                                         1.984239      -1.865301
                                                         0.880043      -1.240101
                                                         0.415053      -0.434812
                                                         0.165954      -0.030843
                                                         0.056012       0.000364
                          1       8    5fxz2             6.238376       0.323506
                                                         3.196363       1.266440
                                                         1.984239      -1.076932
                                                         0.880043      -0.715973
                                                         0.415053      -0.251039
                                                         0.165954      -0.017807
                                                         0.056012       0.000210
                          1       8    5fy3              6.238376       0.144676
                                                         3.196363       0.566369
                                                         1.984239      -0.481619
                                                         0.880043      -0.320193
                                                         0.415053      -0.112268
                                                         0.165954      -0.007964
                                                         0.056012       0.000094
                          1       8    5fy2z             6.238376       0.323506
                                                         3.196363       1.266440
                                                         1.984239      -1.076932
                                                         0.880043      -0.715973
                                                         0.415053      -0.251039
                                                         0.165954      -0.017807
                                                         0.056012       0.000210
                          1       8    5fyz2             6.238376       0.323506
                                                         3.196363       1.266440
                                                         1.984239      -1.076932
                                                         0.880043      -0.715973
                                                         0.415053      -0.251039
                                                         0.165954      -0.017807
                                                         0.056012       0.000210
                          1       8    5fz3              6.238376       0.144676
                                                         3.196363       0.566369
                                                         1.984239      -0.481619
                                                         0.880043      -0.320193
                                                         0.415053      -0.112268
                                                         0.165954      -0.007964
                                                         0.056012       0.000094

       Atomic covalent radius [Angstrom]:                                  1.270

       Atomic van der Waals radius [Angstrom]:                             1.630

     GTH Potential information for                                   GTH-PBE-q15

       Description:                       Goedecker-Teter-Hutter pseudopotential
                                           Goedecker et al., PRB 54, 1703 (1996)
                                          Hartwigsen et al., PRB 58, 3641 (1998)
                                                      Krack, TCA 114, 145 (2005)

       Gaussian exponent of the core charge distribution:               2.704164
       Electronic configuration (s p d ...):                           3   6   6

       Parameters of the local part of the GTH pseudopotential:

                          rloc        C1          C2          C3          C4
                        0.430000   27.301999   -4.647157

       Parameters of the non-local part of the GTH (SOC) pseudopotential:

                   l      r(l)      h(i,j,l)
                                    k(i,j,l)
                   0    0.346175   -0.379219    3.340566
                                    3.340566   -4.312652
                   1    0.423468   -0.241516   -0.822150
                                   -0.822150    0.972781
                                    0.006726    0.278056
                                    0.278056   -0.329001
                   2    0.431865    1.218785   -2.674010
                                   -2.674010    3.032042
                                   -0.007602    0.032777
                                    0.032777   -0.037166


 MOLECULE KIND INFORMATION


 All atoms are their own molecule, skipping detailed information


 TOTAL NUMBERS AND MAXIMUM NUMBERS

  Total number of            - Atomic kinds:                                   1
                             - Atoms:                                          2
                             - Shell sets:                                     2
                             - Shells:                                        16
                             - Primitive Cartesian functions:                 14
                             - Cartesian basis functions:                     62
                             - Spherical basis functions:                     52

  Maximum angular momentum of- Orbital basis functions:                        3
                             - Local part of the GTH pseudopotential:          2
                             - Non-local part of the GTH pseudopotential:      4


 MODULE QUICKSTEP: ATOMIC COORDINATES IN ANGSTROM

   Atom Kind Element         X             Y             Z       Z(eff)     Mass
      1    1 Tc   43      0.000000      0.000000      0.000000  15.0000  97.9072
      2    1 Tc   43      1.380921      0.797275      2.209525  15.0000  97.9072



 SCF PARAMETERS         Density guess:                                    ATOMIC
                        --------------------------------------------------------
                        max_scf:                                             500
                        max_scf_history:                                       0
                        max_diis:                                              4
                        --------------------------------------------------------
                        eps_scf:                                        1.00E-09
                        eps_scf_history:                                0.00E+00
                        eps_diis:                                       1.00E-01
                        eps_eigval:                                     1.00E-05
                        --------------------------------------------------------
                        level_shift [a.u.]:                             0.000000
                        added MOs                                        37    0
                        --------------------------------------------------------
                        Mixing method:                            BROYDEN_MIXING
                                                charge density mixing in g-space
                        --------------------------------------------------------
                        Smear method:                                FERMI_DIRAC
                        Electronic temperature [K]:                        300.0
                        Electronic temperature [a.u.]:                  9.50E-04
                        Accuracy threshold:                             1.00E-10
                        --------------------------------------------------------
                        No outer SCF

 PW_GRID| Information for grid number                                          1
 PW_GRID| Grid distributed over                                     8 processors
 PW_GRID| Real space group dimensions                                     8    1
 PW_GRID| the grid is blocked:                                                NO
 PW_GRID| Cutoff [a.u.]                                                    500.0
 PW_GRID| spherical cutoff:                                                   NO
 PW_GRID|   Bounds   1            -27      26                Points:          54
 PW_GRID|   Bounds   2            -27      26                Points:          54
 PW_GRID|   Bounds   3            -45      44                Points:          90
 PW_GRID| Volume element (a.u.^3)  0.7506E-03     Volume (a.u.^3)       196.9984
 PW_GRID| Grid span                                                    FULLSPACE
 PW_GRID|   Distribution                         Average         Max         Min
 PW_GRID|   G-Vectors                            32805.0       32832       32778
 PW_GRID|   G-Rays                                 607.5         608         607
 PW_GRID|   Real Space Points                    32805.0       34020       29160

 PW_GRID| Information for grid number                                          2
 PW_GRID| Number of the reference grid                                         1
 PW_GRID| Grid distributed over                                     8 processors
 PW_GRID| Real space group dimensions                                     8    1
 PW_GRID| the grid is blocked:                                                NO
 PW_GRID| Cutoff [a.u.]                                                    166.7
 PW_GRID| spherical cutoff:                                                   NO
 PW_GRID|   Bounds   1            -16      15                Points:          32
 PW_GRID|   Bounds   2            -16      15                Points:          32
 PW_GRID|   Bounds   3            -27      26                Points:          54
 PW_GRID| Volume element (a.u.^3)  0.3563E-02     Volume (a.u.^3)       196.9984
 PW_GRID| Grid span                                                    FULLSPACE
 PW_GRID|   Distribution                         Average         Max         Min
 PW_GRID|   G-Vectors                             6912.0        6944        6880
 PW_GRID|   G-Rays                                 216.0         217         215
 PW_GRID|   Real Space Points                     6912.0        6912        6912

 PW_GRID| Information for grid number                                          3
 PW_GRID| Number of the reference grid                                         1
 PW_GRID| Grid distributed over                                     8 processors
 PW_GRID| Real space group dimensions                                     8    1
 PW_GRID| the grid is blocked:                                                NO
 PW_GRID| Cutoff [a.u.]                                                     55.6
 PW_GRID| spherical cutoff:                                                   NO
 PW_GRID|   Bounds   1             -9       8                Points:          18
 PW_GRID|   Bounds   2             -9       8                Points:          18
 PW_GRID|   Bounds   3            -15      14                Points:          30
 PW_GRID| Volume element (a.u.^3)  0.2027E-01     Volume (a.u.^3)       196.9984
 PW_GRID| Grid span                                                    FULLSPACE
 PW_GRID|   Distribution                         Average         Max         Min
 PW_GRID|   G-Vectors                             1215.0        1260        1170
 PW_GRID|   G-Rays                                  67.5          70          65
 PW_GRID|   Real Space Points                     1215.0        1620        1080

 PW_GRID| Information for grid number                                          4
 PW_GRID| Number of the reference grid                                         1
 PW_GRID| Grid distributed over                                     8 processors
 PW_GRID| Real space group dimensions                                     8    1
 PW_GRID| the grid is blocked:                                                NO
 PW_GRID| Cutoff [a.u.]                                                     18.5
 PW_GRID| spherical cutoff:                                                   NO
 PW_GRID|   Bounds   1             -6       5                Points:          12
 PW_GRID|   Bounds   2             -6       5                Points:          12
 PW_GRID|   Bounds   3             -9       8                Points:          18
 PW_GRID| Volume element (a.u.^3)  0.7600E-01     Volume (a.u.^3)       196.9984
 PW_GRID| Grid span                                                    FULLSPACE
 PW_GRID|   Distribution                         Average         Max         Min
 PW_GRID|   G-Vectors                              324.0         348         312
 PW_GRID|   G-Rays                                  27.0          29          26
 PW_GRID|   Real Space Points                      324.0         432         216

 POISSON| Solver                                                        PERIODIC
 POISSON| Periodicity                                                        XYZ

 RS_GRID| Information for grid number                                          1
 RS_GRID|   Bounds   1            -27      26                Points:          54
 RS_GRID|   Bounds   2            -27      26                Points:          54
 RS_GRID|   Bounds   3            -45      44                Points:          90
 RS_GRID| Real space fully replicated
 RS_GRID| Group size                                                           1

 RS_GRID| Information for grid number                                          2
 RS_GRID|   Bounds   1            -16      15                Points:          32
 RS_GRID|   Bounds   2            -16      15                Points:          32
 RS_GRID|   Bounds   3            -27      26                Points:          54
 RS_GRID| Real space fully replicated
 RS_GRID| Group size                                                           1

 RS_GRID| Information for grid number                                          3
 RS_GRID|   Bounds   1             -9       8                Points:          18
 RS_GRID|   Bounds   2             -9       8                Points:          18
 RS_GRID|   Bounds   3            -15      14                Points:          30
 RS_GRID| Real space fully replicated
 RS_GRID| Group size                                                           1

 RS_GRID| Information for grid number                                          4
 RS_GRID|   Bounds   1             -6       5                Points:          12
 RS_GRID|   Bounds   2             -6       5                Points:          12
 RS_GRID|   Bounds   3             -9       8                Points:          18
 RS_GRID| Real space fully replicated
 RS_GRID| Group size                                                           1

 Number of electrons:                                                         30
 Number of occupied orbitals:                                                 15
 Number of molecular orbitals:                                                52

 Number of orbital functions:                                                 52
 Number of independent orbital functions:                                     52

 Extrapolation method: initial_guess

 Atomic guess: The first density matrix is obtained in terms of atomic orbitals
               and electronic configurations assigned to each atomic kind

 Guess for atomic kind: Tc

 Electronic structure
    Total number of core electrons                                         28.00
    Total number of valence electrons                                      15.00
    Total number of electrons                                              43.00
    Multiplicity                                                   not specified
    S   [  2.00  2.00  2.00] 2.00  1.00
    P   [  6.00  6.00] 6.00
    D   [ 10.00] 6.00


 *******************************************************************************
                  Iteration          Convergence                     Energy [au]
 *******************************************************************************
                          1         5.26816                     -75.883384482781
                          2         1.64175                     -79.036223550082
                          3        0.336439                     -80.079184737508
                          4        0.325074E-01                 -80.101274284911
                          5        0.882121E-02                 -80.101452290989
                          6        0.532826E-04                 -80.101466371416
                          7        0.169166E-05                 -80.101466372152
                          8        0.901196E-06                 -80.101466372153

 Energy components [Hartree]           Total Energy ::          -80.101466372153
                                        Band Energy ::          -15.430481887338
                                     Kinetic Energy ::           27.254484889570
                                   Potential Energy ::         -107.355951261723
                                      Virial (-V/T) ::            3.939019640133
                                        Core Energy ::         -138.854932790948
                                          XC Energy ::           -8.602451109703
                                     Coulomb Energy ::           67.355917528498
                       Total Pseudopotential Energy ::         -166.239494573976
                       Local Pseudopotential Energy ::         -163.043613725943
                    Nonlocal Pseudopotential Energy ::           -3.195880848033
                                        Confinement ::            1.300768934587

 Orbital energies  State     L     Occupation   Energy[a.u.]          Energy[eV]

                       1     0          2.000      -2.633946          -71.673312
                       2     0          1.000      -0.115161           -3.133683

                       1     1          6.000      -1.541189          -41.937873

                       1     2          6.000      -0.133383           -3.629537


 Total Electron Density at R=0:                                         0.000668
 Re-scaling the density matrix to get the right number of electrons
                  # Electrons              Trace(P)               Scaling factor
                           30                30.000                        1.000


 SCF WAVEFUNCTION OPTIMIZATION

  Step     Update method      Time    Convergence         Total energy    Change
  ------------------------------------------------------------------------------
     1 NoMix/Diag. 0.10E+00   16.3     3.55166169      -162.2541205313 -1.62E+02
     2 Broy./Diag. 0.10E+00   17.7     0.00688272      -164.1052556358 -1.85E+00
     3 Broy./Diag. 0.10E+00   17.7     0.06610364      -162.9004958336  1.20E+00
     4 Broy./Diag. 0.10E+00   17.7     0.00229211      -161.4134755962  1.49E+00
     5 Broy./Diag. 0.10E+00   17.7     0.00980276      -161.5220119032 -1.09E-01
     6 Broy./Diag. 0.10E+00   17.7     0.00047986      -161.5561602767 -3.41E-02
     7 Broy./Diag. 0.10E+00   17.7     0.00094333      -161.5658218847 -9.66E-03
     8 Broy./Diag. 0.10E+00   17.7     0.00007551      -161.5644165681  1.41E-03
     9 Broy./Diag. 0.10E+00   17.7     0.00013882      -161.5642558426  1.61E-04
    10 Broy./Diag. 0.10E+00   17.7     0.00001580      -161.5638405425  4.15E-04
    11 Broy./Diag. 0.10E+00   17.7     0.00001031      -161.5638657738 -2.52E-05
    12 Broy./Diag. 0.10E+00   17.7     0.00000629      -161.5638512947  1.45E-05
    13 Broy./Diag. 0.10E+00   17.7     0.00000095      -161.5638625411 -1.12E-05
    14 Broy./Diag. 0.10E+00   17.8     0.00000211      -161.5638833238 -2.08E-05
    15 Broy./Diag. 0.10E+00   17.8     0.00000004      -161.5638862227 -2.90E-06
    16 Broy./Diag. 0.10E+00   17.7     0.00000022      -161.5638886655 -2.44E-06
    17 Broy./Diag. 0.10E+00   17.7     9.4981E-09      -161.5638891420 -4.77E-07
    18 Broy./Diag. 0.10E+00   17.6     0.00000009      -161.5638883331  8.09E-07
    19 Broy./Diag. 0.10E+00   17.8     1.1089E-09      -161.5638881540  1.79E-07
    20 Broy./Diag. 0.10E+00   17.6     5.2531E-09      -161.5638881232  3.07E-08
    21 Broy./Diag. 0.10E+00   17.8     2.4693E-09      -161.5638881139  9.35E-09
    22 Broy./Diag. 0.10E+00   17.7     7.5821E-10      -161.5638881209 -7.04E-09

  *** SCF run converged in    22 steps ***


  Electronic density on regular grids:        -30.0000000000       -0.0000000000
  Core density on regular grids:               30.0000000000        0.0000000000
  Total charge density on r-space grids:       -0.0000000000
  Total charge density g-space grids:          -0.0000000000

  Overlap energy of the core charge distribution:               0.00000000000001
  Self energy of the core charge distribution:               -295.21547976336092
  Core Hamiltonian energy:                                     67.33613019638371
  Hartree energy:                                              84.25244687828418
  Exchange-correlation energy:                                -17.93679143752547
  Electronic entropic energy:                                  -0.00019399470241
  Fermi energy:                                                 0.64016400182430

  Total energy:                                              -161.56388812092095

 !-----------------------------------------------------------------------------!
                     Mulliken Population Analysis

 #  Atom  Element  Kind  Atomic population                           Net charge
       1     Tc       1         15.000000                             -0.000000
       2     Tc       1         15.000000                              0.000000
 # Total charge                             30.000000                  0.000000

 !-----------------------------------------------------------------------------!

 !-----------------------------------------------------------------------------!
                           Hirshfeld Charges

  #Atom  Element  Kind  Ref Charge     Population                    Net charge
      1       Tc     1      15.000         15.000                        -0.000
      2       Tc     1      15.000         15.000                         0.000

  Total Charge                                                            0.000
 !-----------------------------------------------------------------------------!

 KPOINTS| Band Structure Calculation
 KPOINTS| Number of k-point sets                                               1
 KPOINTS| Number of added MOs/bands                                           -1
 KPOINTS| Number of k-points in set    1                                     148
 KPOINTS| In units of b-vector [2pi/Bohr]
 KPOINTS| Special point     1 not specifi     0.000000     0.000000     0.000000
 KPOINTS| Special point     2 not specifi     0.500000     0.000000     0.000000
 KPOINTS| Special point     3 not specifi     0.333333     0.333333     0.000000
 KPOINTS| Special point     4 not specifi     0.000000     0.000000     0.000000
 KPOINTS| Time for k-point line                                            6.009

 ENERGY| Total FORCE_EVAL ( QS ) energy [hartree]           -161.563888120920950

 -------------------------------------------------------------------------------
 -                                                                             -
 -                                DBCSR STATISTICS                             -
 -                                                                             -
 -------------------------------------------------------------------------------
 COUNTER                                    TOTAL       BLAS       SMM       ACC
 flops inhomo. stacks                           0       0.0%      0.0%      0.0%
 flops total                         0.000000E+00       0.0%      0.0%      0.0%
 flops max/rank                      0.000000E+00       0.0%      0.0%      0.0%
 matmuls inhomo. stacks                         0       0.0%      0.0%      0.0%
 matmuls total                                  0       0.0%      0.0%      0.0%
 number of processed stacks                     0       0.0%      0.0%      0.0%
 average stack size                                     0.0       0.0       0.0
 marketing flops                     0.000000E+00
 -------------------------------------------------------------------------------
 -                                                                             -
 -                      DBCSR MESSAGE PASSING PERFORMANCE                      -
 -                                                                             -
 -------------------------------------------------------------------------------
 ROUTINE             CALLS      AVE VOLUME [Bytes]
 MP_Bcast                1                     12.
 MP_Allreduce           19                     21.
 MP_Alltoall        553008                   4334.
 -------------------------------------------------------------------------------

 -------------------------------------------------------------------------------
 -                                                                             -
 -                                DBM STATISTICS                               -
 -                                                                             -
 -------------------------------------------------------------------------------
    M  x    N  x    K                                          COUNT     PERCENT
 -------------------------------------------------------------------------------

 -------------------------------------------------------------------------------
 -                                                                             -
 -                                GRID STATISTICS                              -
 -                                                                             -
 -------------------------------------------------------------------------------
 LP    KERNEL             BACKEND                              COUNT     PERCENT
 6     collocate general  CPU                                 806840      51.11%
 6     integrate general  CPU                                 771760      48.89%
 0     collocate general  CPU                                      4       0.00%
 0     integrate general  CPU                                      2       0.00%
 -------------------------------------------------------------------------------

 MEMORY| Estimated peak process memory [MiB]                                 596

 -------------------------------------------------------------------------------
 ----                             MULTIGRID INFO                            ----
 -------------------------------------------------------------------------------
 count for grid        1:          53348          cutoff [a.u.]          500.00
 count for grid        2:          36892          cutoff [a.u.]          166.67
 count for grid        3:          34362          cutoff [a.u.]           55.56
 count for grid        4:          29800          cutoff [a.u.]           18.52
 total gridlevel count  :         154402

 -------------------------------------------------------------------------------
 -                                                                             -
 -                         MESSAGE PASSING PERFORMANCE                         -
 -                                                                             -
 -------------------------------------------------------------------------------

 ROUTINE             CALLS      AVE VOLUME [Bytes]
 MP_Group                6
 MP_Bcast           207411                  21905.
 MP_Allreduce       224103                     20.
 MP_Sync                 4
 MP_Alltoall           401                1478576.
 MP_SendRecv           658                  89930.
 MP_ISendRecv          623                  88060.
 MP_Wait            142531
 MP_comm_split           4
 MP_ISend           151244                    626.
 MP_IRecv           241280                    395.
 -------------------------------------------------------------------------------


 -------------------------------------------------------------------------------
 -                                                                             -
 -                           R E F E R E N C E S                               -
 -                                                                             -
 -------------------------------------------------------------------------------
 
 CP2K version 2025.1 (Development Version), the CP2K developers group (2025).
 CP2K is freely available from https://www.cp2k.org/ .
 
 T. D. Kuehne, M. Iannuzzi, M. Del Ben, V. V. Rybkin, P. Seewald, F. Stein, T. 
 Laino, R. Z. Khaliullin, O. Schuett, F. Schiffmann, D. Golze, J. Wilhelm, S. 
 Chulkov, M. H. Bani-Hashemian, V. Weber, U. Borstnik, M. Taillefumier, A. S. 
 Jakobovits, A. Lazzaro, H. Pabst, T. Mueller, R. Schade, M. Guidon, S. 
 Andermatt, N. Holmberg, G. K. Schenter, A. Hehn, A. Bussy, F. Belleflamme, G. 
 Tabacchi, A. Gloess, M. Lass, I. Bethune, C. J. Mundy, C. Plessl, M. Watkins, 
 J. VandeVondele, M. Krack, J. Hutter.
 J. Chem. Phys. 152, 194103 (2020).
 CP2K: An electronic structure and molecular dynamics software package - 
 Quickstep: Efficient and accurate electronic structure calculations.
 https://doi.org/10.1063/5.0007045

 O. Schuett, P. Messmer, J. Hutter, J. VandeVondele.
 Electronic Structure Calculations on Graphics Processing Units, 173-190 (2016).
 GPU-Accelerated Sparse Matrix-Matrix Multiplication for Linear Scaling Density 
 Functional Theory.
 https://doi.org/10.1002/9781118670712.ch8

 J. Hutter, M. Iannuzzi, F. Schiffmann, J. VandeVondele.
 WIREs Comput Mol Sci. 4, 15-25 (2014).
 CP2K: atomistic simulations of condensed matter systems.
 https://doi.org/10.1002/wcms.1159

 U. Borstnik, J. VandeVondele, V. Weber, J. Hutter.
 Parallel Comput. 40, 47-58 (2014).
 Sparse matrix multiplication: The distributed block-compressed sparse row 
 library.
 https://doi.org/10.1016/j.parco.2014.03.012

 J. VandeVondele, J. Hutter.
 J. Chem. Phys. 127, 114105 (2007).
 Gaussian basis sets for accurate calculations on molecular systems in gas and 
 condensed phases.
 https://doi.org/10.1063/1.2770708

 J. VandeVondele, M. Krack, F. Mohamed, M. Parrinello, T. Chassaing, J. Hutter.
 Comput. Phys. Commun. 167, 103-128 (2005).
 QUICKSTEP: Fast and accurate density functional calculations using a mixed 
 Gaussian and plane waves approach.
 https://doi.org/10.1016/j.cpc.2004.12.014

 M. Krack.
 Theor. Chem. Acc. 114, 145-152 (2005).
 Pseudopotentials for H to Kr optimized for gradient-corrected 
 exchange-correlation functionals.
 https://doi.org/10.1007/s00214-005-0655-y

 M. Frigo, S. G. Johnson.
 Proc. IEEE 93, 216-231 (2005).
 The design and implementation of FFTW3.
 https://doi.org/10.1109/JPROC.2004.840301

 C. Hartwigsen, S. Goedecker, J. Hutter.
 Phys. Rev. B 58, 3641-3662 (1998).
 Relativistic separable dual-space Gaussian pseudopotentials from H to Rn.
 https://doi.org/10.1103/PhysRevB.58.3641

 G. Lippert, J. Hutter, M. Parrinello.
 Mol. Phys. 92, 477-487 (1997).
 A hybrid Gaussian and plane wave density functional scheme.
 https://doi.org/10.1080/002689797170220

 S. Goedecker, M. Teter, J. Hutter.
 Phys. Rev. B 54, 1703-1710 (1996).
 Separable dual-space Gaussian pseudopotentials.
 https://doi.org/10.1103/PhysRevB.54.1703

 J. P. Perdew, K. Burke, M. Ernzerhof.
 Phys. Rev. Lett. 77, 3865-3868 (1996).
 Generalized gradient approximation made simple.
 https://doi.org/10.1103/PhysRevLett.77.3865


 -------------------------------------------------------------------------------
 -                                                                             -
 -                                T I M I N G                                  -
 -                                                                             -
 -------------------------------------------------------------------------------
 SUBROUTINE                       CALLS  ASD         SELF TIME        TOTAL TIME
                                MAXIMUM       AVERAGE  MAXIMUM  AVERAGE  MAXIMUM
 CP2K                                 1  1.0    0.025    0.028  411.508  411.508
 qs_energies                          1  2.0    0.013    0.032  410.328  410.342
 scf_env_do_scf                       1  3.0    0.000    0.000  394.234  394.234
 scf_env_do_scf_inner_loop           22  4.0    0.064    0.070  394.234  394.234
 do_general_diag_kp                  23  5.9    0.127    0.156  355.123  361.724
 qs_scf_new_mos_kp                   22  5.0    0.000    0.000  349.188  355.777
 mp_alltoall_i22                  94144  8.7  278.226  341.932  278.226  341.932
 dbcsr_desymmetrize_deep          53000  7.4    0.789    0.940  205.146  251.185
 rskp_transform                   11560  6.9   39.185  210.114   39.185  210.114
 dbcsr_complete_redistribute      41144  8.1    1.321    1.520   88.889  106.503
 kpoint_density_transform            22  7.0    0.087    0.101   98.970   99.269
 copy_fm_to_dbcsr                 11264  8.0    0.065    0.074   80.060   97.487
 transform_dmat                    5632  8.0   17.484   94.606   17.484   94.606
 qs_ks_update_qs_env                 22  5.0    0.000    0.000    9.978   38.547
 rebuild_ks_matrix                   22  6.0    0.000    0.000    7.743   36.312
 qs_ks_build_kohn_sham_matrix        22  7.0    0.122    0.126    7.743   36.312
 sum_up_and_integrate                22  8.0    0.000    0.000    6.809   35.330
 integrate_v_rspace                  22  9.0    0.054    0.285    6.809   35.329
 grid_integrate_task_list            22 10.0    6.606   34.942    6.606   34.942
 transfer_rs2pw                      94  8.0    0.001    0.001   27.484   33.915
 transfer_rs2pw_500                  25  8.9    0.025    0.027   27.460   33.886
 mp_sendrecv_dv                     658 10.0   27.452   33.883   27.452   33.883
 qs_rho_update_rho_low               23  5.0    0.000    0.000   29.341   29.376
 calculate_rho_elec                  23  6.0    0.013    0.036   29.341   29.376
 density_rs2pw                       23  7.0    0.001    0.001   23.803   29.327
 grid_collocate_task_list            23  7.0    5.524   29.114    5.524   29.114
 copy_dbcsr_to_fm                 29880  6.7    0.294    0.316   14.305   14.584
 cp_dbcsr_alloc_block_from_nbl    23794  5.0    1.192    6.103    1.264    6.377
 qs_energies_init_hamiltonians        1  3.0    0.000    0.000    5.883    5.883
 build_core_hamiltonian_matrix        1  4.0    0.012    0.012    1.070    4.803
 write_kpoints_restart               22  5.0    0.034    0.040    4.757    4.758
 qs_env_update_s_mstruct              1  4.0    0.000    0.000    3.963    4.682
 calculate_rho_core                   1  5.0    0.001    0.002    3.742    4.647
 mp_sum_d                        149315  9.0    3.321    3.945    3.321    3.945
 dbcsr_dot                       148721  8.0    0.642    1.007    3.585    3.927
 dbcsr_finalize                  148492  7.7    0.475    0.517    3.263    3.492
 init_scf_run                         1  3.0    0.000    0.000    2.791    3.129
 scf_env_initial_rho_setup            1  4.0    0.000    0.000    2.791    3.129
 cp_fm_start_copy_general         34384  7.3    0.490    0.715    3.009    3.070
 mp_alltoall_d11v                282432  9.2    2.812    2.986    2.812    2.986
 mp_cart_sub                      59762  8.7    2.443    2.461    2.443    2.461
 evaluate_core_matrix_traces         22  6.0    0.000    0.000    2.235    2.235
 calculate_ptrace_kp                 44  7.0    0.112    0.122    2.235    2.235
 dbcsr_merge_all                  41144 10.1    1.061    1.252    1.857    2.064
 hybrid_alltoall_any              53000  8.4    0.212    0.237    1.869    1.981
 mixing_allocate                      1  3.0    0.019    0.019    0.409    1.869
 calculate_first_density_matrix       1  5.0    0.002    0.002    1.473    1.812
 calculate_atomic_block_dm            1  6.0    0.001    0.001    1.466    1.806
 cp_fm_write_unformatted           6760  6.0    1.295    1.612    1.310    1.681
 mp_alltoall_i11v                176432  8.9    1.600    1.644    1.600    1.644
 self_consistency_check              22  5.0    0.105    0.113    1.522    1.591
 dbcsr_copy                      163364  6.6    0.913    0.980    1.342    1.549
 mp_allgather_i                   68768  8.3    1.295    1.396    1.295    1.396
 cp_sm_mix                        74360  6.0    0.211    0.413    1.305    1.394
 mp_cart_create                   29887  8.7    1.339    1.379    1.339    1.379
 cp_cfm_geeig_canon                 741  6.9    0.005    0.005    1.193    1.208
 build_core_ppnl                      1  5.0    0.245    1.205    0.245    1.205
 dbcsr_create_new                307826  7.6    0.885    0.927    1.082    1.140
 cp_cfm_heevd                      1482  7.9    0.001    0.002    1.098    1.110
 cp_cfm_heevd_base                 1482  8.9    1.096    1.109    1.096    1.109
 mp_max_d                         74362  7.0    0.916    1.055    0.916    1.055
 build_overlap_matrix_low             1  5.0    0.039    0.105    0.230    1.021
 create_qs_kind_set                   1  2.0    0.000    0.000    1.019    1.019
 read_qs_kind                         1  3.0    0.620    0.626    1.019    1.019
 build_kinetic_matrix_low             1  5.0    0.038    0.104    0.228    1.018
 dbcsr_work_create                94144  8.7    0.559    0.587    0.914    1.001
 calculate_ecore_overlap              1  4.0    0.000    0.000    0.804    0.991
 dbcsr_iterator_start            485183  8.6    0.809    0.857    0.931    0.974
 mp_bcast_iv                     137692  8.3    0.829    0.938    0.829    0.938
 qs_env_rebuild_rho                   1  5.0    0.000    0.000    0.204    0.932
 qs_rho_rebuild                       1  6.0    0.010    0.010    0.204    0.932
 mp_sum_iv                           24  5.3    0.730    0.900    0.730    0.900
 qs_scf_ensure_work_matrices          1  3.0    0.000    0.000    0.729    0.900
 dbcsr_data_new                 1046843  9.5    0.620    0.716    0.620    0.716
 dbcsr_work_destroy_all           94144  9.7    0.453    0.462    0.679    0.695
 tree_to_linear_d                 41144 11.1    0.635    0.657    0.635    0.657
 copy_dbcsr_to_fm_bc              29880  7.7    0.287    0.297    0.641    0.657
 dbcsr_iterator_stop             485183  8.6    0.529    0.540    0.629    0.641
 dbcsr_data_release             1638026  9.8    0.539    0.570    0.539    0.570
 build_core_ppl                       1  5.0    0.113    0.547    0.113    0.547
 copy_fm_to_dbcsr_bc              11264  9.0    0.145    0.159    0.495    0.542
 dbcsr_set                       233353  7.2    0.203    0.213    0.323    0.518
 dbcsr_destroy                   159106  7.3    0.253    0.273    0.457    0.495
 parser_read_line                135403  4.0    0.045    0.049    0.453    0.458
 kpoint_set_mo_occupation            22  7.0    0.402    0.404    0.417    0.421
 parser_read_line_low               155  5.2    0.048    0.204    0.409    0.415
 broadcast_input_information        155  6.2    0.102    0.104    0.360    0.389
 fft_wrap_pw1pw2                    401 10.0    0.003    0.003    0.327    0.365
 dbcsr_reserve_blocks             35058  7.6    0.108    0.305    0.123    0.334
 fft_wrap_pw1pw2_500                266 11.3    0.015    0.016    0.296    0.333
 fft3d_ps                           401 12.0    0.086    0.089    0.280    0.317
 dbcsr_copy_into_existing         14644  9.1    0.107    0.227    0.189    0.311
 dbcsr_zero                      233353  8.2    0.120    0.304    0.120    0.304
 quick_finalize                   53000  9.4    0.134    0.172    0.222    0.297
 mp_bcast_im                      68768  8.3    0.251    0.285    0.251    0.285
 mp_waitall_1                    142531  8.3    0.110    0.232    0.110    0.232
 mp_comm_free                     89685  8.7    0.204    0.223    0.204    0.223
 mp_alltoall_z22v                   401 14.0    0.169    0.213    0.169    0.213
 cp_fm_finish_copy_general        14228  7.8    0.141    0.160    0.160    0.192
 potential_pw2rs                     22 10.0    0.001    0.001    0.149    0.185
 qs_vxc_create                       22  8.0    0.000    0.000    0.184    0.184
 xc_vxc_pw_create                    22  9.0    0.007    0.007    0.183    0.184
 mp_bcast_i_src                     620  7.2    0.145    0.181    0.145    0.181
 dbcsr_iterator_seek             485183  9.6    0.122    0.155    0.122    0.155
 yz_to_x                            181 12.8    0.007    0.008    0.110    0.152
 kpoint_density_matrices             22  7.0    0.009    0.010    0.138    0.149
 dbcsr_make_index_exist          307826  8.6    0.131    0.144    0.131    0.144
 parallel_gemm_fm                  2816  8.0    0.003    0.003    0.126    0.136
 parallel_gemm_fm_gemm             2816  9.0    0.003    0.003    0.124    0.133
 cp_fm_gemm                        2816 10.0    0.121    0.131    0.121    0.131
 xc_pw_derive                       132 11.0    0.000    0.000    0.121    0.126
 gspace_mixing                       21  5.0    0.005    0.005    0.125    0.125
 dbcsr_sort_indices              129202 10.6    0.067    0.125    0.067    0.125
 mp_bcast_am_src                    155  7.2    0.101    0.105    0.112    0.116
 broyden_mixing                      21  6.0    0.095    0.096    0.099    0.099
 xc_rho_set_and_dset_create          22 10.0    0.005    0.005    0.094    0.096
 qs_create_task_list                  1  5.0    0.000    0.000    0.017    0.094
 generate_qs_task_list                1  6.0    0.014    0.075    0.017    0.094
 dbcsr_reserve_all_blocks         11264 10.0    0.016    0.020    0.077    0.090
 merge_index                      41144 11.1    0.079    0.088    0.079    0.088
 xc_pw_divergence                    22 10.0    0.000    0.000    0.081    0.085
 cp_cfm_gemm                       2223  7.9    0.082    0.084    0.082    0.084
 x_to_yz                            220 13.2    0.016    0.018    0.081    0.083
 kpoint_init_cell_index               2  3.5    0.056    0.074    0.080    0.083
 mp_irecv_iv                     137536  8.3    0.009    0.068    0.009    0.068
 mp_recv_dv                       20280  7.0    0.009    0.068    0.009    0.068
 transfer_pw2rs                      89 11.0    0.000    0.001    0.068    0.068
 dbcsr_switch_data_area           53000 10.4    0.048    0.049    0.063    0.064
 mp_isend_dv                      34976  8.2    0.057    0.062    0.057    0.062
 scf_post_calculation_gpw             1  3.0    0.000    0.000    0.061    0.061
 write_available_results              1  4.0    0.000    0.000    0.061    0.061
 write_mo_free_results                1  5.0    0.001    0.001    0.061    0.061
 topology_control                     1  2.0    0.000    0.000    0.060    0.060
 cp_fm_cleanup_copy_general       24528  7.0    0.032    0.034    0.050    0.053
 transfer_pw2rs_500                  23 11.8    0.024    0.027    0.048    0.049
 mp_isend_iv                      77512  8.3    0.013    0.049    0.013    0.049
 mp_sum_dv                          317  3.3    0.035    0.049    0.035    0.049
 dbcsr_data_copy_aa2              41144 10.8    0.025    0.046    0.025    0.046
 mp_comm_size                    149587  9.0    0.037    0.046    0.037    0.046
 read_cell_cif                        2  4.5    0.002    0.004    0.041    0.041
 -------------------------------------------------------------------------------

 The number of warnings for this run is : 1
 
 -------------------------------------------------------------------------------
  **** **** ******  **  PROGRAM ENDED AT                 2025-08-03 18:02:56.571
 ***** ** ***  *** **   PROGRAM RAN ON                              i06r01c05s01
 **    ****   ******    PROGRAM RAN BY                                   di38fab
 ***** **    ** ** **   PROGRAM PROCESS ID                               3546111
  **** **  *******  **  PROGRAM STOPPED IN /hppfs/scratch/04/di38fab/09_GTH/Delt
                                           a_Set/Tc/DZVP-MOLOPT-PBE-GTH/8x8x8
