 DBCSR| CPU Multiplication driver                                           BLAS (U)
 DBCSR| Multrec recursion limit                                              512 (U)
 DBCSR| Multiplication stack size                                           1000 (D)
 DBCSR| Maximum elements for images                                    UNLIMITED (U)
 DBCSR| Multiplicative factor virtual images                                   1 (U)
 DBCSR| Use multiplication densification                                       T (D)
 DBCSR| Multiplication size stacks                                             3 (U)
 DBCSR| Use memory pool for CPU allocation                                     F (U)
 DBCSR| Number of 3D layers                                               SINGLE (U)
 DBCSR| Use MPI memory allocation                                              F (U)
 DBCSR| Use RMA algorithm                                                      F (U)
 DBCSR| Use Communication thread                                               T (U)
 DBCSR| Communication thread load                                             45 (D)
 DBCSR| MPI: My process id                                                     0
 DBCSR| MPI: Number of processes                                               8
 DBCSR| OMP: Current number of threads                                        12
 DBCSR| OMP: Max number of threads                                            12
 DBCSR| Split modifier for TAS multiplication algorithm                  1.0E+00 (U)


  **** **** ******  **  PROGRAM STARTED AT               2025-08-03 20:47:40.940
 ***** ** ***  *** **   PROGRAM STARTED ON                          i04r10c05s01
 **    ****   ******    PROGRAM STARTED BY                               di38fab
 ***** **    ** ** **   PROGRAM PROCESS ID                               2695485
  **** **  *******  **  PROGRAM STARTED IN /hppfs/scratch/04/di38fab/09_GTH/Delt
                                           a_Set/Cl/TZVP-MOLOPT-PBE-GTH/8x8x8

 CP2K| version string:                 CP2K version 2025.1 (Development Version)
 CP2K| source code revision number:                                  git:3130539
 CP2K| cp2kflags: omp libint fftw3 libxc parallel scalapack max_contr=4         
 CP2K| is freely available from                            https://www.cp2k.org/
 CP2K| Program compiled at                         Tue Jun  3 16:14:32 CEST 2025
 CP2K| Program compiled on                                               login01
 CP2K| Program compiled for                                        Supermuc-foss
 CP2K| Data directory path                  /hppfs/work/pn36zo/di38fab/cp2k/data
 CP2K| Input file name                                                    GW.inp

 GLOBAL| Force Environment number                                              1
 GLOBAL| Basis set file name            /hppfs/scratch/04/di38fab/09_GTH/BASIS_A
 GLOBAL| Potential file name            /hppfs/work/pn36zo/di38fab/cp2k/data/GTH
 GLOBAL| MM Potential file name                                     MM_POTENTIAL
 GLOBAL| Coordinate file name                                             Cl.cif
 GLOBAL| Method name                                                        CP2K
 GLOBAL| Project name                                                       WSe2
 GLOBAL| Run type                                                         ENERGY
 GLOBAL| FFT library                                                       FFTW3
 GLOBAL| Diagonalization library                                       ScaLAPACK
 GLOBAL| Cholesky decomposition library                                ScaLAPACK
 GLOBAL| DGEMM library                                                      BLAS
 GLOBAL| Orthonormality check for eigenvectors                          DISABLED
 GLOBAL| Matrix multiplication library                                 ScaLAPACK
 GLOBAL| All-to-all communication in single precision                          F
 GLOBAL| FFTs using library dependent lengths                                  F
 GLOBAL| Grid backend                                                       AUTO
 GLOBAL| Global print level                                               MEDIUM
 GLOBAL| MPI I/O enabled                                                       T
 GLOBAL| Total number of message passing processes                             8
 GLOBAL| Number of threads for this process                                   12
 GLOBAL| This output is from process                                           0
 GLOBAL| OpenMP stack size per thread (OMP_STACKSIZE)                    default
 GLOBAL| CPU model name             Intel(R) Xeon(R) Platinum 8174 CPU @ 3.10GHz

 MEMORY| system memory details [Kb]
 MEMORY|                        rank 0           min           max       average
 MEMORY| MemTotal             98436664      98436664      98436664      98436664
 MEMORY| MemFree              84602020      84564440      84602020      84583230
 MEMORY| Buffers                     0             0             0             0
 MEMORY| Cached                2376172       2354580       2376172       2365376
 MEMORY| Slab                  1297320       1285768       1297320       1291544
 MEMORY| SReclaimable           277492        277492        286604        282048
 MEMORY| MemLikelyFree        87255684      87205624      87255684      87230654


 *** Fundamental physical constants (SI units) ***

 *** Literature: B. J. Mohr and B. N. Taylor,
 ***             CODATA recommended values of the fundamental physical
 ***             constants: 2006, Web Version 5.1
 ***             http://physics.nist.gov/constants

 Speed of light in vacuum [m/s]                             2.99792458000000E+08
 Magnetic constant or permeability of vacuum [N/A**2]       1.25663706143592E-06
 Electric constant or permittivity of vacuum [F/m]          8.85418781762039E-12
 Planck constant (h) [J*s]                                  6.62606896000000E-34
 Planck constant (h-bar) [J*s]                              1.05457162825177E-34
 Elementary charge [C]                                      1.60217648700000E-19
 Electron mass [kg]                                         9.10938215000000E-31
 Electron g factor [ ]                                     -2.00231930436220E+00
 Proton mass [kg]                                           1.67262163700000E-27
 Fine-structure constant                                    7.29735253760000E-03
 Rydberg constant [1/m]                                     1.09737315685270E+07
 Avogadro constant [1/mol]                                  6.02214179000000E+23
 Boltzmann constant [J/K]                                   1.38065040000000E-23
 Atomic mass unit [kg]                                      1.66053878200000E-27
 Bohr radius [m]                                            5.29177208590000E-11

 *** Conversion factors ***

 [u] -> [a.u.]                                              1.82288848426455E+03
 [Angstrom] -> [Bohr] = [a.u.]                              1.88972613288564E+00
 [a.u.] = [Bohr] -> [Angstrom]                              5.29177208590000E-01
 [a.u.] -> [s]                                              2.41888432650478E-17
 [a.u.] -> [fs]                                             2.41888432650478E-02
 [a.u.] -> [J]                                              4.35974393937059E-18
 [a.u.] -> [N]                                              8.23872205491840E-08
 [a.u.] -> [K]                                              3.15774647902944E+05
 [a.u.] -> [kJ/mol]                                         2.62549961709828E+03
 [a.u.] -> [kcal/mol]                                       6.27509468713739E+02
 [a.u.] -> [Pa]                                             2.94210107994716E+13
 [a.u.] -> [bar]                                            2.94210107994716E+08
 [a.u.] -> [atm]                                            2.90362800883016E+08
 [a.u.] -> [eV]                                             2.72113838565563E+01
 [a.u.] -> [Hz]                                             6.57968392072181E+15
 [a.u.] -> [1/cm] (wave numbers)                            2.19474631370540E+05
 [a.u./Bohr**2] -> [1/cm]                                   5.14048714338585E+03
 

 CELL_TOP| Volume [angstrom^3]:                                       305.428517
 CELL_TOP| Vector a [angstrom     7.779     0.000     0.000   |a| =     7.778750
 CELL_TOP| Vector b [angstrom     0.000     4.349     0.000   |b| =     4.349410
 CELL_TOP| Vector c [angstrom     0.000     0.000     9.028   |c| =     9.027540
 CELL_TOP| Angle (b,c), alpha [degree]:                                90.000000
 CELL_TOP| Angle (a,c), beta  [degree]:                                90.000000
 CELL_TOP| Angle (a,b), gamma [degree]:                                90.000000
 CELL_TOP| Numerically orthorhombic:                                         YES
 CELL_TOP| Periodicity                                                       XYZ

 CELL_CIF| Volume [angstrom^3]:                                       305.428517
 CELL_CIF| Vector a [angstrom     7.779     0.000     0.000   |a| =     7.778750
 CELL_CIF| Vector b [angstrom     0.000     4.349     0.000   |b| =     4.349410
 CELL_CIF| Vector c [angstrom     0.000     0.000     9.028   |c| =     9.027540
 CELL_CIF| Angle (b,c), alpha [degree]:                                90.000000
 CELL_CIF| Angle (a,c), beta  [degree]:                                90.000000
 CELL_CIF| Angle (a,b), gamma [degree]:                                90.000000
 CELL_CIF| Numerically orthorhombic:                                         YES
 CELL_CIF| Periodicity                                                       XYZ

 GENERATE|  Preliminary Number of Bonds generated:                             0
 GENERATE|  Achieved consistency in connectivity generation.

 CELL| Volume [angstrom^3]:                                           305.428517
 CELL| Vector a [angstrom]:       7.779     0.000     0.000   |a| =     7.778750
 CELL| Vector b [angstrom]:       0.000     4.349     0.000   |b| =     4.349410
 CELL| Vector c [angstrom]:       0.000     0.000     9.028   |c| =     9.027540
 CELL| Angle (b,c), alpha [degree]:                                    90.000000
 CELL| Angle (a,c), beta  [degree]:                                    90.000000
 CELL| Angle (a,b), gamma [degree]:                                    90.000000
 CELL| Numerically orthorhombic:                                             YES
 CELL| Periodicity                                                           XYZ

 CELL_REF| Volume [angstrom^3]:                                       305.428517
 CELL_REF| Vector a [angstrom     7.779     0.000     0.000   |a| =     7.778750
 CELL_REF| Vector b [angstrom     0.000     4.349     0.000   |b| =     4.349410
 CELL_REF| Vector c [angstrom     0.000     0.000     9.028   |c| =     9.027540
 CELL_REF| Angle (b,c), alpha [degree]:                                90.000000
 CELL_REF| Angle (a,c), beta  [degree]:                                90.000000
 CELL_REF| Angle (a,b), gamma [degree]:                                90.000000
 CELL_REF| Numerically orthorhombic:                                         YES
 CELL_REF| Periodicity                                                       XYZ

 *** WARNING in cryssym.F:180 :: Symmetry library SPGLIB not available ***


 *******************************************************************************
                                    Kpoints
 *******************************************************************************
 BRILLOUIN| K-point scheme                                        Monkhorst-Pack
 BRILLOUIN| K-Point grid                                             8    8    8
 BRILLOUIN| Accuracy in Symmetry determination                      0.100000E-05
 BRILLOUIN| K-Point point group symmetrization                               OFF
 BRILLOUIN| Wavefunction type                                            COMPLEX
 BRILLOUIN| List of Kpoints [2 Pi/Bohr]                                      256
 BRILLOUIN| Number           Weight            X              Y              Z
 BRILLOUIN|     1           0.00391       -0.43750       -0.43750       -0.43750
 BRILLOUIN|     2           0.00391       -0.43750       -0.43750       -0.31250
 BRILLOUIN|     3           0.00391       -0.43750       -0.43750       -0.18750
 BRILLOUIN|     4           0.00391       -0.43750       -0.43750       -0.06250
 BRILLOUIN|     5           0.00391       -0.43750       -0.43750        0.06250
 BRILLOUIN|     6           0.00391       -0.43750       -0.43750        0.18750
 BRILLOUIN|     7           0.00391       -0.43750       -0.43750        0.31250
 BRILLOUIN|     8           0.00391       -0.43750       -0.43750        0.43750
 BRILLOUIN|     9           0.00391       -0.43750       -0.31250       -0.43750
 BRILLOUIN|    10           0.00391       -0.43750       -0.31250       -0.31250
 BRILLOUIN|    11           0.00391       -0.43750       -0.31250       -0.18750
 BRILLOUIN|    12           0.00391       -0.43750       -0.31250       -0.06250
 BRILLOUIN|    13           0.00391       -0.43750       -0.31250        0.06250
 BRILLOUIN|    14           0.00391       -0.43750       -0.31250        0.18750
 BRILLOUIN|    15           0.00391       -0.43750       -0.31250        0.31250
 BRILLOUIN|    16           0.00391       -0.43750       -0.31250        0.43750
 BRILLOUIN|    17           0.00391       -0.43750       -0.18750       -0.43750
 BRILLOUIN|    18           0.00391       -0.43750       -0.18750       -0.31250
 BRILLOUIN|    19           0.00391       -0.43750       -0.18750       -0.18750
 BRILLOUIN|    20           0.00391       -0.43750       -0.18750       -0.06250
 BRILLOUIN|    21           0.00391       -0.43750       -0.18750        0.06250
 BRILLOUIN|    22           0.00391       -0.43750       -0.18750        0.18750
 BRILLOUIN|    23           0.00391       -0.43750       -0.18750        0.31250
 BRILLOUIN|    24           0.00391       -0.43750       -0.18750        0.43750
 BRILLOUIN|    25           0.00391       -0.43750       -0.06250       -0.43750
 BRILLOUIN|    26           0.00391       -0.43750       -0.06250       -0.31250
 BRILLOUIN|    27           0.00391       -0.43750       -0.06250       -0.18750
 BRILLOUIN|    28           0.00391       -0.43750       -0.06250       -0.06250
 BRILLOUIN|    29           0.00391       -0.43750       -0.06250        0.06250
 BRILLOUIN|    30           0.00391       -0.43750       -0.06250        0.18750
 BRILLOUIN|    31           0.00391       -0.43750       -0.06250        0.31250
 BRILLOUIN|    32           0.00391       -0.43750       -0.06250        0.43750
 BRILLOUIN|    33           0.00391       -0.43750        0.06250       -0.43750
 BRILLOUIN|    34           0.00391       -0.43750        0.06250       -0.31250
 BRILLOUIN|    35           0.00391       -0.43750        0.06250       -0.18750
 BRILLOUIN|    36           0.00391       -0.43750        0.06250       -0.06250
 BRILLOUIN|    37           0.00391       -0.43750        0.06250        0.06250
 BRILLOUIN|    38           0.00391       -0.43750        0.06250        0.18750
 BRILLOUIN|    39           0.00391       -0.43750        0.06250        0.31250
 BRILLOUIN|    40           0.00391       -0.43750        0.06250        0.43750
 BRILLOUIN|    41           0.00391       -0.43750        0.18750       -0.43750
 BRILLOUIN|    42           0.00391       -0.43750        0.18750       -0.31250
 BRILLOUIN|    43           0.00391       -0.43750        0.18750       -0.18750
 BRILLOUIN|    44           0.00391       -0.43750        0.18750       -0.06250
 BRILLOUIN|    45           0.00391       -0.43750        0.18750        0.06250
 BRILLOUIN|    46           0.00391       -0.43750        0.18750        0.18750
 BRILLOUIN|    47           0.00391       -0.43750        0.18750        0.31250
 BRILLOUIN|    48           0.00391       -0.43750        0.18750        0.43750
 BRILLOUIN|    49           0.00391       -0.43750        0.31250       -0.43750
 BRILLOUIN|    50           0.00391       -0.43750        0.31250       -0.31250
 BRILLOUIN|    51           0.00391       -0.43750        0.31250       -0.18750
 BRILLOUIN|    52           0.00391       -0.43750        0.31250       -0.06250
 BRILLOUIN|    53           0.00391       -0.43750        0.31250        0.06250
 BRILLOUIN|    54           0.00391       -0.43750        0.31250        0.18750
 BRILLOUIN|    55           0.00391       -0.43750        0.31250        0.31250
 BRILLOUIN|    56           0.00391       -0.43750        0.31250        0.43750
 BRILLOUIN|    57           0.00391       -0.43750        0.43750       -0.43750
 BRILLOUIN|    58           0.00391       -0.43750        0.43750       -0.31250
 BRILLOUIN|    59           0.00391       -0.43750        0.43750       -0.18750
 BRILLOUIN|    60           0.00391       -0.43750        0.43750       -0.06250
 BRILLOUIN|    61           0.00391       -0.43750        0.43750        0.06250
 BRILLOUIN|    62           0.00391       -0.43750        0.43750        0.18750
 BRILLOUIN|    63           0.00391       -0.43750        0.43750        0.31250
 BRILLOUIN|    64           0.00391       -0.43750        0.43750        0.43750
 BRILLOUIN|    65           0.00391       -0.31250       -0.43750       -0.43750
 BRILLOUIN|    66           0.00391       -0.31250       -0.43750       -0.31250
 BRILLOUIN|    67           0.00391       -0.31250       -0.43750       -0.18750
 BRILLOUIN|    68           0.00391       -0.31250       -0.43750       -0.06250
 BRILLOUIN|    69           0.00391       -0.31250       -0.43750        0.06250
 BRILLOUIN|    70           0.00391       -0.31250       -0.43750        0.18750
 BRILLOUIN|    71           0.00391       -0.31250       -0.43750        0.31250
 BRILLOUIN|    72           0.00391       -0.31250       -0.43750        0.43750
 BRILLOUIN|    73           0.00391       -0.31250       -0.31250       -0.43750
 BRILLOUIN|    74           0.00391       -0.31250       -0.31250       -0.31250
 BRILLOUIN|    75           0.00391       -0.31250       -0.31250       -0.18750
 BRILLOUIN|    76           0.00391       -0.31250       -0.31250       -0.06250
 BRILLOUIN|    77           0.00391       -0.31250       -0.31250        0.06250
 BRILLOUIN|    78           0.00391       -0.31250       -0.31250        0.18750
 BRILLOUIN|    79           0.00391       -0.31250       -0.31250        0.31250
 BRILLOUIN|    80           0.00391       -0.31250       -0.31250        0.43750
 BRILLOUIN|    81           0.00391       -0.31250       -0.18750       -0.43750
 BRILLOUIN|    82           0.00391       -0.31250       -0.18750       -0.31250
 BRILLOUIN|    83           0.00391       -0.31250       -0.18750       -0.18750
 BRILLOUIN|    84           0.00391       -0.31250       -0.18750       -0.06250
 BRILLOUIN|    85           0.00391       -0.31250       -0.18750        0.06250
 BRILLOUIN|    86           0.00391       -0.31250       -0.18750        0.18750
 BRILLOUIN|    87           0.00391       -0.31250       -0.18750        0.31250
 BRILLOUIN|    88           0.00391       -0.31250       -0.18750        0.43750
 BRILLOUIN|    89           0.00391       -0.31250       -0.06250       -0.43750
 BRILLOUIN|    90           0.00391       -0.31250       -0.06250       -0.31250
 BRILLOUIN|    91           0.00391       -0.31250       -0.06250       -0.18750
 BRILLOUIN|    92           0.00391       -0.31250       -0.06250       -0.06250
 BRILLOUIN|    93           0.00391       -0.31250       -0.06250        0.06250
 BRILLOUIN|    94           0.00391       -0.31250       -0.06250        0.18750
 BRILLOUIN|    95           0.00391       -0.31250       -0.06250        0.31250
 BRILLOUIN|    96           0.00391       -0.31250       -0.06250        0.43750
 BRILLOUIN|    97           0.00391       -0.31250        0.06250       -0.43750
 BRILLOUIN|    98           0.00391       -0.31250        0.06250       -0.31250
 BRILLOUIN|    99           0.00391       -0.31250        0.06250       -0.18750
 BRILLOUIN|   100           0.00391       -0.31250        0.06250       -0.06250
 BRILLOUIN|   101           0.00391       -0.31250        0.06250        0.06250
 BRILLOUIN|   102           0.00391       -0.31250        0.06250        0.18750
 BRILLOUIN|   103           0.00391       -0.31250        0.06250        0.31250
 BRILLOUIN|   104           0.00391       -0.31250        0.06250        0.43750
 BRILLOUIN|   105           0.00391       -0.31250        0.18750       -0.43750
 BRILLOUIN|   106           0.00391       -0.31250        0.18750       -0.31250
 BRILLOUIN|   107           0.00391       -0.31250        0.18750       -0.18750
 BRILLOUIN|   108           0.00391       -0.31250        0.18750       -0.06250
 BRILLOUIN|   109           0.00391       -0.31250        0.18750        0.06250
 BRILLOUIN|   110           0.00391       -0.31250        0.18750        0.18750
 BRILLOUIN|   111           0.00391       -0.31250        0.18750        0.31250
 BRILLOUIN|   112           0.00391       -0.31250        0.18750        0.43750
 BRILLOUIN|   113           0.00391       -0.31250        0.31250       -0.43750
 BRILLOUIN|   114           0.00391       -0.31250        0.31250       -0.31250
 BRILLOUIN|   115           0.00391       -0.31250        0.31250       -0.18750
 BRILLOUIN|   116           0.00391       -0.31250        0.31250       -0.06250
 BRILLOUIN|   117           0.00391       -0.31250        0.31250        0.06250
 BRILLOUIN|   118           0.00391       -0.31250        0.31250        0.18750
 BRILLOUIN|   119           0.00391       -0.31250        0.31250        0.31250
 BRILLOUIN|   120           0.00391       -0.31250        0.31250        0.43750
 BRILLOUIN|   121           0.00391       -0.31250        0.43750       -0.43750
 BRILLOUIN|   122           0.00391       -0.31250        0.43750       -0.31250
 BRILLOUIN|   123           0.00391       -0.31250        0.43750       -0.18750
 BRILLOUIN|   124           0.00391       -0.31250        0.43750       -0.06250
 BRILLOUIN|   125           0.00391       -0.31250        0.43750        0.06250
 BRILLOUIN|   126           0.00391       -0.31250        0.43750        0.18750
 BRILLOUIN|   127           0.00391       -0.31250        0.43750        0.31250
 BRILLOUIN|   128           0.00391       -0.31250        0.43750        0.43750
 BRILLOUIN|   129           0.00391       -0.18750       -0.43750       -0.43750
 BRILLOUIN|   130           0.00391       -0.18750       -0.43750       -0.31250
 BRILLOUIN|   131           0.00391       -0.18750       -0.43750       -0.18750
 BRILLOUIN|   132           0.00391       -0.18750       -0.43750       -0.06250
 BRILLOUIN|   133           0.00391       -0.18750       -0.43750        0.06250
 BRILLOUIN|   134           0.00391       -0.18750       -0.43750        0.18750
 BRILLOUIN|   135           0.00391       -0.18750       -0.43750        0.31250
 BRILLOUIN|   136           0.00391       -0.18750       -0.43750        0.43750
 BRILLOUIN|   137           0.00391       -0.18750       -0.31250       -0.43750
 BRILLOUIN|   138           0.00391       -0.18750       -0.31250       -0.31250
 BRILLOUIN|   139           0.00391       -0.18750       -0.31250       -0.18750
 BRILLOUIN|   140           0.00391       -0.18750       -0.31250       -0.06250
 BRILLOUIN|   141           0.00391       -0.18750       -0.31250        0.06250
 BRILLOUIN|   142           0.00391       -0.18750       -0.31250        0.18750
 BRILLOUIN|   143           0.00391       -0.18750       -0.31250        0.31250
 BRILLOUIN|   144           0.00391       -0.18750       -0.31250        0.43750
 BRILLOUIN|   145           0.00391       -0.18750       -0.18750       -0.43750
 BRILLOUIN|   146           0.00391       -0.18750       -0.18750       -0.31250
 BRILLOUIN|   147           0.00391       -0.18750       -0.18750       -0.18750
 BRILLOUIN|   148           0.00391       -0.18750       -0.18750       -0.06250
 BRILLOUIN|   149           0.00391       -0.18750       -0.18750        0.06250
 BRILLOUIN|   150           0.00391       -0.18750       -0.18750        0.18750
 BRILLOUIN|   151           0.00391       -0.18750       -0.18750        0.31250
 BRILLOUIN|   152           0.00391       -0.18750       -0.18750        0.43750
 BRILLOUIN|   153           0.00391       -0.18750       -0.06250       -0.43750
 BRILLOUIN|   154           0.00391       -0.18750       -0.06250       -0.31250
 BRILLOUIN|   155           0.00391       -0.18750       -0.06250       -0.18750
 BRILLOUIN|   156           0.00391       -0.18750       -0.06250       -0.06250
 BRILLOUIN|   157           0.00391       -0.18750       -0.06250        0.06250
 BRILLOUIN|   158           0.00391       -0.18750       -0.06250        0.18750
 BRILLOUIN|   159           0.00391       -0.18750       -0.06250        0.31250
 BRILLOUIN|   160           0.00391       -0.18750       -0.06250        0.43750
 BRILLOUIN|   161           0.00391       -0.18750        0.06250       -0.43750
 BRILLOUIN|   162           0.00391       -0.18750        0.06250       -0.31250
 BRILLOUIN|   163           0.00391       -0.18750        0.06250       -0.18750
 BRILLOUIN|   164           0.00391       -0.18750        0.06250       -0.06250
 BRILLOUIN|   165           0.00391       -0.18750        0.06250        0.06250
 BRILLOUIN|   166           0.00391       -0.18750        0.06250        0.18750
 BRILLOUIN|   167           0.00391       -0.18750        0.06250        0.31250
 BRILLOUIN|   168           0.00391       -0.18750        0.06250        0.43750
 BRILLOUIN|   169           0.00391       -0.18750        0.18750       -0.43750
 BRILLOUIN|   170           0.00391       -0.18750        0.18750       -0.31250
 BRILLOUIN|   171           0.00391       -0.18750        0.18750       -0.18750
 BRILLOUIN|   172           0.00391       -0.18750        0.18750       -0.06250
 BRILLOUIN|   173           0.00391       -0.18750        0.18750        0.06250
 BRILLOUIN|   174           0.00391       -0.18750        0.18750        0.18750
 BRILLOUIN|   175           0.00391       -0.18750        0.18750        0.31250
 BRILLOUIN|   176           0.00391       -0.18750        0.18750        0.43750
 BRILLOUIN|   177           0.00391       -0.18750        0.31250       -0.43750
 BRILLOUIN|   178           0.00391       -0.18750        0.31250       -0.31250
 BRILLOUIN|   179           0.00391       -0.18750        0.31250       -0.18750
 BRILLOUIN|   180           0.00391       -0.18750        0.31250       -0.06250
 BRILLOUIN|   181           0.00391       -0.18750        0.31250        0.06250
 BRILLOUIN|   182           0.00391       -0.18750        0.31250        0.18750
 BRILLOUIN|   183           0.00391       -0.18750        0.31250        0.31250
 BRILLOUIN|   184           0.00391       -0.18750        0.31250        0.43750
 BRILLOUIN|   185           0.00391       -0.18750        0.43750       -0.43750
 BRILLOUIN|   186           0.00391       -0.18750        0.43750       -0.31250
 BRILLOUIN|   187           0.00391       -0.18750        0.43750       -0.18750
 BRILLOUIN|   188           0.00391       -0.18750        0.43750       -0.06250
 BRILLOUIN|   189           0.00391       -0.18750        0.43750        0.06250
 BRILLOUIN|   190           0.00391       -0.18750        0.43750        0.18750
 BRILLOUIN|   191           0.00391       -0.18750        0.43750        0.31250
 BRILLOUIN|   192           0.00391       -0.18750        0.43750        0.43750
 BRILLOUIN|   193           0.00391       -0.06250       -0.43750       -0.43750
 BRILLOUIN|   194           0.00391       -0.06250       -0.43750       -0.31250
 BRILLOUIN|   195           0.00391       -0.06250       -0.43750       -0.18750
 BRILLOUIN|   196           0.00391       -0.06250       -0.43750       -0.06250
 BRILLOUIN|   197           0.00391       -0.06250       -0.43750        0.06250
 BRILLOUIN|   198           0.00391       -0.06250       -0.43750        0.18750
 BRILLOUIN|   199           0.00391       -0.06250       -0.43750        0.31250
 BRILLOUIN|   200           0.00391       -0.06250       -0.43750        0.43750
 BRILLOUIN|   201           0.00391       -0.06250       -0.31250       -0.43750
 BRILLOUIN|   202           0.00391       -0.06250       -0.31250       -0.31250
 BRILLOUIN|   203           0.00391       -0.06250       -0.31250       -0.18750
 BRILLOUIN|   204           0.00391       -0.06250       -0.31250       -0.06250
 BRILLOUIN|   205           0.00391       -0.06250       -0.31250        0.06250
 BRILLOUIN|   206           0.00391       -0.06250       -0.31250        0.18750
 BRILLOUIN|   207           0.00391       -0.06250       -0.31250        0.31250
 BRILLOUIN|   208           0.00391       -0.06250       -0.31250        0.43750
 BRILLOUIN|   209           0.00391       -0.06250       -0.18750       -0.43750
 BRILLOUIN|   210           0.00391       -0.06250       -0.18750       -0.31250
 BRILLOUIN|   211           0.00391       -0.06250       -0.18750       -0.18750
 BRILLOUIN|   212           0.00391       -0.06250       -0.18750       -0.06250
 BRILLOUIN|   213           0.00391       -0.06250       -0.18750        0.06250
 BRILLOUIN|   214           0.00391       -0.06250       -0.18750        0.18750
 BRILLOUIN|   215           0.00391       -0.06250       -0.18750        0.31250
 BRILLOUIN|   216           0.00391       -0.06250       -0.18750        0.43750
 BRILLOUIN|   217           0.00391       -0.06250       -0.06250       -0.43750
 BRILLOUIN|   218           0.00391       -0.06250       -0.06250       -0.31250
 BRILLOUIN|   219           0.00391       -0.06250       -0.06250       -0.18750
 BRILLOUIN|   220           0.00391       -0.06250       -0.06250       -0.06250
 BRILLOUIN|   221           0.00391       -0.06250       -0.06250        0.06250
 BRILLOUIN|   222           0.00391       -0.06250       -0.06250        0.18750
 BRILLOUIN|   223           0.00391       -0.06250       -0.06250        0.31250
 BRILLOUIN|   224           0.00391       -0.06250       -0.06250        0.43750
 BRILLOUIN|   225           0.00391       -0.06250        0.06250       -0.43750
 BRILLOUIN|   226           0.00391       -0.06250        0.06250       -0.31250
 BRILLOUIN|   227           0.00391       -0.06250        0.06250       -0.18750
 BRILLOUIN|   228           0.00391       -0.06250        0.06250       -0.06250
 BRILLOUIN|   229           0.00391       -0.06250        0.06250        0.06250
 BRILLOUIN|   230           0.00391       -0.06250        0.06250        0.18750
 BRILLOUIN|   231           0.00391       -0.06250        0.06250        0.31250
 BRILLOUIN|   232           0.00391       -0.06250        0.06250        0.43750
 BRILLOUIN|   233           0.00391       -0.06250        0.18750       -0.43750
 BRILLOUIN|   234           0.00391       -0.06250        0.18750       -0.31250
 BRILLOUIN|   235           0.00391       -0.06250        0.18750       -0.18750
 BRILLOUIN|   236           0.00391       -0.06250        0.18750       -0.06250
 BRILLOUIN|   237           0.00391       -0.06250        0.18750        0.06250
 BRILLOUIN|   238           0.00391       -0.06250        0.18750        0.18750
 BRILLOUIN|   239           0.00391       -0.06250        0.18750        0.31250
 BRILLOUIN|   240           0.00391       -0.06250        0.18750        0.43750
 BRILLOUIN|   241           0.00391       -0.06250        0.31250       -0.43750
 BRILLOUIN|   242           0.00391       -0.06250        0.31250       -0.31250
 BRILLOUIN|   243           0.00391       -0.06250        0.31250       -0.18750
 BRILLOUIN|   244           0.00391       -0.06250        0.31250       -0.06250
 BRILLOUIN|   245           0.00391       -0.06250        0.31250        0.06250
 BRILLOUIN|   246           0.00391       -0.06250        0.31250        0.18750
 BRILLOUIN|   247           0.00391       -0.06250        0.31250        0.31250
 BRILLOUIN|   248           0.00391       -0.06250        0.31250        0.43750
 BRILLOUIN|   249           0.00391       -0.06250        0.43750       -0.43750
 BRILLOUIN|   250           0.00391       -0.06250        0.43750       -0.31250
 BRILLOUIN|   251           0.00391       -0.06250        0.43750       -0.18750
 BRILLOUIN|   252           0.00391       -0.06250        0.43750       -0.06250
 BRILLOUIN|   253           0.00391       -0.06250        0.43750        0.06250
 BRILLOUIN|   254           0.00391       -0.06250        0.43750        0.18750
 BRILLOUIN|   255           0.00391       -0.06250        0.43750        0.31250
 BRILLOUIN|   256           0.00391       -0.06250        0.43750        0.43750
 *******************************************************************************

 *******************************************************************************
 *******************************************************************************
 **                                                                           **
 **     #####                         ##              ##                      **
 **    ##   ##            ##          ##              ##                      **
 **   ##     ##                       ##            ######                    **
 **   ##     ##  ##   ##  ##   #####  ##  ##   ####   ##    #####    #####    **
 **   ##     ##  ##   ##  ##  ##      ## ##   ##      ##   ##   ##  ##   ##   **
 **   ##  ## ##  ##   ##  ##  ##      ####     ###    ##   ######   ######    **
 **    ##  ###   ##   ##  ##  ##      ## ##      ##   ##   ##       ##        **
 **     #######   #####   ##   #####  ##  ##  ####    ##    #####   ##        **
 **           ##                                                    ##        **
 **                                                                           **
 **                                                ... make the atoms dance   **
 **                                                                           **
 **            Copyright (C) by CP2K developers group (2000-2025)             **
 **                      J. Chem. Phys. 152, 194103 (2020)                    **
 **                                                                           **
 *******************************************************************************

 DFT| Spin restricted Kohn-Sham (RKS) calculation                            RKS
 DFT| Multiplicity                                                             1
 DFT| Number of spin states                                                    1
 DFT| Charge                                                                   0
 DFT| Self-interaction correction (SIC)                                       NO
 DFT| Cutoffs: density                                              1.000000E-10
 DFT|          gradient                                             1.000000E-10
 DFT|          tau                                                  1.000000E-10
 DFT|          cutoff_smoothing_range                               0.000000E+00
 DFT| XC density smoothing                                                  NONE
 DFT| XC derivatives                                                          PW

 FUNCTIONAL| PBE:
 FUNCTIONAL| J.P.Perdew, K.Burke, M.Ernzerhof, Phys. Rev. Letter, vol. 77, n 18,
 FUNCTIONAL|  pp. 3865-3868, (1996) {spin unpolarized}                          


 QS| Method:                                                                 GPW
 QS| Density plane wave grid type                        NON-SPHERICAL FULLSPACE
 QS| Number of grid levels:                                                    4
 QS| Density cutoff [a.u.]:                                                500.0
 QS| Multi grid cutoff [a.u.]: 1) grid level                               500.0
 QS|                           2) grid level                               166.7
 QS|                           3) grid level                                55.6
 QS|                           4) grid level                                18.5
 QS| Grid level progression factor:                                          3.0
 QS| Relative density cutoff [a.u.]:                                        50.0
 QS| Interaction thresholds: eps_pgf_orb:                                1.0E-16
 QS|                         eps_filter_matrix:                          0.0E+00
 QS|                         eps_core_charge:                            1.0E-18
 QS|                         eps_rho_gspace:                             1.0E-16
 QS|                         eps_rho_rspace:                             1.0E-16
 QS|                         eps_gvg_rspace:                             1.0E-08
 QS|                         eps_ppl:                                    1.0E-02
 QS|                         eps_ppnl:                                   1.0E-10


 ATOMIC KIND INFORMATION

  1. Atomic kind: Cl                                    Number of atoms:       8

     Orbital Basis Set                                    TZVP-MOLOPT-GGA-GTH-q7

       Number of orbital shell sets:                                           1
       Number of orbital shells:                                               7
       Number of primitive Cartesian functions:                                4
       Number of Cartesian basis functions:                                   18
       Number of spherical basis functions:                                   17
       Norm type:                                                              2

       Normalised Cartesian orbitals:

                        Set   Shell   Orbital            Exponent    Coefficient

                          1       1    2s                1.998248       0.474127
                                                         1.503631      -0.298602
                                                         0.406509      -0.170002
                                                         0.128538      -0.091923

                          1       2    3s                1.998248       0.878043
                                                         1.503631      -0.090105
                                                         0.406509      -0.545023
                                                         0.128538       0.260422

                          1       3    4s                1.998248       0.030172
                                                         1.503631      -1.270839
                                                         0.406509       0.168869
                                                         0.128538       0.050189

                          1       4    3px               1.998248       1.035211
                                                         1.503631      -1.044903
                                                         0.406509      -0.274741
                                                         0.128538      -0.041581
                          1       4    3py               1.998248       1.035211
                                                         1.503631      -1.044903
                                                         0.406509      -0.274741
                                                         0.128538      -0.041581
                          1       4    3pz               1.998248       1.035211
                                                         1.503631      -1.044903
                                                         0.406509      -0.274741
                                                         0.128538      -0.041581

                          1       5    4px               1.998248       0.846287
                                                         1.503631      -0.665007
                                                         0.406509      -0.214639
                                                         0.128538       0.137550
                          1       5    4py               1.998248       0.846287
                                                         1.503631      -0.665007
                                                         0.406509      -0.214639
                                                         0.128538       0.137550
                          1       5    4pz               1.998248       0.846287
                                                         1.503631      -0.665007
                                                         0.406509      -0.214639
                                                         0.128538       0.137550

                          1       6    5px               1.998248      -1.228895
                                                         1.503631      -1.929331
                                                         0.406509       0.181784
                                                         0.128538       0.003953
                          1       6    5py               1.998248      -1.228895
                                                         1.503631      -1.929331
                                                         0.406509       0.181784
                                                         0.128538       0.003953
                          1       6    5pz               1.998248      -1.228895
                                                         1.503631      -1.929331
                                                         0.406509       0.181784
                                                         0.128538       0.003953

                          1       7    4dx2              1.998248       0.400992
                                                         1.503631       0.768662
                                                         0.406509       0.256895
                                                         0.128538       0.005608
                          1       7    4dxy              1.998248       0.694538
                                                         1.503631       1.331361
                                                         0.406509       0.444955
                                                         0.128538       0.009714
                          1       7    4dxz              1.998248       0.694538
                                                         1.503631       1.331361
                                                         0.406509       0.444955
                                                         0.128538       0.009714
                          1       7    4dy2              1.998248       0.400992
                                                         1.503631       0.768662
                                                         0.406509       0.256895
                                                         0.128538       0.005608
                          1       7    4dyz              1.998248       0.694538
                                                         1.503631       1.331361
                                                         0.406509       0.444955
                                                         0.128538       0.009714
                          1       7    4dz2              1.998248       0.400992
                                                         1.503631       0.768662
                                                         0.406509       0.256895
                                                         0.128538       0.005608

       Atomic covalent radius [Angstrom]:                                  0.990

       Atomic van der Waals radius [Angstrom]:                             1.750

     GTH Potential information for                                    GTH-PBE-q7

       Description:                       Goedecker-Teter-Hutter pseudopotential
                                           Goedecker et al., PRB 54, 1703 (1996)
                                          Hartwigsen et al., PRB 58, 3641 (1998)
                                                      Krack, TCA 114, 145 (2005)

       Gaussian exponent of the core charge distribution:               2.974420
       Electronic configuration (s p d ...):                               2   5

       Parameters of the local part of the GTH pseudopotential:

                          rloc        C1          C2          C3          C4
                        0.410000   -6.392082

       Parameters of the non-local part of the GTH (SOC) pseudopotential:

                   l      r(l)      h(i,j,l)
                                    k(i,j,l)
                   0    0.339539   15.218990   -4.934523
                                   -4.934523    6.370442
                   1    0.378474    4.338775    0.000000
                                    0.000000    0.000000
                                    0.045289   -0.032578
                                   -0.032578    0.038547


 MOLECULE KIND INFORMATION


 All atoms are their own molecule, skipping detailed information


 TOTAL NUMBERS AND MAXIMUM NUMBERS

  Total number of            - Atomic kinds:                                   1
                             - Atoms:                                          8
                             - Shell sets:                                     8
                             - Shells:                                        56
                             - Primitive Cartesian functions:                 32
                             - Cartesian basis functions:                    144
                             - Spherical basis functions:                    136

  Maximum angular momentum of- Orbital basis functions:                        2
                             - Local part of the GTH pseudopotential:          0
                             - Non-local part of the GTH pseudopotential:      3


 MODULE QUICKSTEP: ATOMIC COORDINATES IN ANGSTROM

   Atom Kind Element         X             Y             Z       Z(eff)     Mass
      1    1 Cl   17      0.000000      1.778126      8.111064   7.0000  35.4530
      2    1 Cl   17      0.000000      0.396579      3.597294   7.0000  35.4530
      3    1 Cl   17      0.000000      3.952831      5.430246   7.0000  35.4530
      4    1 Cl   17      0.000000      2.571284      0.916476   7.0000  35.4530
      5    1 Cl   17      3.889375      3.952831      8.111064   7.0000  35.4530
      6    1 Cl   17      3.889375      2.571284      3.597294   7.0000  35.4530
      7    1 Cl   17      3.889375      1.778126      5.430246   7.0000  35.4530
      8    1 Cl   17      3.889375      0.396579      0.916476   7.0000  35.4530



 SCF PARAMETERS         Density guess:                                    ATOMIC
                        --------------------------------------------------------
                        max_scf:                                             500
                        max_scf_history:                                       0
                        max_diis:                                              4
                        --------------------------------------------------------
                        eps_scf:                                        1.00E-09
                        eps_scf_history:                                0.00E+00
                        eps_diis:                                       1.00E-01
                        eps_eigval:                                     1.00E-05
                        --------------------------------------------------------
                        level_shift [a.u.]:                             0.000000
                        added MOs                                       108    0
                        --------------------------------------------------------
                        Mixing method:                            BROYDEN_MIXING
                                                charge density mixing in g-space
                        --------------------------------------------------------
                        No outer SCF

 PW_GRID| Information for grid number                                          1
 PW_GRID| Grid distributed over                                     8 processors
 PW_GRID| Real space group dimensions                                     8    1
 PW_GRID| the grid is blocked:                                                NO
 PW_GRID| Cutoff [a.u.]                                                    500.0
 PW_GRID| spherical cutoff:                                                   NO
 PW_GRID|   Bounds   1            -75      74                Points:         150
 PW_GRID|   Bounds   2            -45      44                Points:          90
 PW_GRID|   Bounds   3            -90      89                Points:         180
 PW_GRID| Volume element (a.u.^3)  0.8482E-03     Volume (a.u.^3)      2061.1338
 PW_GRID| Grid span                                                    FULLSPACE
 PW_GRID|   Distribution                         Average         Max         Min
 PW_GRID|   G-Vectors                           303750.0      303750      303750
 PW_GRID|   G-Rays                                2025.0        2025        2025
 PW_GRID|   Real Space Points                   303750.0      307800      291600

 PW_GRID| Information for grid number                                          2
 PW_GRID| Number of the reference grid                                         1
 PW_GRID| Grid distributed over                                     8 processors
 PW_GRID| Real space group dimensions                                     8    1
 PW_GRID| the grid is blocked:                                                NO
 PW_GRID| Cutoff [a.u.]                                                    166.7
 PW_GRID| spherical cutoff:                                                   NO
 PW_GRID|   Bounds   1            -45      44                Points:          90
 PW_GRID|   Bounds   2            -24      23                Points:          48
 PW_GRID|   Bounds   3            -50      49                Points:         100
 PW_GRID| Volume element (a.u.^3)  0.4771E-02     Volume (a.u.^3)      2061.1338
 PW_GRID| Grid span                                                    FULLSPACE
 PW_GRID|   Distribution                         Average         Max         Min
 PW_GRID|   G-Vectors                            54000.0       54090       53910
 PW_GRID|   G-Rays                                 600.0         601         599
 PW_GRID|   Real Space Points                    54000.0       57600       52800

 PW_GRID| Information for grid number                                          3
 PW_GRID| Number of the reference grid                                         1
 PW_GRID| Grid distributed over                                     8 processors
 PW_GRID| Real space group dimensions                                     8    1
 PW_GRID| the grid is blocked:                                                NO
 PW_GRID| Cutoff [a.u.]                                                     55.6
 PW_GRID| spherical cutoff:                                                   NO
 PW_GRID|   Bounds   1            -27      26                Points:          54
 PW_GRID|   Bounds   2            -13      13                Points:          27
 PW_GRID|   Bounds   3            -30      29                Points:          60
 PW_GRID| Volume element (a.u.^3)  0.2356E-01     Volume (a.u.^3)      2061.1338
 PW_GRID| Grid span                                                    FULLSPACE
 PW_GRID|   Distribution                         Average         Max         Min
 PW_GRID|   G-Vectors                            10935.0       11070       10854
 PW_GRID|   G-Rays                                 202.5         205         201
 PW_GRID|   Real Space Points                    10935.0       11340        9720

 PW_GRID| Information for grid number                                          4
 PW_GRID| Number of the reference grid                                         1
 PW_GRID| Grid distributed over                                     8 processors
 PW_GRID| Real space group dimensions                                     8    1
 PW_GRID| the grid is blocked:                                                NO
 PW_GRID| Cutoff [a.u.]                                                     18.5
 PW_GRID| spherical cutoff:                                                   NO
 PW_GRID|   Bounds   1            -15      14                Points:          30
 PW_GRID|   Bounds   2             -7       7                Points:          15
 PW_GRID|   Bounds   3            -18      17                Points:          36
 PW_GRID| Volume element (a.u.^3)  0.1272         Volume (a.u.^3)      2061.1338
 PW_GRID| Grid span                                                    FULLSPACE
 PW_GRID|   Distribution                         Average         Max         Min
 PW_GRID|   G-Vectors                             2025.0        2070        1980
 PW_GRID|   G-Rays                                  67.5          69          66
 PW_GRID|   Real Space Points                     2025.0        2160        1620

 POISSON| Solver                                                        PERIODIC
 POISSON| Periodicity                                                        XYZ

 RS_GRID| Information for grid number                                          1
 RS_GRID|   Bounds   1            -75      74                Points:         150
 RS_GRID|   Bounds   2            -45      44                Points:          90
 RS_GRID|   Bounds   3            -90      89                Points:         180
 RS_GRID| Real space fully replicated
 RS_GRID| Group size                                                           1

 RS_GRID| Information for grid number                                          2
 RS_GRID|   Bounds   1            -45      44                Points:          90
 RS_GRID|   Bounds   2            -24      23                Points:          48
 RS_GRID|   Bounds   3            -50      49                Points:         100
 RS_GRID| Real space fully replicated
 RS_GRID| Group size                                                           1

 RS_GRID| Information for grid number                                          3
 RS_GRID|   Bounds   1            -27      26                Points:          54
 RS_GRID|   Bounds   2            -13      13                Points:          27
 RS_GRID|   Bounds   3            -30      29                Points:          60
 RS_GRID| Real space fully replicated
 RS_GRID| Group size                                                           1

 RS_GRID| Information for grid number                                          4
 RS_GRID|   Bounds   1            -15      14                Points:          30
 RS_GRID|   Bounds   2             -7       7                Points:          15
 RS_GRID|   Bounds   3            -18      17                Points:          36
 RS_GRID| Real space fully replicated
 RS_GRID| Group size                                                           1

 Number of electrons:                                                         56
 Number of occupied orbitals:                                                 28
 Number of molecular orbitals:                                               136

 Number of orbital functions:                                                136
 Number of independent orbital functions:                                    136

 Extrapolation method: initial_guess

 Atomic guess: The first density matrix is obtained in terms of atomic orbitals
               and electronic configurations assigned to each atomic kind

 Guess for atomic kind: Cl

 Electronic structure
    Total number of core electrons                                         10.00
    Total number of valence electrons                                       7.00
    Total number of electrons                                              17.00
    Multiplicity                                                   not specified
    S   [  2.00  2.00] 2.00
    P   [  6.00] 5.00


 *******************************************************************************
                  Iteration          Convergence                     Energy [au]
 *******************************************************************************
                          1        0.208089E-01                 -14.773320101138
                          2        0.243606E-01                 -14.773410002515
                          3        0.550542E-03                 -14.773524715662
                          4        0.344941E-05                 -14.773524798586
                          5        0.294775E-08                 -14.773524798590

 Energy components [Hartree]           Total Energy ::          -14.773524798590
                                        Band Energy ::           -2.980776881878
                                     Kinetic Energy ::            5.566515785971
                                   Potential Energy ::          -20.340040584560
                                      Virial (-V/T) ::            3.653998545342
                                        Core Energy ::          -24.668631112100
                                          XC Energy ::           -2.741060233278
                                     Coulomb Energy ::           12.636166546788
                       Total Pseudopotential Energy ::          -30.294508164425
                       Local Pseudopotential Energy ::          -33.426860972217
                    Nonlocal Pseudopotential Energy ::            3.132352807792
                                        Confinement ::            0.593612663544

 Orbital energies  State     L     Occupation   Energy[a.u.]          Energy[eV]

                       1     0          2.000      -0.742654          -20.208632

                       1     1          5.000      -0.299094           -8.138760


 Total Electron Density at R=0:                                         0.000307
 Re-scaling the density matrix to get the right number of electrons
                  # Electrons              Trace(P)               Scaling factor
                           56                56.000                        1.000


 SCF WAVEFUNCTION OPTIMIZATION

  Step     Update method      Time    Convergence         Total energy    Change
  ------------------------------------------------------------------------------
     1 NoMix/Diag. 0.50E-01    2.1     0.76567379      -120.0857901794 -1.20E+02
     2 Broy./Diag. 0.50E-01    2.1     0.00112203      -119.8728088403  2.13E-01
     3 Broy./Diag. 0.50E-01    2.1     0.02766959      -119.7992757490  7.35E-02
     4 Broy./Diag. 0.50E-01    2.1     0.00032246      -119.8922681504 -9.30E-02
     5 Broy./Diag. 0.50E-01    2.1     0.00472831      -119.8265976518  6.57E-02
     6 Broy./Diag. 0.50E-01    2.2     0.00007754      -119.7727980042  5.38E-02
     7 Broy./Diag. 0.50E-01    2.1     0.00142233      -119.7708911731  1.91E-03
     8 Broy./Diag. 0.50E-01    2.1     0.00004850      -119.7455561196  2.53E-02
     9 Broy./Diag. 0.50E-01    2.1     0.00130116      -119.7447481456  8.08E-04
    10 Broy./Diag. 0.50E-01    2.2     0.00003642      -119.7379083657  6.84E-03
    11 Broy./Diag. 0.50E-01    2.2     0.00025857      -119.7343072932  3.60E-03
    12 Broy./Diag. 0.50E-01    2.2     0.00001368      -119.7307808674  3.53E-03
    13 Broy./Diag. 0.50E-01    2.2     0.00003497      -119.7308344976 -5.36E-05
    14 Broy./Diag. 0.50E-01    2.2     0.00001719      -119.7315332945 -6.99E-04
    15 Broy./Diag. 0.50E-01    2.2     0.00000491      -119.7318281368 -2.95E-04
    16 Broy./Diag. 0.50E-01    2.2     0.00001377      -119.7318688083 -4.07E-05
    17 Broy./Diag. 0.50E-01    2.2     0.00000373      -119.7318928325 -2.40E-05
    18 Broy./Diag. 0.50E-01    2.2     0.00000236      -119.7319960178 -1.03E-04
    19 Broy./Diag. 0.50E-01    2.2     0.00000584      -119.7320081580 -1.21E-05
    20 Broy./Diag. 0.50E-01    2.2     0.00000188      -119.7320950659 -8.69E-05
    21 Broy./Diag. 0.50E-01    2.2     0.00000942      -119.7321435599 -4.85E-05
    22 Broy./Diag. 0.50E-01    2.2     0.00000084      -119.7322032519 -5.97E-05
    23 Broy./Diag. 0.50E-01    2.2     0.00000601      -119.7322591893 -5.59E-05
    24 Broy./Diag. 0.50E-01    2.2     0.00000131      -119.7323339289 -7.47E-05
    25 Broy./Diag. 0.50E-01    2.2     0.00000172      -119.7323234927  1.04E-05
    26 Broy./Diag. 0.50E-01    2.2     0.00000064      -119.7322959016  2.76E-05
    27 Broy./Diag. 0.50E-01    2.2     0.00000060      -119.7322829826  1.29E-05
    28 Broy./Diag. 0.50E-01    2.2     0.00000069      -119.7322816105  1.37E-06
    29 Broy./Diag. 0.50E-01    2.2     0.00000021      -119.7322849364 -3.33E-06
    30 Broy./Diag. 0.50E-01    2.2     0.00000062      -119.7322779705  6.97E-06
    31 Broy./Diag. 0.50E-01    2.2     0.00000002      -119.7322687408  9.23E-06
    32 Broy./Diag. 0.50E-01    2.2     0.00000014      -119.7322698329 -1.09E-06
    33 Broy./Diag. 0.50E-01    2.2     0.00000002      -119.7322681449  1.69E-06
    34 Broy./Diag. 0.50E-01    2.2     0.00000013      -119.7322681749 -3.00E-08
    35 Broy./Diag. 0.50E-01    2.2     4.2353E-09      -119.7322684188 -2.44E-07
    36 Broy./Diag. 0.50E-01    2.2     0.00000007      -119.7322675863  8.33E-07
    37 Broy./Diag. 0.50E-01    2.2     3.9488E-09      -119.7322666754  9.11E-07
    38 Broy./Diag. 0.50E-01    2.1     0.00000002      -119.7322668124 -1.37E-07
    39 Broy./Diag. 0.50E-01    2.2     1.4322E-09      -119.7322669304 -1.18E-07
    40 Broy./Diag. 0.50E-01    2.2     0.00000001      -119.7322669198  1.07E-08
    41 Broy./Diag. 0.50E-01    2.2     3.0081E-09      -119.7322667132  2.07E-07
    42 Broy./Diag. 0.50E-01    2.2     8.2405E-09      -119.7322667660 -5.28E-08
    43 Broy./Diag. 0.50E-01    2.2     1.0461E-09      -119.7322667765 -1.06E-08
    44 Broy./Diag. 0.50E-01    2.2     7.8627E-10      -119.7322667881 -1.16E-08

  *** SCF run converged in    44 steps ***


  Electronic density on regular grids:        -56.0000000000       -0.0000000000
  Core density on regular grids:               56.0000000000        0.0000000000
  Total charge density on r-space grids:       -0.0000000000
  Total charge density g-space grids:          -0.0000000000

  Overlap energy of the core charge distribution:               0.00000000392585
  Self energy of the core charge distribution:               -269.71014237892746
  Core Hamiltonian energy:                                     61.60442920989319
  Hartree energy:                                             111.47463209413219
  Exchange-correlation energy:                                -23.10118571710645

  Total energy:                                              -119.73226678808268

 !-----------------------------------------------------------------------------!
                     Mulliken Population Analysis

 #  Atom  Element  Kind  Atomic population                           Net charge
       1     Cl       1          7.000000                             -0.000000
       2     Cl       1          7.000000                             -0.000000
       3     Cl       1          7.000000                              0.000000
       4     Cl       1          7.000000                              0.000000
       5     Cl       1          7.000000                             -0.000000
       6     Cl       1          7.000000                             -0.000000
       7     Cl       1          7.000000                             -0.000000
       8     Cl       1          7.000000                             -0.000000
 # Total charge                             56.000000                  0.000000

 !-----------------------------------------------------------------------------!

 !-----------------------------------------------------------------------------!
                           Hirshfeld Charges

  #Atom  Element  Kind  Ref Charge     Population                    Net charge
      1       Cl     1       7.000          7.000                         0.000
      2       Cl     1       7.000          7.000                         0.000
      3       Cl     1       7.000          7.000                         0.000
      4       Cl     1       7.000          7.000                         0.000
      5       Cl     1       7.000          7.000                        -0.000
      6       Cl     1       7.000          7.000                        -0.000
      7       Cl     1       7.000          7.000                        -0.000
      8       Cl     1       7.000          7.000                        -0.000

  Total Charge                                                           -0.000
 !-----------------------------------------------------------------------------!

 KPOINTS| Band Structure Calculation
 KPOINTS| Number of k-point sets                                               1
 KPOINTS| Number of added MOs/bands                                           -1
 KPOINTS| Number of k-points in set    1                                     148
 KPOINTS| In units of b-vector [2pi/Bohr]
 KPOINTS| Special point     1 not specifi     0.000000     0.000000     0.000000
 KPOINTS| Special point     2 not specifi     0.500000     0.500000     0.000000
 KPOINTS| Special point     3 not specifi     0.328159     0.671841     0.000000
 KPOINTS| Special point     4 not specifi     0.000000     0.000000     0.000000
 KPOINTS| Time for k-point line                                            1.115

 ENERGY| Total FORCE_EVAL ( QS ) energy [hartree]           -119.732266788082683

 -------------------------------------------------------------------------------
 -                                                                             -
 -                                DBCSR STATISTICS                             -
 -                                                                             -
 -------------------------------------------------------------------------------
 COUNTER                                    TOTAL       BLAS       SMM       ACC
 flops inhomo. stacks                           0       0.0%      0.0%      0.0%
 flops total                         0.000000E+00       0.0%      0.0%      0.0%
 flops max/rank                      0.000000E+00       0.0%      0.0%      0.0%
 matmuls inhomo. stacks                         0       0.0%      0.0%      0.0%
 matmuls total                                  0       0.0%      0.0%      0.0%
 number of processed stacks                     0       0.0%      0.0%      0.0%
 average stack size                                     0.0       0.0       0.0
 marketing flops                     0.000000E+00
 -------------------------------------------------------------------------------
 -                                                                             -
 -                      DBCSR MESSAGE PASSING PERFORMANCE                      -
 -                                                                             -
 -------------------------------------------------------------------------------
 ROUTINE             CALLS      AVE VOLUME [Bytes]
 MP_Bcast                1                     12.
 MP_Allreduce           19                     21.
 MP_Alltoall        939688                   9596.
 -------------------------------------------------------------------------------

 -------------------------------------------------------------------------------
 -                                                                             -
 -                                DBM STATISTICS                               -
 -                                                                             -
 -------------------------------------------------------------------------------
    M  x    N  x    K                                          COUNT     PERCENT
 -------------------------------------------------------------------------------

 -------------------------------------------------------------------------------
 -                                                                             -
 -                                GRID STATISTICS                              -
 -                                                                             -
 -------------------------------------------------------------------------------
 LP    KERNEL             BACKEND                              COUNT     PERCENT
 4     collocate ortho    CPU                                 253260      50.56%
 4     integrate ortho    CPU                                 247632      49.44%
 0     collocate general  CPU                                     16       0.00%
 0     integrate general  CPU                                      8       0.00%
 -------------------------------------------------------------------------------

 MEMORY| Estimated peak process memory [MiB]                                 722

 -------------------------------------------------------------------------------
 ----                             MULTIGRID INFO                            ----
 -------------------------------------------------------------------------------
 count for grid        1:           4928          cutoff [a.u.]          500.00
 count for grid        2:          18604          cutoff [a.u.]          166.67
 count for grid        3:           8384          cutoff [a.u.]           55.56
 count for grid        4:           4788          cutoff [a.u.]           18.52
 total gridlevel count  :          36704

 -------------------------------------------------------------------------------
 -                                                                             -
 -                         MESSAGE PASSING PERFORMANCE                         -
 -                                                                             -
 -------------------------------------------------------------------------------

 ROUTINE             CALLS      AVE VOLUME [Bytes]
 MP_Group                6
 MP_Bcast           410171                  10586.
 MP_Allreduce        23177                    564.
 MP_Sync                 4
 MP_Alltoall           797               13490710.
 MP_SendRecv          1274                 776532.
 MP_ISendRecv         1239                 767431.
 MP_Wait            282539
 MP_comm_split           4
 MP_ISend           299084                   4228.
 MP_IRecv           477824                   2650.
 -------------------------------------------------------------------------------


 -------------------------------------------------------------------------------
 -                                                                             -
 -                           R E F E R E N C E S                               -
 -                                                                             -
 -------------------------------------------------------------------------------
 
 CP2K version 2025.1 (Development Version), the CP2K developers group (2025).
 CP2K is freely available from https://www.cp2k.org/ .
 
 T. D. Kuehne, M. Iannuzzi, M. Del Ben, V. V. Rybkin, P. Seewald, F. Stein, T. 
 Laino, R. Z. Khaliullin, O. Schuett, F. Schiffmann, D. Golze, J. Wilhelm, S. 
 Chulkov, M. H. Bani-Hashemian, V. Weber, U. Borstnik, M. Taillefumier, A. S. 
 Jakobovits, A. Lazzaro, H. Pabst, T. Mueller, R. Schade, M. Guidon, S. 
 Andermatt, N. Holmberg, G. K. Schenter, A. Hehn, A. Bussy, F. Belleflamme, G. 
 Tabacchi, A. Gloess, M. Lass, I. Bethune, C. J. Mundy, C. Plessl, M. Watkins, 
 J. VandeVondele, M. Krack, J. Hutter.
 J. Chem. Phys. 152, 194103 (2020).
 CP2K: An electronic structure and molecular dynamics software package - 
 Quickstep: Efficient and accurate electronic structure calculations.
 https://doi.org/10.1063/5.0007045

 O. Schuett, P. Messmer, J. Hutter, J. VandeVondele.
 Electronic Structure Calculations on Graphics Processing Units, 173-190 (2016).
 GPU-Accelerated Sparse Matrix-Matrix Multiplication for Linear Scaling Density 
 Functional Theory.
 https://doi.org/10.1002/9781118670712.ch8

 J. Hutter, M. Iannuzzi, F. Schiffmann, J. VandeVondele.
 WIREs Comput Mol Sci. 4, 15-25 (2014).
 CP2K: atomistic simulations of condensed matter systems.
 https://doi.org/10.1002/wcms.1159

 U. Borstnik, J. VandeVondele, V. Weber, J. Hutter.
 Parallel Comput. 40, 47-58 (2014).
 Sparse matrix multiplication: The distributed block-compressed sparse row 
 library.
 https://doi.org/10.1016/j.parco.2014.03.012

 J. VandeVondele, J. Hutter.
 J. Chem. Phys. 127, 114105 (2007).
 Gaussian basis sets for accurate calculations on molecular systems in gas and 
 condensed phases.
 https://doi.org/10.1063/1.2770708

 J. VandeVondele, M. Krack, F. Mohamed, M. Parrinello, T. Chassaing, J. Hutter.
 Comput. Phys. Commun. 167, 103-128 (2005).
 QUICKSTEP: Fast and accurate density functional calculations using a mixed 
 Gaussian and plane waves approach.
 https://doi.org/10.1016/j.cpc.2004.12.014

 M. Krack.
 Theor. Chem. Acc. 114, 145-152 (2005).
 Pseudopotentials for H to Kr optimized for gradient-corrected 
 exchange-correlation functionals.
 https://doi.org/10.1007/s00214-005-0655-y

 M. Frigo, S. G. Johnson.
 Proc. IEEE 93, 216-231 (2005).
 The design and implementation of FFTW3.
 https://doi.org/10.1109/JPROC.2004.840301

 C. Hartwigsen, S. Goedecker, J. Hutter.
 Phys. Rev. B 58, 3641-3662 (1998).
 Relativistic separable dual-space Gaussian pseudopotentials from H to Rn.
 https://doi.org/10.1103/PhysRevB.58.3641

 G. Lippert, J. Hutter, M. Parrinello.
 Mol. Phys. 92, 477-487 (1997).
 A hybrid Gaussian and plane wave density functional scheme.
 https://doi.org/10.1080/002689797170220

 S. Goedecker, M. Teter, J. Hutter.
 Phys. Rev. B 54, 1703-1710 (1996).
 Separable dual-space Gaussian pseudopotentials.
 https://doi.org/10.1103/PhysRevB.54.1703

 J. P. Perdew, K. Burke, M. Ernzerhof.
 Phys. Rev. Lett. 77, 3865-3868 (1996).
 Generalized gradient approximation made simple.
 https://doi.org/10.1103/PhysRevLett.77.3865


 -------------------------------------------------------------------------------
 -                                                                             -
 -                                T I M I N G                                  -
 -                                                                             -
 -------------------------------------------------------------------------------
 SUBROUTINE                       CALLS  ASD         SELF TIME        TOTAL TIME
                                MAXIMUM       AVERAGE  MAXIMUM  AVERAGE  MAXIMUM
 CP2K                                 1  1.0    0.010    0.013   98.053   98.053
 qs_energies                          1  2.0    0.008    0.050   96.813   96.838
 scf_env_do_scf                       1  3.0    0.000    0.000   95.421   95.422
 scf_env_do_scf_inner_loop           44  4.0    0.008    0.010   95.421   95.422
 do_general_diag_kp                  45  5.9    0.271    0.288   84.981   85.272
 qs_scf_new_mos_kp                   44  5.0    0.000    0.000   83.936   84.243
 dbcsr_complete_redistribute      68674  8.3    3.080    3.265   22.910   24.925
 copy_dbcsr_to_fm                 46146  7.0    0.502    0.545   24.152   24.506
 kpoint_density_transform            44  7.0    0.089    0.095   20.629   20.665
 dbcsr_desymmetrize_deep          91794  7.5    1.763    1.852   12.635   17.385
 rskp_transform                   22824  7.0   12.353   14.023   12.353   14.023
 mp_alltoall_i22                 160468  8.8    5.365   12.557    5.365   12.557
 cp_fm_start_copy_general         68176  7.3    2.107    2.559   11.888   11.965
 cp_cfm_geeig                      1445  6.9    0.015    0.017   10.740   10.932
 copy_fm_to_dbcsr                 22528  8.0    0.142    0.152    8.317   10.329
 cp_cfm_heevd                      1445  7.9    0.002    0.003    8.118    8.263
 cp_cfm_heevd_base                 1445  8.9    8.115    8.261    8.115    8.261
 mp_allgather_i                  136352  8.3    7.157    7.390    7.157    7.390
 transform_dmat                   11264  8.0    5.962    6.816    5.962    6.816
 mp_alltoall_d11v                481404  9.4    6.059    6.351    6.059    6.351
 dbcsr_finalize                  163656  8.8    0.815    0.886    5.883    6.274
 qs_ks_update_qs_env                 44  5.0    0.000    0.000    5.306    5.462
 rebuild_ks_matrix                   44  6.0    0.000    0.000    5.062    5.217
 qs_ks_build_kohn_sham_matrix        44  7.0    0.016    0.017    5.062    5.217
 mp_cart_sub                      92294  9.0    3.998    4.014    3.998    4.014
 hybrid_alltoall_any              91794  8.5    0.389    0.415    3.739    3.993
 dbcsr_merge_all                  68674 10.3    1.768    2.057    3.248    3.594
 fft_wrap_pw1pw2                    797 10.0    0.010    0.012    3.489    3.516
 mp_alltoall_i11v                297816  9.0    3.152    3.343    3.152    3.343
 fft_wrap_pw1pw2_500                530 11.3    0.262    0.267    3.296    3.322
 qs_rho_update_rho_low               45  5.0    0.000    0.000    3.043    3.046
 calculate_rho_elec                  45  6.0    0.100    0.102    3.042    3.046
 fft3d_ps                           797 12.0    1.295    1.329    2.729    2.754
 qs_vxc_create                       44  8.0    0.001    0.001    2.629    2.634
 xc_vxc_pw_create                    44  9.0    0.102    0.104    2.628    2.633
 gspace_mixing                       43  5.0    0.093    0.094    2.376    2.376
 mp_cart_create                   46153  9.0    2.298    2.368    2.298    2.368
 sum_up_and_integrate                44  8.0    0.001    0.001    1.839    1.998
 integrate_v_rspace                  44  9.0    0.015    0.023    1.834    1.993
 broyden_mixing                      43  6.0    1.951    1.974    1.986    1.987
 mp_bcast_iv                     272858  8.3    1.649    1.876    1.649    1.876
 xc_pw_derive                       264 11.0    0.001    0.001    1.695    1.730
 density_rs2pw                       45  7.0    0.002    0.002    1.517    1.720
 cp_fm_finish_copy_general        28308  7.8    1.612    1.632    1.663    1.688
 cp_cfm_triangular_multiply        4335  7.9    1.605    1.622    1.605    1.622
 dbcsr_work_create               160468  8.8    0.986    1.023    1.518    1.567
 grid_collocate_task_list            45  7.0    1.416    1.510    1.416    1.510
 dbcsr_create_new                245224  8.4    1.172    1.239    1.409    1.491
 xc_rho_set_and_dset_create          44 10.0    0.060    0.063    1.412    1.428
 mp_alltoall_z22v                   797 14.0    1.239    1.336    1.239    1.336
 dbcsr_work_destroy_all          160468  9.8    0.758    0.766    1.223    1.239
 kpoint_density_matrices             44  7.0    0.038    0.039    1.136    1.195
 copy_fm_to_dbcsr_bc              22528  9.0    0.324    0.350    1.101    1.157
 xc_pw_divergence                    44 10.0    0.001    0.001    1.102    1.135
 parallel_gemm_fm                  5632  8.0    0.005    0.006    1.062    1.119
 parallel_gemm_fm_gemm             5632  9.0    0.005    0.006    1.056    1.114
 dbcsr_iterator_start            457079  9.1    0.941    0.951    1.096    1.111
 copy_dbcsr_to_fm_bc              46146  8.0    0.528    0.545    1.088    1.109
 cp_fm_gemm                        5632 10.0    1.051    1.108    1.051    1.108
 transfer_rs2pw                     182  8.0    0.002    0.002    0.862    1.075
 potential_pw2rs                     44 10.0    0.005    0.005    1.064    1.068
 dbcsr_copy                       37302  8.0    0.113    0.118    0.933    1.055
 tree_to_linear_d                 68674 11.3    0.979    1.020    0.979    1.020
 create_qs_kind_set                   1  2.0    0.000    0.000    1.010    1.010
 read_qs_kind                         1  3.0    0.613    0.616    1.010    1.010
 dbcsr_data_new                 1718845  9.8    0.951    0.998    0.951    0.998
 dbcsr_data_release             2359512 10.2    0.961    0.989    0.961    0.989
 dbcsr_copy_into_existing         22694 10.0    0.661    0.775    0.795    0.911
 grid_integrate_task_list            44 10.0    0.754    0.902    0.754    0.902
 transfer_rs2pw_500                  47  8.9    0.339    0.363    0.688    0.901
 x_to_yz                            440 13.2    0.115    0.125    0.845    0.866
 dbcsr_destroy                   230616  8.3    0.385    0.398    0.721    0.767
 mp_waitall_1                    282539  8.3    0.466    0.739    0.466    0.739
 transfer_pw2rs                     177 11.0    0.001    0.002    0.727    0.728
 dbcsr_iterator_stop             457079  9.1    0.579    0.584    0.681    0.687
 mp_sendrecv_dv                    1274 10.0    0.450    0.640    0.450    0.640
 yz_to_x                            357 12.8    0.072    0.081    0.581    0.639
 write_kpoints_restart               44  5.0    0.003    0.007    0.629    0.630
 mp_bcast_im                     136352  8.3    0.506    0.578    0.506    0.578
 transfer_pw2rs_500                  45 11.9    0.297    0.301    0.549    0.571
 quick_finalize                   91794  9.5    0.300    0.313    0.526    0.535
 cp_cfm_cholesky_decompose         1445  7.9    0.469    0.492    0.469    0.492
 cp_cfm_triangular_invert          1445  7.9    0.478    0.482    0.478    0.482
 xc_functional_eval                  44 11.0    0.000    0.001    0.457    0.473
 pbe_lda_eval                        44 12.0    0.456    0.473    0.456    0.473
 parser_read_line                134376  4.0    0.044    0.046    0.458    0.461
 kpoint_set_mo_occupation            44  7.0    0.094    0.094    0.331    0.438
 parser_read_line_low               153  5.2    0.048    0.203    0.415    0.417
 mp_comm_free                    138483  8.9    0.365    0.409    0.365    0.409
 broadcast_input_information        153  6.2    0.100    0.107    0.367    0.393
 cp_fm_write_unformatted            498  6.0    0.136    0.343    0.155    0.366
 mp_sum_dm3                          44  8.0    0.237    0.344    0.237    0.344
 mp_isend_dv                      68768  8.3    0.286    0.337    0.286    0.337
 pw_scatter_p                       440 12.2    0.286    0.290    0.286    0.290
 dbcsr_sort_indices              184424 10.9    0.259    0.266    0.259    0.266
 evaluate_core_matrix_traces         44  6.0    0.000    0.000    0.244    0.245
 calculate_ptrace_kp                 88  7.0    0.011    0.012    0.244    0.245
 dbcsr_dot                        14609  8.0    0.102    0.110    0.234    0.236
 dbcsr_set                       130103  8.2    0.130    0.135    0.216    0.228
 dbcsr_reserve_all_blocks         22528 10.0    0.040    0.043    0.201    0.216
 pw_poisson_solve                    44  8.0    0.001    0.001    0.208    0.209
 dbcsr_data_copy_aa2              68674 11.3    0.194    0.205    0.194    0.205
 dbcsr_reserve_blocks             23956 10.7    0.149    0.163    0.174    0.188
 mp_bcast_i_src                     612  7.2    0.152    0.178    0.152    0.178
 dbcsr_iterator_seek             457079 10.1    0.155    0.171    0.155    0.171
 mp_sum_d                         15383  8.8    0.134    0.167    0.134    0.167
 mp_isendrecv_dv                   1239 13.0    0.069    0.162    0.069    0.162
 merge_index                      68674 11.3    0.136    0.158    0.136    0.158
 cp_cfm_scale_and_add_fm           5780  6.9    0.155    0.157    0.155    0.157
 dbcsr_make_index_exist          245224  9.4    0.146    0.156    0.146    0.156
 self_consistency_check              44  5.0    0.011    0.011    0.146    0.155
 transfer_pw2rs_170                  44 12.0    0.060    0.062    0.134    0.152
 transfer_rs2pw_170                  45  9.0    0.059    0.061    0.133    0.140
 fft_wrap_pw1pw2_170                 89 10.5    0.010    0.011    0.131    0.139
 pw_integral_ab_c1d_c1d_gs           44  9.0    0.132    0.134    0.136    0.137
 init_scf_run                         1  3.0    0.000    0.000    0.133    0.135
 scf_env_initial_rho_setup            1  4.0    0.000    0.000    0.133    0.135
 mp_irecv_iv                     272704  8.3    0.017    0.135    0.017    0.135
 cp_sm_mix                         7304  6.0    0.044    0.048    0.117    0.129
 mp_bcast_am_src                    153  7.2    0.099    0.109    0.113    0.122
 pw_gather_p                        357 11.8    0.117    0.121    0.117    0.121
 dbcsr_switch_data_area           91794 10.5    0.082    0.084    0.108    0.110
 cp_fm_cleanup_copy_general       48464  7.0    0.072    0.072    0.107    0.108
 qs_init_subsys                       1  2.0    0.001    0.002    0.100    0.101
 qs_env_setup                         1  3.0    0.000    0.000    0.098    0.098
 qs_env_rebuild_pw_env                2  3.5    0.000    0.000    0.097    0.098
 pw_derive                          396 11.3    0.090    0.097    0.090    0.097
 pw_env_rebuild                       1  5.0    0.000    0.001    0.097    0.097
 mp_isend_iv                     153544  8.3    0.025    0.096    0.025    0.096
 dbcsr_zero                      130103  9.2    0.087    0.094    0.087    0.094
 mp_sum_dv                          339  3.5    0.043    0.094    0.043    0.094
 pw_grid_setup                        4  6.0    0.000    0.000    0.091    0.092
 pw_grid_setup_internal               4  7.0    0.002    0.003    0.091    0.092
 qs_energies_init_hamiltonians        1  3.0    0.000    0.000    0.091    0.091
 pw_copy                            660 10.5    0.083    0.086    0.083    0.086
 mp_max_d                          7306  7.0    0.056    0.077    0.056    0.077
 dbcsr_get_data_size_used        160468  9.8    0.070    0.075    0.070    0.075
 dbcsr_distribution_new           68676  8.6    0.061    0.073    0.061    0.073
 topology_control                     1  2.0    0.000    0.000    0.067    0.067
 mp_irecv_im2                    136352  8.3    0.008    0.066    0.008    0.066
 pw_grid_sort                         4  8.0    0.042    0.043    0.065    0.065
 mp_send_dv                         498  7.0    0.016    0.062    0.016    0.062
 cp_cfm_to_fm                      1445  6.9    0.061    0.062    0.061    0.062
 dbcsr_make_dbcsr_index          184424 10.9    0.055    0.058    0.055    0.058
 cp_cfm_to_cfm_columns             1445  7.9    0.054    0.056    0.054    0.056
 qs_env_update_s_mstruct              1  4.0    0.000    0.000    0.049    0.053
 pw_poisson_set                      45  8.9    0.001    0.001    0.051    0.052
 scf_post_calculation_gpw             1  3.0    0.000    0.000    0.050    0.050
 write_available_results              1  4.0    0.000    0.000    0.050    0.050
 write_mo_free_results                1  5.0    0.003    0.003    0.050    0.050
 restraint_control                    1  2.0    0.000    0.000    0.025    0.049
 mp_sum_i                             4  2.8    0.024    0.049    0.024    0.049
 calculate_rho_core                   1  5.0    0.003    0.003    0.042    0.048
 read_cell_cif                        2  4.5    0.002    0.004    0.045    0.046
 mp_isend_im2                     76772  8.3    0.011    0.044    0.011    0.044
 cp_dbcsr_alloc_block_from_nbl     1428  5.5    0.026    0.030    0.040    0.044
 mp_irecv_dv                      68768  8.3    0.040    0.044    0.040    0.044
 pw_copy_from_array                 440 12.2    0.040    0.044    0.040    0.044
 build_core_hamiltonian_matrix        1  4.0    0.001    0.001    0.039    0.043
 coordinate_control                   1  3.0    0.000    0.001    0.041    0.041
 coordinate_control_READ_COORDI       1  4.0    0.000    0.000    0.041    0.041
 read_coordinate_cif                  1  5.0    0.002    0.002    0.041    0.041
 mixing_init                          1  5.0    0.040    0.041    0.041    0.041
 fft_wrap_pw1pw2_60                  89 10.5    0.002    0.002    0.037    0.039
 transfer_pw2rs_60                   44 12.0    0.012    0.012    0.034    0.037
 cp_fm_to_fm_matrix                2816  8.0    0.035    0.036    0.035    0.036
 mp_sum_dm                           43  7.0    0.018    0.035    0.018    0.035
 pw_axpy                            444  9.3    0.033    0.035    0.033    0.035
 pw_copy_to_array                   357 11.8    0.030    0.033    0.030    0.033
 transfer_rs2pw_60                   45  9.0    0.010    0.010    0.030    0.033
 calculate_hirshfeld_normalizat       1  6.0    0.007    0.008    0.024    0.024
 cp_fm_create                       467  4.1    0.024    0.024    0.024    0.024
 sort_shells                          4  9.0    0.023    0.024    0.023    0.024
 mp_recv_dv                        1494  7.0    0.003    0.023    0.003    0.023
 hirshfeld_integration                1  6.0    0.008    0.008    0.021    0.021
 pw_zero                            221 10.4    0.017    0.020    0.017    0.020
 kpoint_initialize_mos                2  2.5    0.000    0.000    0.016    0.016
 pw_grid_assign                       4  8.0    0.014    0.015    0.015    0.015
 fft_wrap_pw1pw2_20                  89 10.5    0.001    0.001    0.013    0.014
 mixing_allocate                      1  3.0    0.001    0.001    0.012    0.013
 transfer_pw2rs_20                   44 12.0    0.004    0.004    0.010    0.010
 mp_sum_l                           429  2.1    0.008    0.010    0.008    0.010
 transfer_rs2pw_20                   45  9.0    0.003    0.003    0.009    0.010
 build_overlap_matrix_low             1  5.0    0.003    0.003    0.009    0.010
 -------------------------------------------------------------------------------

 The number of warnings for this run is : 1
 
 -------------------------------------------------------------------------------
  **** **** ******  **  PROGRAM ENDED AT                 2025-08-03 20:49:19.339
 ***** ** ***  *** **   PROGRAM RAN ON                              i04r10c05s01
 **    ****   ******    PROGRAM RAN BY                                   di38fab
 ***** **    ** ** **   PROGRAM PROCESS ID                               2695485
  **** **  *******  **  PROGRAM STOPPED IN /hppfs/scratch/04/di38fab/09_GTH/Delt
                                           a_Set/Cl/TZVP-MOLOPT-PBE-GTH/8x8x8
