 DBCSR| CPU Multiplication driver                                           BLAS (U)
 DBCSR| Multrec recursion limit                                              512 (U)
 DBCSR| Multiplication stack size                                           1000 (D)
 DBCSR| Maximum elements for images                                    UNLIMITED (U)
 DBCSR| Multiplicative factor virtual images                                   1 (U)
 DBCSR| Use multiplication densification                                       T (D)
 DBCSR| Multiplication size stacks                                             3 (U)
 DBCSR| Use memory pool for CPU allocation                                     F (U)
 DBCSR| Number of 3D layers                                               SINGLE (U)
 DBCSR| Use MPI memory allocation                                              F (U)
 DBCSR| Use RMA algorithm                                                      F (U)
 DBCSR| Use Communication thread                                               T (U)
 DBCSR| Communication thread load                                             45 (D)
 DBCSR| MPI: My process id                                                     0
 DBCSR| MPI: Number of processes                                               8
 DBCSR| OMP: Current number of threads                                        12
 DBCSR| OMP: Max number of threads                                            12
 DBCSR| Split modifier for TAS multiplication algorithm                  1.0E+00 (U)


  **** **** ******  **  PROGRAM STARTED AT               2025-08-04 18:12:50.772
 ***** ** ***  *** **   PROGRAM STARTED ON                          i04r10c01s08
 **    ****   ******    PROGRAM STARTED BY                               di38fab
 ***** **    ** ** **   PROGRAM PROCESS ID                               2432450
  **** **  *******  **  PROGRAM STARTED IN /hppfs/scratch/04/di38fab/09_GTH/Delt
                                           a_Set/Zr/aug-SZV-MOLOPT-GTH-tier-1/8x
                                           8x8

 CP2K| version string:                 CP2K version 2025.1 (Development Version)
 CP2K| source code revision number:                                  git:3130539
 CP2K| cp2kflags: omp libint fftw3 libxc parallel scalapack max_contr=4         
 CP2K| is freely available from                            https://www.cp2k.org/
 CP2K| Program compiled at                         Tue Jun  3 16:14:32 CEST 2025
 CP2K| Program compiled on                                               login01
 CP2K| Program compiled for                                        Supermuc-foss
 CP2K| Data directory path                  /hppfs/work/pn36zo/di38fab/cp2k/data
 CP2K| Input file name                                                    GW.inp

 GLOBAL| Force Environment number                                              1
 GLOBAL| Basis set file name            /hppfs/scratch/04/di38fab/09_GTH/BASIS_A
 GLOBAL| Potential file name            /hppfs/work/pn36zo/di38fab/cp2k/data/GTH
 GLOBAL| MM Potential file name                                     MM_POTENTIAL
 GLOBAL| Coordinate file name                                             Zr.cif
 GLOBAL| Method name                                                        CP2K
 GLOBAL| Project name                                                       WSe2
 GLOBAL| Run type                                                         ENERGY
 GLOBAL| FFT library                                                       FFTW3
 GLOBAL| Diagonalization library                                       ScaLAPACK
 GLOBAL| Cholesky decomposition library                                ScaLAPACK
 GLOBAL| DGEMM library                                                      BLAS
 GLOBAL| Orthonormality check for eigenvectors                          DISABLED
 GLOBAL| Matrix multiplication library                                 ScaLAPACK
 GLOBAL| All-to-all communication in single precision                          F
 GLOBAL| FFTs using library dependent lengths                                  F
 GLOBAL| Grid backend                                                       AUTO
 GLOBAL| Global print level                                               MEDIUM
 GLOBAL| MPI I/O enabled                                                       T
 GLOBAL| Total number of message passing processes                             8
 GLOBAL| Number of threads for this process                                   12
 GLOBAL| This output is from process                                           0
 GLOBAL| OpenMP stack size per thread (OMP_STACKSIZE)                    default
 GLOBAL| CPU model name             Intel(R) Xeon(R) Platinum 8174 CPU @ 3.10GHz

 MEMORY| system memory details [Kb]
 MEMORY|                        rank 0           min           max       average
 MEMORY| MemTotal             98436664      98436664      98436664      98436664
 MEMORY| MemFree              84595896      84530552      84595896      84563224
 MEMORY| Buffers                     0             0             0             0
 MEMORY| Cached                2393756       2376444       2393756       2385100
 MEMORY| Slab                  1310780       1310780       1323256       1317018
 MEMORY| SReclaimable           283908        280780        283908        282344
 MEMORY| MemLikelyFree        87273560      87187776      87273560      87230668


 *** Fundamental physical constants (SI units) ***

 *** Literature: B. J. Mohr and B. N. Taylor,
 ***             CODATA recommended values of the fundamental physical
 ***             constants: 2006, Web Version 5.1
 ***             http://physics.nist.gov/constants

 Speed of light in vacuum [m/s]                             2.99792458000000E+08
 Magnetic constant or permeability of vacuum [N/A**2]       1.25663706143592E-06
 Electric constant or permittivity of vacuum [F/m]          8.85418781762039E-12
 Planck constant (h) [J*s]                                  6.62606896000000E-34
 Planck constant (h-bar) [J*s]                              1.05457162825177E-34
 Elementary charge [C]                                      1.60217648700000E-19
 Electron mass [kg]                                         9.10938215000000E-31
 Electron g factor [ ]                                     -2.00231930436220E+00
 Proton mass [kg]                                           1.67262163700000E-27
 Fine-structure constant                                    7.29735253760000E-03
 Rydberg constant [1/m]                                     1.09737315685270E+07
 Avogadro constant [1/mol]                                  6.02214179000000E+23
 Boltzmann constant [J/K]                                   1.38065040000000E-23
 Atomic mass unit [kg]                                      1.66053878200000E-27
 Bohr radius [m]                                            5.29177208590000E-11

 *** Conversion factors ***

 [u] -> [a.u.]                                              1.82288848426455E+03
 [Angstrom] -> [Bohr] = [a.u.]                              1.88972613288564E+00
 [a.u.] = [Bohr] -> [Angstrom]                              5.29177208590000E-01
 [a.u.] -> [s]                                              2.41888432650478E-17
 [a.u.] -> [fs]                                             2.41888432650478E-02
 [a.u.] -> [J]                                              4.35974393937059E-18
 [a.u.] -> [N]                                              8.23872205491840E-08
 [a.u.] -> [K]                                              3.15774647902944E+05
 [a.u.] -> [kJ/mol]                                         2.62549961709828E+03
 [a.u.] -> [kcal/mol]                                       6.27509468713739E+02
 [a.u.] -> [Pa]                                             2.94210107994716E+13
 [a.u.] -> [bar]                                            2.94210107994716E+08
 [a.u.] -> [atm]                                            2.90362800883016E+08
 [a.u.] -> [eV]                                             2.72113838565563E+01
 [a.u.] -> [Hz]                                             6.57968392072181E+15
 [a.u.] -> [1/cm] (wave numbers)                            2.19474631370540E+05
 [a.u./Bohr**2] -> [1/cm]                                   5.14048714338585E+03
 

 CELL_TOP| Volume [angstrom^3]:                                        47.063447
 CELL_TOP| Vector a [angstrom     3.236     0.000     0.000   |a| =     3.236030
 CELL_TOP| Vector b [angstrom     1.618     2.802     0.000   |b| =     3.236030
 CELL_TOP| Vector c [angstrom     0.000     0.000     5.190   |c| =     5.189530
 CELL_TOP| Angle (b,c), alpha [degree]:                                90.000000
 CELL_TOP| Angle (a,c), beta  [degree]:                                90.000000
 CELL_TOP| Angle (a,b), gamma [degree]:                                60.000000
 CELL_TOP| Numerically orthorhombic:                                          NO
 CELL_TOP| Periodicity                                                       XYZ

 CELL_CIF| Volume [angstrom^3]:                                        47.063447
 CELL_CIF| Vector a [angstrom     3.236     0.000     0.000   |a| =     3.236030
 CELL_CIF| Vector b [angstrom     1.618     2.802     0.000   |b| =     3.236030
 CELL_CIF| Vector c [angstrom     0.000     0.000     5.190   |c| =     5.189530
 CELL_CIF| Angle (b,c), alpha [degree]:                                90.000000
 CELL_CIF| Angle (a,c), beta  [degree]:                                90.000000
 CELL_CIF| Angle (a,b), gamma [degree]:                                60.000000
 CELL_CIF| Numerically orthorhombic:                                          NO
 CELL_CIF| Periodicity                                                       XYZ

 GENERATE|  Preliminary Number of Bonds generated:                             0
 GENERATE|  Achieved consistency in connectivity generation.

 CELL| Volume [angstrom^3]:                                            47.063447
 CELL| Vector a [angstrom]:       3.236     0.000     0.000   |a| =     3.236030
 CELL| Vector b [angstrom]:       1.618     2.802     0.000   |b| =     3.236030
 CELL| Vector c [angstrom]:       0.000     0.000     5.190   |c| =     5.189530
 CELL| Angle (b,c), alpha [degree]:                                    90.000000
 CELL| Angle (a,c), beta  [degree]:                                    90.000000
 CELL| Angle (a,b), gamma [degree]:                                    60.000000
 CELL| Numerically orthorhombic:                                              NO
 CELL| Periodicity                                                           XYZ

 CELL_REF| Volume [angstrom^3]:                                        47.063447
 CELL_REF| Vector a [angstrom     3.236     0.000     0.000   |a| =     3.236030
 CELL_REF| Vector b [angstrom     1.618     2.802     0.000   |b| =     3.236030
 CELL_REF| Vector c [angstrom     0.000     0.000     5.190   |c| =     5.189530
 CELL_REF| Angle (b,c), alpha [degree]:                                90.000000
 CELL_REF| Angle (a,c), beta  [degree]:                                90.000000
 CELL_REF| Angle (a,b), gamma [degree]:                                60.000000
 CELL_REF| Numerically orthorhombic:                                          NO
 CELL_REF| Periodicity                                                       XYZ

 *** WARNING in cryssym.F:180 :: Symmetry library SPGLIB not available ***


 *******************************************************************************
                                    Kpoints
 *******************************************************************************
 BRILLOUIN| K-point scheme                                        Monkhorst-Pack
 BRILLOUIN| K-Point grid                                             8    8    8
 BRILLOUIN| Accuracy in Symmetry determination                      0.100000E-05
 BRILLOUIN| K-Point point group symmetrization                               OFF
 BRILLOUIN| Wavefunction type                                            COMPLEX
 BRILLOUIN| List of Kpoints [2 Pi/Bohr]                                      256
 BRILLOUIN| Number           Weight            X              Y              Z
 BRILLOUIN|     1           0.00391       -0.43750       -0.43750       -0.43750
 BRILLOUIN|     2           0.00391       -0.43750       -0.43750       -0.31250
 BRILLOUIN|     3           0.00391       -0.43750       -0.43750       -0.18750
 BRILLOUIN|     4           0.00391       -0.43750       -0.43750       -0.06250
 BRILLOUIN|     5           0.00391       -0.43750       -0.43750        0.06250
 BRILLOUIN|     6           0.00391       -0.43750       -0.43750        0.18750
 BRILLOUIN|     7           0.00391       -0.43750       -0.43750        0.31250
 BRILLOUIN|     8           0.00391       -0.43750       -0.43750        0.43750
 BRILLOUIN|     9           0.00391       -0.43750       -0.31250       -0.43750
 BRILLOUIN|    10           0.00391       -0.43750       -0.31250       -0.31250
 BRILLOUIN|    11           0.00391       -0.43750       -0.31250       -0.18750
 BRILLOUIN|    12           0.00391       -0.43750       -0.31250       -0.06250
 BRILLOUIN|    13           0.00391       -0.43750       -0.31250        0.06250
 BRILLOUIN|    14           0.00391       -0.43750       -0.31250        0.18750
 BRILLOUIN|    15           0.00391       -0.43750       -0.31250        0.31250
 BRILLOUIN|    16           0.00391       -0.43750       -0.31250        0.43750
 BRILLOUIN|    17           0.00391       -0.43750       -0.18750       -0.43750
 BRILLOUIN|    18           0.00391       -0.43750       -0.18750       -0.31250
 BRILLOUIN|    19           0.00391       -0.43750       -0.18750       -0.18750
 BRILLOUIN|    20           0.00391       -0.43750       -0.18750       -0.06250
 BRILLOUIN|    21           0.00391       -0.43750       -0.18750        0.06250
 BRILLOUIN|    22           0.00391       -0.43750       -0.18750        0.18750
 BRILLOUIN|    23           0.00391       -0.43750       -0.18750        0.31250
 BRILLOUIN|    24           0.00391       -0.43750       -0.18750        0.43750
 BRILLOUIN|    25           0.00391       -0.43750       -0.06250       -0.43750
 BRILLOUIN|    26           0.00391       -0.43750       -0.06250       -0.31250
 BRILLOUIN|    27           0.00391       -0.43750       -0.06250       -0.18750
 BRILLOUIN|    28           0.00391       -0.43750       -0.06250       -0.06250
 BRILLOUIN|    29           0.00391       -0.43750       -0.06250        0.06250
 BRILLOUIN|    30           0.00391       -0.43750       -0.06250        0.18750
 BRILLOUIN|    31           0.00391       -0.43750       -0.06250        0.31250
 BRILLOUIN|    32           0.00391       -0.43750       -0.06250        0.43750
 BRILLOUIN|    33           0.00391       -0.43750        0.06250       -0.43750
 BRILLOUIN|    34           0.00391       -0.43750        0.06250       -0.31250
 BRILLOUIN|    35           0.00391       -0.43750        0.06250       -0.18750
 BRILLOUIN|    36           0.00391       -0.43750        0.06250       -0.06250
 BRILLOUIN|    37           0.00391       -0.43750        0.06250        0.06250
 BRILLOUIN|    38           0.00391       -0.43750        0.06250        0.18750
 BRILLOUIN|    39           0.00391       -0.43750        0.06250        0.31250
 BRILLOUIN|    40           0.00391       -0.43750        0.06250        0.43750
 BRILLOUIN|    41           0.00391       -0.43750        0.18750       -0.43750
 BRILLOUIN|    42           0.00391       -0.43750        0.18750       -0.31250
 BRILLOUIN|    43           0.00391       -0.43750        0.18750       -0.18750
 BRILLOUIN|    44           0.00391       -0.43750        0.18750       -0.06250
 BRILLOUIN|    45           0.00391       -0.43750        0.18750        0.06250
 BRILLOUIN|    46           0.00391       -0.43750        0.18750        0.18750
 BRILLOUIN|    47           0.00391       -0.43750        0.18750        0.31250
 BRILLOUIN|    48           0.00391       -0.43750        0.18750        0.43750
 BRILLOUIN|    49           0.00391       -0.43750        0.31250       -0.43750
 BRILLOUIN|    50           0.00391       -0.43750        0.31250       -0.31250
 BRILLOUIN|    51           0.00391       -0.43750        0.31250       -0.18750
 BRILLOUIN|    52           0.00391       -0.43750        0.31250       -0.06250
 BRILLOUIN|    53           0.00391       -0.43750        0.31250        0.06250
 BRILLOUIN|    54           0.00391       -0.43750        0.31250        0.18750
 BRILLOUIN|    55           0.00391       -0.43750        0.31250        0.31250
 BRILLOUIN|    56           0.00391       -0.43750        0.31250        0.43750
 BRILLOUIN|    57           0.00391       -0.43750        0.43750       -0.43750
 BRILLOUIN|    58           0.00391       -0.43750        0.43750       -0.31250
 BRILLOUIN|    59           0.00391       -0.43750        0.43750       -0.18750
 BRILLOUIN|    60           0.00391       -0.43750        0.43750       -0.06250
 BRILLOUIN|    61           0.00391       -0.43750        0.43750        0.06250
 BRILLOUIN|    62           0.00391       -0.43750        0.43750        0.18750
 BRILLOUIN|    63           0.00391       -0.43750        0.43750        0.31250
 BRILLOUIN|    64           0.00391       -0.43750        0.43750        0.43750
 BRILLOUIN|    65           0.00391       -0.31250       -0.43750       -0.43750
 BRILLOUIN|    66           0.00391       -0.31250       -0.43750       -0.31250
 BRILLOUIN|    67           0.00391       -0.31250       -0.43750       -0.18750
 BRILLOUIN|    68           0.00391       -0.31250       -0.43750       -0.06250
 BRILLOUIN|    69           0.00391       -0.31250       -0.43750        0.06250
 BRILLOUIN|    70           0.00391       -0.31250       -0.43750        0.18750
 BRILLOUIN|    71           0.00391       -0.31250       -0.43750        0.31250
 BRILLOUIN|    72           0.00391       -0.31250       -0.43750        0.43750
 BRILLOUIN|    73           0.00391       -0.31250       -0.31250       -0.43750
 BRILLOUIN|    74           0.00391       -0.31250       -0.31250       -0.31250
 BRILLOUIN|    75           0.00391       -0.31250       -0.31250       -0.18750
 BRILLOUIN|    76           0.00391       -0.31250       -0.31250       -0.06250
 BRILLOUIN|    77           0.00391       -0.31250       -0.31250        0.06250
 BRILLOUIN|    78           0.00391       -0.31250       -0.31250        0.18750
 BRILLOUIN|    79           0.00391       -0.31250       -0.31250        0.31250
 BRILLOUIN|    80           0.00391       -0.31250       -0.31250        0.43750
 BRILLOUIN|    81           0.00391       -0.31250       -0.18750       -0.43750
 BRILLOUIN|    82           0.00391       -0.31250       -0.18750       -0.31250
 BRILLOUIN|    83           0.00391       -0.31250       -0.18750       -0.18750
 BRILLOUIN|    84           0.00391       -0.31250       -0.18750       -0.06250
 BRILLOUIN|    85           0.00391       -0.31250       -0.18750        0.06250
 BRILLOUIN|    86           0.00391       -0.31250       -0.18750        0.18750
 BRILLOUIN|    87           0.00391       -0.31250       -0.18750        0.31250
 BRILLOUIN|    88           0.00391       -0.31250       -0.18750        0.43750
 BRILLOUIN|    89           0.00391       -0.31250       -0.06250       -0.43750
 BRILLOUIN|    90           0.00391       -0.31250       -0.06250       -0.31250
 BRILLOUIN|    91           0.00391       -0.31250       -0.06250       -0.18750
 BRILLOUIN|    92           0.00391       -0.31250       -0.06250       -0.06250
 BRILLOUIN|    93           0.00391       -0.31250       -0.06250        0.06250
 BRILLOUIN|    94           0.00391       -0.31250       -0.06250        0.18750
 BRILLOUIN|    95           0.00391       -0.31250       -0.06250        0.31250
 BRILLOUIN|    96           0.00391       -0.31250       -0.06250        0.43750
 BRILLOUIN|    97           0.00391       -0.31250        0.06250       -0.43750
 BRILLOUIN|    98           0.00391       -0.31250        0.06250       -0.31250
 BRILLOUIN|    99           0.00391       -0.31250        0.06250       -0.18750
 BRILLOUIN|   100           0.00391       -0.31250        0.06250       -0.06250
 BRILLOUIN|   101           0.00391       -0.31250        0.06250        0.06250
 BRILLOUIN|   102           0.00391       -0.31250        0.06250        0.18750
 BRILLOUIN|   103           0.00391       -0.31250        0.06250        0.31250
 BRILLOUIN|   104           0.00391       -0.31250        0.06250        0.43750
 BRILLOUIN|   105           0.00391       -0.31250        0.18750       -0.43750
 BRILLOUIN|   106           0.00391       -0.31250        0.18750       -0.31250
 BRILLOUIN|   107           0.00391       -0.31250        0.18750       -0.18750
 BRILLOUIN|   108           0.00391       -0.31250        0.18750       -0.06250
 BRILLOUIN|   109           0.00391       -0.31250        0.18750        0.06250
 BRILLOUIN|   110           0.00391       -0.31250        0.18750        0.18750
 BRILLOUIN|   111           0.00391       -0.31250        0.18750        0.31250
 BRILLOUIN|   112           0.00391       -0.31250        0.18750        0.43750
 BRILLOUIN|   113           0.00391       -0.31250        0.31250       -0.43750
 BRILLOUIN|   114           0.00391       -0.31250        0.31250       -0.31250
 BRILLOUIN|   115           0.00391       -0.31250        0.31250       -0.18750
 BRILLOUIN|   116           0.00391       -0.31250        0.31250       -0.06250
 BRILLOUIN|   117           0.00391       -0.31250        0.31250        0.06250
 BRILLOUIN|   118           0.00391       -0.31250        0.31250        0.18750
 BRILLOUIN|   119           0.00391       -0.31250        0.31250        0.31250
 BRILLOUIN|   120           0.00391       -0.31250        0.31250        0.43750
 BRILLOUIN|   121           0.00391       -0.31250        0.43750       -0.43750
 BRILLOUIN|   122           0.00391       -0.31250        0.43750       -0.31250
 BRILLOUIN|   123           0.00391       -0.31250        0.43750       -0.18750
 BRILLOUIN|   124           0.00391       -0.31250        0.43750       -0.06250
 BRILLOUIN|   125           0.00391       -0.31250        0.43750        0.06250
 BRILLOUIN|   126           0.00391       -0.31250        0.43750        0.18750
 BRILLOUIN|   127           0.00391       -0.31250        0.43750        0.31250
 BRILLOUIN|   128           0.00391       -0.31250        0.43750        0.43750
 BRILLOUIN|   129           0.00391       -0.18750       -0.43750       -0.43750
 BRILLOUIN|   130           0.00391       -0.18750       -0.43750       -0.31250
 BRILLOUIN|   131           0.00391       -0.18750       -0.43750       -0.18750
 BRILLOUIN|   132           0.00391       -0.18750       -0.43750       -0.06250
 BRILLOUIN|   133           0.00391       -0.18750       -0.43750        0.06250
 BRILLOUIN|   134           0.00391       -0.18750       -0.43750        0.18750
 BRILLOUIN|   135           0.00391       -0.18750       -0.43750        0.31250
 BRILLOUIN|   136           0.00391       -0.18750       -0.43750        0.43750
 BRILLOUIN|   137           0.00391       -0.18750       -0.31250       -0.43750
 BRILLOUIN|   138           0.00391       -0.18750       -0.31250       -0.31250
 BRILLOUIN|   139           0.00391       -0.18750       -0.31250       -0.18750
 BRILLOUIN|   140           0.00391       -0.18750       -0.31250       -0.06250
 BRILLOUIN|   141           0.00391       -0.18750       -0.31250        0.06250
 BRILLOUIN|   142           0.00391       -0.18750       -0.31250        0.18750
 BRILLOUIN|   143           0.00391       -0.18750       -0.31250        0.31250
 BRILLOUIN|   144           0.00391       -0.18750       -0.31250        0.43750
 BRILLOUIN|   145           0.00391       -0.18750       -0.18750       -0.43750
 BRILLOUIN|   146           0.00391       -0.18750       -0.18750       -0.31250
 BRILLOUIN|   147           0.00391       -0.18750       -0.18750       -0.18750
 BRILLOUIN|   148           0.00391       -0.18750       -0.18750       -0.06250
 BRILLOUIN|   149           0.00391       -0.18750       -0.18750        0.06250
 BRILLOUIN|   150           0.00391       -0.18750       -0.18750        0.18750
 BRILLOUIN|   151           0.00391       -0.18750       -0.18750        0.31250
 BRILLOUIN|   152           0.00391       -0.18750       -0.18750        0.43750
 BRILLOUIN|   153           0.00391       -0.18750       -0.06250       -0.43750
 BRILLOUIN|   154           0.00391       -0.18750       -0.06250       -0.31250
 BRILLOUIN|   155           0.00391       -0.18750       -0.06250       -0.18750
 BRILLOUIN|   156           0.00391       -0.18750       -0.06250       -0.06250
 BRILLOUIN|   157           0.00391       -0.18750       -0.06250        0.06250
 BRILLOUIN|   158           0.00391       -0.18750       -0.06250        0.18750
 BRILLOUIN|   159           0.00391       -0.18750       -0.06250        0.31250
 BRILLOUIN|   160           0.00391       -0.18750       -0.06250        0.43750
 BRILLOUIN|   161           0.00391       -0.18750        0.06250       -0.43750
 BRILLOUIN|   162           0.00391       -0.18750        0.06250       -0.31250
 BRILLOUIN|   163           0.00391       -0.18750        0.06250       -0.18750
 BRILLOUIN|   164           0.00391       -0.18750        0.06250       -0.06250
 BRILLOUIN|   165           0.00391       -0.18750        0.06250        0.06250
 BRILLOUIN|   166           0.00391       -0.18750        0.06250        0.18750
 BRILLOUIN|   167           0.00391       -0.18750        0.06250        0.31250
 BRILLOUIN|   168           0.00391       -0.18750        0.06250        0.43750
 BRILLOUIN|   169           0.00391       -0.18750        0.18750       -0.43750
 BRILLOUIN|   170           0.00391       -0.18750        0.18750       -0.31250
 BRILLOUIN|   171           0.00391       -0.18750        0.18750       -0.18750
 BRILLOUIN|   172           0.00391       -0.18750        0.18750       -0.06250
 BRILLOUIN|   173           0.00391       -0.18750        0.18750        0.06250
 BRILLOUIN|   174           0.00391       -0.18750        0.18750        0.18750
 BRILLOUIN|   175           0.00391       -0.18750        0.18750        0.31250
 BRILLOUIN|   176           0.00391       -0.18750        0.18750        0.43750
 BRILLOUIN|   177           0.00391       -0.18750        0.31250       -0.43750
 BRILLOUIN|   178           0.00391       -0.18750        0.31250       -0.31250
 BRILLOUIN|   179           0.00391       -0.18750        0.31250       -0.18750
 BRILLOUIN|   180           0.00391       -0.18750        0.31250       -0.06250
 BRILLOUIN|   181           0.00391       -0.18750        0.31250        0.06250
 BRILLOUIN|   182           0.00391       -0.18750        0.31250        0.18750
 BRILLOUIN|   183           0.00391       -0.18750        0.31250        0.31250
 BRILLOUIN|   184           0.00391       -0.18750        0.31250        0.43750
 BRILLOUIN|   185           0.00391       -0.18750        0.43750       -0.43750
 BRILLOUIN|   186           0.00391       -0.18750        0.43750       -0.31250
 BRILLOUIN|   187           0.00391       -0.18750        0.43750       -0.18750
 BRILLOUIN|   188           0.00391       -0.18750        0.43750       -0.06250
 BRILLOUIN|   189           0.00391       -0.18750        0.43750        0.06250
 BRILLOUIN|   190           0.00391       -0.18750        0.43750        0.18750
 BRILLOUIN|   191           0.00391       -0.18750        0.43750        0.31250
 BRILLOUIN|   192           0.00391       -0.18750        0.43750        0.43750
 BRILLOUIN|   193           0.00391       -0.06250       -0.43750       -0.43750
 BRILLOUIN|   194           0.00391       -0.06250       -0.43750       -0.31250
 BRILLOUIN|   195           0.00391       -0.06250       -0.43750       -0.18750
 BRILLOUIN|   196           0.00391       -0.06250       -0.43750       -0.06250
 BRILLOUIN|   197           0.00391       -0.06250       -0.43750        0.06250
 BRILLOUIN|   198           0.00391       -0.06250       -0.43750        0.18750
 BRILLOUIN|   199           0.00391       -0.06250       -0.43750        0.31250
 BRILLOUIN|   200           0.00391       -0.06250       -0.43750        0.43750
 BRILLOUIN|   201           0.00391       -0.06250       -0.31250       -0.43750
 BRILLOUIN|   202           0.00391       -0.06250       -0.31250       -0.31250
 BRILLOUIN|   203           0.00391       -0.06250       -0.31250       -0.18750
 BRILLOUIN|   204           0.00391       -0.06250       -0.31250       -0.06250
 BRILLOUIN|   205           0.00391       -0.06250       -0.31250        0.06250
 BRILLOUIN|   206           0.00391       -0.06250       -0.31250        0.18750
 BRILLOUIN|   207           0.00391       -0.06250       -0.31250        0.31250
 BRILLOUIN|   208           0.00391       -0.06250       -0.31250        0.43750
 BRILLOUIN|   209           0.00391       -0.06250       -0.18750       -0.43750
 BRILLOUIN|   210           0.00391       -0.06250       -0.18750       -0.31250
 BRILLOUIN|   211           0.00391       -0.06250       -0.18750       -0.18750
 BRILLOUIN|   212           0.00391       -0.06250       -0.18750       -0.06250
 BRILLOUIN|   213           0.00391       -0.06250       -0.18750        0.06250
 BRILLOUIN|   214           0.00391       -0.06250       -0.18750        0.18750
 BRILLOUIN|   215           0.00391       -0.06250       -0.18750        0.31250
 BRILLOUIN|   216           0.00391       -0.06250       -0.18750        0.43750
 BRILLOUIN|   217           0.00391       -0.06250       -0.06250       -0.43750
 BRILLOUIN|   218           0.00391       -0.06250       -0.06250       -0.31250
 BRILLOUIN|   219           0.00391       -0.06250       -0.06250       -0.18750
 BRILLOUIN|   220           0.00391       -0.06250       -0.06250       -0.06250
 BRILLOUIN|   221           0.00391       -0.06250       -0.06250        0.06250
 BRILLOUIN|   222           0.00391       -0.06250       -0.06250        0.18750
 BRILLOUIN|   223           0.00391       -0.06250       -0.06250        0.31250
 BRILLOUIN|   224           0.00391       -0.06250       -0.06250        0.43750
 BRILLOUIN|   225           0.00391       -0.06250        0.06250       -0.43750
 BRILLOUIN|   226           0.00391       -0.06250        0.06250       -0.31250
 BRILLOUIN|   227           0.00391       -0.06250        0.06250       -0.18750
 BRILLOUIN|   228           0.00391       -0.06250        0.06250       -0.06250
 BRILLOUIN|   229           0.00391       -0.06250        0.06250        0.06250
 BRILLOUIN|   230           0.00391       -0.06250        0.06250        0.18750
 BRILLOUIN|   231           0.00391       -0.06250        0.06250        0.31250
 BRILLOUIN|   232           0.00391       -0.06250        0.06250        0.43750
 BRILLOUIN|   233           0.00391       -0.06250        0.18750       -0.43750
 BRILLOUIN|   234           0.00391       -0.06250        0.18750       -0.31250
 BRILLOUIN|   235           0.00391       -0.06250        0.18750       -0.18750
 BRILLOUIN|   236           0.00391       -0.06250        0.18750       -0.06250
 BRILLOUIN|   237           0.00391       -0.06250        0.18750        0.06250
 BRILLOUIN|   238           0.00391       -0.06250        0.18750        0.18750
 BRILLOUIN|   239           0.00391       -0.06250        0.18750        0.31250
 BRILLOUIN|   240           0.00391       -0.06250        0.18750        0.43750
 BRILLOUIN|   241           0.00391       -0.06250        0.31250       -0.43750
 BRILLOUIN|   242           0.00391       -0.06250        0.31250       -0.31250
 BRILLOUIN|   243           0.00391       -0.06250        0.31250       -0.18750
 BRILLOUIN|   244           0.00391       -0.06250        0.31250       -0.06250
 BRILLOUIN|   245           0.00391       -0.06250        0.31250        0.06250
 BRILLOUIN|   246           0.00391       -0.06250        0.31250        0.18750
 BRILLOUIN|   247           0.00391       -0.06250        0.31250        0.31250
 BRILLOUIN|   248           0.00391       -0.06250        0.31250        0.43750
 BRILLOUIN|   249           0.00391       -0.06250        0.43750       -0.43750
 BRILLOUIN|   250           0.00391       -0.06250        0.43750       -0.31250
 BRILLOUIN|   251           0.00391       -0.06250        0.43750       -0.18750
 BRILLOUIN|   252           0.00391       -0.06250        0.43750       -0.06250
 BRILLOUIN|   253           0.00391       -0.06250        0.43750        0.06250
 BRILLOUIN|   254           0.00391       -0.06250        0.43750        0.18750
 BRILLOUIN|   255           0.00391       -0.06250        0.43750        0.31250
 BRILLOUIN|   256           0.00391       -0.06250        0.43750        0.43750
 *******************************************************************************

 *******************************************************************************
 *******************************************************************************
 **                                                                           **
 **     #####                         ##              ##                      **
 **    ##   ##            ##          ##              ##                      **
 **   ##     ##                       ##            ######                    **
 **   ##     ##  ##   ##  ##   #####  ##  ##   ####   ##    #####    #####    **
 **   ##     ##  ##   ##  ##  ##      ## ##   ##      ##   ##   ##  ##   ##   **
 **   ##  ## ##  ##   ##  ##  ##      ####     ###    ##   ######   ######    **
 **    ##  ###   ##   ##  ##  ##      ## ##      ##   ##   ##       ##        **
 **     #######   #####   ##   #####  ##  ##  ####    ##    #####   ##        **
 **           ##                                                    ##        **
 **                                                                           **
 **                                                ... make the atoms dance   **
 **                                                                           **
 **            Copyright (C) by CP2K developers group (2000-2025)             **
 **                      J. Chem. Phys. 152, 194103 (2020)                    **
 **                                                                           **
 *******************************************************************************

 DFT| Spin restricted Kohn-Sham (RKS) calculation                            RKS
 DFT| Multiplicity                                                             1
 DFT| Number of spin states                                                    1
 DFT| Charge                                                                   0
 DFT| Self-interaction correction (SIC)                                       NO
 DFT| Cutoffs: density                                              1.000000E-10
 DFT|          gradient                                             1.000000E-10
 DFT|          tau                                                  1.000000E-10
 DFT|          cutoff_smoothing_range                               0.000000E+00
 DFT| XC density smoothing                                                  NONE
 DFT| XC derivatives                                                          PW

 FUNCTIONAL| PBE:
 FUNCTIONAL| J.P.Perdew, K.Burke, M.Ernzerhof, Phys. Rev. Letter, vol. 77, n 18,
 FUNCTIONAL|  pp. 3865-3868, (1996) {spin unpolarized}                          


 QS| Method:                                                                 GPW
 QS| Density plane wave grid type                        NON-SPHERICAL FULLSPACE
 QS| Number of grid levels:                                                    4
 QS| Density cutoff [a.u.]:                                                500.0
 QS| Multi grid cutoff [a.u.]: 1) grid level                               500.0
 QS|                           2) grid level                               166.7
 QS|                           3) grid level                                55.6
 QS|                           4) grid level                                18.5
 QS| Grid level progression factor:                                          3.0
 QS| Relative density cutoff [a.u.]:                                        50.0
 QS| Interaction thresholds: eps_pgf_orb:                                1.0E-16
 QS|                         eps_filter_matrix:                          0.0E+00
 QS|                         eps_core_charge:                            1.0E-18
 QS|                         eps_rho_gspace:                             1.0E-16
 QS|                         eps_rho_rspace:                             1.0E-16
 QS|                         eps_gvg_rspace:                             1.0E-08
 QS|                         eps_ppl:                                    1.0E-02
 QS|                         eps_ppnl:                                   1.0E-10


 ATOMIC KIND INFORMATION

  1. Atomic kind: Zr                                    Number of atoms:       2

     Orbital Basis Set                                 aug-SZV-MOLOPT-GTH-tier-1

       Number of orbital shell sets:                                           1
       Number of orbital shells:                                               7
       Number of primitive Cartesian functions:                                8
       Number of Cartesian basis functions:                                   21
       Number of spherical basis functions:                                   19
       Norm type:                                                              2

       Normalised Cartesian orbitals:

                        Set   Shell   Orbital            Exponent    Coefficient

                          1       1    2s                0.046851      -0.000485
                                                         0.078003       0.000000
                                                         0.129869       0.000474
                                                         0.314575      -0.092850
                                                         0.699653      -0.477593
                                                         1.478550      -0.194175
                                                         2.940870       1.053802
                                                         7.568386      -0.292924

                          1       2    3s                0.046851       0.057275
                                                         0.078003       0.000000
                                                         0.129869       0.079936
                                                         0.314575      -0.112324
                                                         0.699653      -0.242646
                                                         1.478550      -0.133469
                                                         2.940870       0.453695
                                                         7.568386      -0.107603

                          1       3    4s                0.046851       0.014263
                                                         0.078003      -0.171514
                                                         0.129869       0.000740
                                                         0.314575       0.287511
                                                         0.699653       0.032333
                                                         1.478550       0.003587
                                                         2.940870       0.000000
                                                         7.568386       0.000000

                          1       4    3px               0.046851      -0.000016
                                                         0.078003       0.000000
                                                         0.129869      -0.002163
                                                         0.314575      -0.102074
                                                         0.699653      -0.527718
                                                         1.478550      -0.729728
                                                         2.940870       1.199939
                                                         7.568386      -0.367041
                          1       4    3py               0.046851      -0.000016
                                                         0.078003       0.000000
                                                         0.129869      -0.002163
                                                         0.314575      -0.102074
                                                         0.699653      -0.527718
                                                         1.478550      -0.729728
                                                         2.940870       1.199939
                                                         7.568386      -0.367041
                          1       4    3pz               0.046851      -0.000016
                                                         0.078003       0.000000
                                                         0.129869      -0.002163
                                                         0.314575      -0.102074
                                                         0.699653      -0.527718
                                                         1.478550      -0.729728
                                                         2.940870       1.199939
                                                         7.568386      -0.367041

                          1       5    4px               0.046851       0.037698
                                                         0.078003      -0.039131
                                                         0.129869       0.054690
                                                         0.314575       0.043317
                                                         0.699653      -0.118840
                                                         1.478550       0.011822
                                                         2.940870       0.000000
                                                         7.568386       0.000000
                          1       5    4py               0.046851       0.037698
                                                         0.078003      -0.039131
                                                         0.129869       0.054690
                                                         0.314575       0.043317
                                                         0.699653      -0.118840
                                                         1.478550       0.011822
                                                         2.940870       0.000000
                                                         7.568386       0.000000
                          1       5    4pz               0.046851       0.037698
                                                         0.078003      -0.039131
                                                         0.129869       0.054690
                                                         0.314575       0.043317
                                                         0.699653      -0.118840
                                                         1.478550       0.011822
                                                         2.940870       0.000000
                                                         7.568386       0.000000

                          1       6    4dx2              0.046851       0.000412
                                                         0.078003       0.000000
                                                         0.129869       0.012195
                                                         0.314575       0.094561
                                                         0.699653       0.284252
                                                         1.478550       0.540680
                                                         2.940870      -0.141344
                                                         7.568386      -0.104586
                          1       6    4dxy              0.046851       0.000713
                                                         0.078003       0.000000
                                                         0.129869       0.021122
                                                         0.314575       0.163785
                                                         0.699653       0.492339
                                                         1.478550       0.936486
                                                         2.940870      -0.244816
                                                         7.568386      -0.181148
                          1       6    4dxz              0.046851       0.000713
                                                         0.078003       0.000000
                                                         0.129869       0.021122
                                                         0.314575       0.163785
                                                         0.699653       0.492339
                                                         1.478550       0.936486
                                                         2.940870      -0.244816
                                                         7.568386      -0.181148
                          1       6    4dy2              0.046851       0.000412
                                                         0.078003       0.000000
                                                         0.129869       0.012195
                                                         0.314575       0.094561
                                                         0.699653       0.284252
                                                         1.478550       0.540680
                                                         2.940870      -0.141344
                                                         7.568386      -0.104586
                          1       6    4dyz              0.046851       0.000713
                                                         0.078003       0.000000
                                                         0.129869       0.021122
                                                         0.314575       0.163785
                                                         0.699653       0.492339
                                                         1.478550       0.936486
                                                         2.940870      -0.244816
                                                         7.568386      -0.181148
                          1       6    4dz2              0.046851       0.000412
                                                         0.078003       0.000000
                                                         0.129869       0.012195
                                                         0.314575       0.094561
                                                         0.699653       0.284252
                                                         1.478550       0.540680
                                                         2.940870      -0.141344
                                                         7.568386      -0.104586

                          1       7    5dx2              0.046851       0.002015
                                                         0.078003       0.001687
                                                         0.129869       0.012246
                                                         0.314575       0.044962
                                                         0.699653       0.315094
                                                         1.478550       0.620543
                                                         2.940870       0.000000
                                                         7.568386       0.000000
                          1       7    5dxy              0.046851       0.003490
                                                         0.078003       0.002921
                                                         0.129869       0.021210
                                                         0.314575       0.077877
                                                         0.699653       0.545759
                                                         1.478550       1.074812
                                                         2.940870       0.000000
                                                         7.568386       0.000000
                          1       7    5dxz              0.046851       0.003490
                                                         0.078003       0.002921
                                                         0.129869       0.021210
                                                         0.314575       0.077877
                                                         0.699653       0.545759
                                                         1.478550       1.074812
                                                         2.940870       0.000000
                                                         7.568386       0.000000
                          1       7    5dy2              0.046851       0.002015
                                                         0.078003       0.001687
                                                         0.129869       0.012246
                                                         0.314575       0.044962
                                                         0.699653       0.315094
                                                         1.478550       0.620543
                                                         2.940870       0.000000
                                                         7.568386       0.000000
                          1       7    5dyz              0.046851       0.003490
                                                         0.078003       0.002921
                                                         0.129869       0.021210
                                                         0.314575       0.077877
                                                         0.699653       0.545759
                                                         1.478550       1.074812
                                                         2.940870       0.000000
                                                         7.568386       0.000000
                          1       7    5dz2              0.046851       0.002015
                                                         0.078003       0.001687
                                                         0.129869       0.012246
                                                         0.314575       0.044962
                                                         0.699653       0.315094
                                                         1.478550       0.620543
                                                         2.940870       0.000000
                                                         7.568386       0.000000

       Atomic covalent radius [Angstrom]:                                  1.450

       Atomic van der Waals radius [Angstrom]:                             1.920

     GTH Potential information for                                       GTH-PBE

       Description:                       Goedecker-Teter-Hutter pseudopotential
                                           Goedecker et al., PRB 54, 1703 (1996)
                                          Hartwigsen et al., PRB 58, 3641 (1998)
                                                      Krack, TCA 114, 145 (2005)

       Gaussian exponent of the core charge distribution:               2.263468
       Electronic configuration (s p d ...):                           4   6   2

       Parameters of the local part of the GTH pseudopotential:

                          rloc        C1          C2          C3          C4
                        0.470000    7.796057   -1.893210

       Parameters of the non-local part of the GTH (SOC) pseudopotential:

                   l      r(l)      h(i,j,l)
                                    k(i,j,l)
                   0    0.259829   23.380874   -8.571939
                                   -8.571939   11.066326
                   1    0.288969    8.592766   -5.377358
                                   -5.377358    6.362576
                                    1.004906   -1.416118
                                   -1.416118    1.675573
                   2    0.581245    0.027811    0.276862
                                    0.276862   -0.313932
                                   -0.002553    0.010796
                                    0.010796   -0.012242


 MOLECULE KIND INFORMATION


 All atoms are their own molecule, skipping detailed information


 TOTAL NUMBERS AND MAXIMUM NUMBERS

  Total number of            - Atomic kinds:                                   1
                             - Atoms:                                          2
                             - Shell sets:                                     2
                             - Shells:                                        14
                             - Primitive Cartesian functions:                 16
                             - Cartesian basis functions:                     42
                             - Spherical basis functions:                     38

  Maximum angular momentum of- Orbital basis functions:                        2
                             - Local part of the GTH pseudopotential:          2
                             - Non-local part of the GTH pseudopotential:      4


 MODULE QUICKSTEP: ATOMIC COORDINATES IN ANGSTROM

   Atom Kind Element         X             Y             Z       Z(eff)     Mass
      1    1 Zr   40      0.000000      0.000000      0.000000  12.0000  91.2240
      2    1 Zr   40      1.617999      0.934152      2.594765  12.0000  91.2240



 SCF PARAMETERS         Density guess:                                    ATOMIC
                        --------------------------------------------------------
                        max_scf:                                             500
                        max_scf_history:                                       0
                        max_diis:                                              4
                        --------------------------------------------------------
                        eps_scf:                                        1.00E-09
                        eps_scf_history:                                0.00E+00
                        eps_diis:                                       1.00E-01
                        eps_eigval:                                     1.00E-05
                        --------------------------------------------------------
                        level_shift [a.u.]:                             0.000000
                        added MOs                                        26    0
                        --------------------------------------------------------
                        Mixing method:                            BROYDEN_MIXING
                                                charge density mixing in g-space
                        --------------------------------------------------------
                        Smear method:                                FERMI_DIRAC
                        Electronic temperature [K]:                        300.0
                        Electronic temperature [a.u.]:                  9.50E-04
                        Accuracy threshold:                             1.00E-10
                        --------------------------------------------------------
                        No outer SCF

 PW_GRID| Information for grid number                                          1
 PW_GRID| Grid distributed over                                     8 processors
 PW_GRID| Real space group dimensions                                     8    1
 PW_GRID| the grid is blocked:                                                NO
 PW_GRID| Cutoff [a.u.]                                                    500.0
 PW_GRID| spherical cutoff:                                                   NO
 PW_GRID|   Bounds   1            -32      31                Points:          64
 PW_GRID|   Bounds   2            -32      31                Points:          64
 PW_GRID|   Bounds   3            -50      49                Points:         100
 PW_GRID| Volume element (a.u.^3)  0.7754E-03     Volume (a.u.^3)       317.5999
 PW_GRID| Grid span                                                    FULLSPACE
 PW_GRID|   Distribution                         Average         Max         Min
 PW_GRID|   G-Vectors                            51200.0       51200       51200
 PW_GRID|   G-Rays                                 800.0         800         800
 PW_GRID|   Real Space Points                    51200.0       51200       51200

 PW_GRID| Information for grid number                                          2
 PW_GRID| Number of the reference grid                                         1
 PW_GRID| Grid distributed over                                     8 processors
 PW_GRID| Real space group dimensions                                     8    1
 PW_GRID| the grid is blocked:                                                NO
 PW_GRID| Cutoff [a.u.]                                                    166.7
 PW_GRID| spherical cutoff:                                                   NO
 PW_GRID|   Bounds   1            -18      17                Points:          36
 PW_GRID|   Bounds   2            -18      17                Points:          36
 PW_GRID|   Bounds   3            -30      29                Points:          60
 PW_GRID| Volume element (a.u.^3)  0.4084E-02     Volume (a.u.^3)       317.5999
 PW_GRID| Grid span                                                    FULLSPACE
 PW_GRID|   Distribution                         Average         Max         Min
 PW_GRID|   G-Vectors                             9720.0        9792        9612
 PW_GRID|   G-Rays                                 270.0         272         267
 PW_GRID|   Real Space Points                     9720.0       10800        8640

 PW_GRID| Information for grid number                                          3
 PW_GRID| Number of the reference grid                                         1
 PW_GRID| Grid distributed over                                     8 processors
 PW_GRID| Real space group dimensions                                     8    1
 PW_GRID| the grid is blocked:                                                NO
 PW_GRID| Cutoff [a.u.]                                                     55.6
 PW_GRID| spherical cutoff:                                                   NO
 PW_GRID|   Bounds   1            -12      11                Points:          24
 PW_GRID|   Bounds   2            -12      11                Points:          24
 PW_GRID|   Bounds   3            -18      17                Points:          36
 PW_GRID| Volume element (a.u.^3)  0.1532E-01     Volume (a.u.^3)       317.5999
 PW_GRID| Grid span                                                    FULLSPACE
 PW_GRID|   Distribution                         Average         Max         Min
 PW_GRID|   G-Vectors                             2592.0        2640        2520
 PW_GRID|   G-Rays                                 108.0         110         105
 PW_GRID|   Real Space Points                     2592.0        2592        2592

 PW_GRID| Information for grid number                                          4
 PW_GRID| Number of the reference grid                                         1
 PW_GRID| Grid distributed over                                     8 processors
 PW_GRID| Real space group dimensions                                     8    1
 PW_GRID| the grid is blocked:                                                NO
 PW_GRID| Cutoff [a.u.]                                                     18.5
 PW_GRID| spherical cutoff:                                                   NO
 PW_GRID|   Bounds   1             -6       5                Points:          12
 PW_GRID|   Bounds   2             -6       5                Points:          12
 PW_GRID|   Bounds   3            -10       9                Points:          20
 PW_GRID| Volume element (a.u.^3)  0.1103         Volume (a.u.^3)       317.5999
 PW_GRID| Grid span                                                    FULLSPACE
 PW_GRID|   Distribution                         Average         Max         Min
 PW_GRID|   G-Vectors                              360.0         384         336
 PW_GRID|   G-Rays                                  30.0          32          28
 PW_GRID|   Real Space Points                      360.0         480         240

 POISSON| Solver                                                        PERIODIC
 POISSON| Periodicity                                                        XYZ

 RS_GRID| Information for grid number                                          1
 RS_GRID|   Bounds   1            -32      31                Points:          64
 RS_GRID|   Bounds   2            -32      31                Points:          64
 RS_GRID|   Bounds   3            -50      49                Points:         100
 RS_GRID| Real space fully replicated
 RS_GRID| Group size                                                           1

 RS_GRID| Information for grid number                                          2
 RS_GRID|   Bounds   1            -18      17                Points:          36
 RS_GRID|   Bounds   2            -18      17                Points:          36
 RS_GRID|   Bounds   3            -30      29                Points:          60
 RS_GRID| Real space fully replicated
 RS_GRID| Group size                                                           1

 RS_GRID| Information for grid number                                          3
 RS_GRID|   Bounds   1            -12      11                Points:          24
 RS_GRID|   Bounds   2            -12      11                Points:          24
 RS_GRID|   Bounds   3            -18      17                Points:          36
 RS_GRID| Real space fully replicated
 RS_GRID| Group size                                                           1

 RS_GRID| Information for grid number                                          4
 RS_GRID|   Bounds   1             -6       5                Points:          12
 RS_GRID|   Bounds   2             -6       5                Points:          12
 RS_GRID|   Bounds   3            -10       9                Points:          20
 RS_GRID| Real space fully replicated
 RS_GRID| Group size                                                           1

 Number of electrons:                                                         24
 Number of occupied orbitals:                                                 12
 Number of molecular orbitals:                                                38

 Number of orbital functions:                                                 38
 Number of independent orbital functions:                                     38

 Extrapolation method: initial_guess

 Atomic guess: The first density matrix is obtained in terms of atomic orbitals
               and electronic configurations assigned to each atomic kind

 Guess for atomic kind: Zr

 Electronic structure
    Total number of core electrons                                         28.00
    Total number of valence electrons                                      12.00
    Total number of electrons                                              40.00
    Multiplicity                                                   not specified
    S   [  2.00  2.00  2.00] 2.00  2.00
    P   [  6.00  6.00] 6.00
    D   [ 10.00] 2.00


 *******************************************************************************
                  Iteration          Convergence                     Energy [au]
 *******************************************************************************
                          1        0.113425                     -46.610586176300
                          2        0.853470E-02                 -46.613404969621
                          3        0.177874E-03                 -46.613415007315
                          4        0.554031E-05                 -46.613415021776
                          5        0.162209E-07                 -46.613415021789

 Energy components [Hartree]           Total Energy ::          -46.613415021789
                                        Band Energy ::          -11.273456761743
                                     Kinetic Energy ::           14.862662728010
                                   Potential Energy ::          -61.476077749799
                                      Virial (-V/T) ::            4.136276175731
                                        Core Energy ::          -78.082828638807
                                          XC Energy ::           -5.611093783311
                                     Coulomb Energy ::           37.080507400330
                       Total Pseudopotential Energy ::          -93.056385430618
                       Local Pseudopotential Energy ::          -96.706583941473
                    Nonlocal Pseudopotential Energy ::            3.650198510855
                                        Confinement ::            1.108940637999

 Orbital energies  State     L     Occupation   Energy[a.u.]          Energy[eV]

                       1     0          2.000      -1.971208          -53.639293
                       2     0          2.000      -0.125621           -3.418324

                       1     1          6.000      -1.149994          -31.292922

                       1     2          2.000      -0.089918           -2.446796


 Total Electron Density at R=0:                                         0.000054
 Re-scaling the density matrix to get the right number of electrons
                  # Electrons              Trace(P)               Scaling factor
                           24                24.000                        1.000


 SCF WAVEFUNCTION OPTIMIZATION

  Step     Update method      Time    Convergence         Total energy    Change
  ------------------------------------------------------------------------------
     1 NoMix/Diag. 0.10E+00    8.6     2.11842100       -94.8702818351 -9.49E+01
     2 Broy./Diag. 0.10E+00    9.5     0.00273624       -95.0025509847 -1.32E-01
     3 Broy./Diag. 0.10E+00    9.5     0.03976491       -94.4443799845  5.58E-01
     4 Broy./Diag. 0.10E+00    9.5     0.00027657       -94.1948027982  2.50E-01
     5 Broy./Diag. 0.10E+00    9.6     0.00170440       -94.2004219889 -5.62E-03
     6 Broy./Diag. 0.10E+00    9.5     0.00007110       -94.1964133807  4.01E-03
     7 Broy./Diag. 0.10E+00    9.5     0.00055055       -94.2081068084 -1.17E-02
     8 Broy./Diag. 0.10E+00    9.5     0.00000673       -94.2101934085 -2.09E-03
     9 Broy./Diag. 0.10E+00    9.5     0.00004785       -94.2098870082  3.06E-04
    10 Broy./Diag. 0.10E+00    9.5     0.00000121       -94.2100682754 -1.81E-04
    11 Broy./Diag. 0.10E+00    9.5     0.00000968       -94.2098838614  1.84E-04
    12 Broy./Diag. 0.10E+00    9.5     0.00000124       -94.2098821657  1.70E-06
    13 Broy./Diag. 0.10E+00    9.6     0.00000576       -94.2099298818 -4.77E-05
    14 Broy./Diag. 0.10E+00    9.5     0.00000007       -94.2099346979 -4.82E-06
    15 Broy./Diag. 0.10E+00    9.5     0.00000053       -94.2099389350 -4.24E-06
    16 Broy./Diag. 0.10E+00    9.5     0.00000008       -94.2099397439 -8.09E-07
    17 Broy./Diag. 0.10E+00    9.5     0.00000008       -94.2099385776  1.17E-06
    18 Broy./Diag. 0.10E+00    9.5     0.00000012       -94.2099377002  8.77E-07
    19 Broy./Diag. 0.10E+00    9.5     0.00000002       -94.2099372452  4.55E-07
    20 Broy./Diag. 0.10E+00    9.5     0.00000002       -94.2099367779  4.67E-07
    21 Broy./Diag. 0.10E+00    9.5     0.00000001       -94.2099367865 -8.69E-09
    22 Broy./Diag. 0.10E+00    9.4     5.9606E-09       -94.2099368639 -7.73E-08
    23 Broy./Diag. 0.10E+00    9.5     5.5030E-09       -94.2099369660 -1.02E-07
    24 Broy./Diag. 0.10E+00    9.5     2.1587E-09       -94.2099370136 -4.76E-08
    25 Broy./Diag. 0.10E+00    9.5     3.4144E-09       -94.2099370333 -1.97E-08
    26 Broy./Diag. 0.10E+00    9.5     6.4658E-10       -94.2099370361 -2.84E-09

  *** SCF run converged in    26 steps ***


  Electronic density on regular grids:        -24.0000000000        0.0000000000
  Core density on regular grids:               24.0000000000        0.0000000000
  Total charge density on r-space grids:        0.0000000000
  Total charge density g-space grids:           0.0000000000

  Overlap energy of the core charge distribution:               0.00000000000000
  Self energy of the core charge distribution:               -172.85808517207855
  Core Hamiltonian energy:                                     38.68679033460261
  Hartree energy:                                              51.91244080710803
  Exchange-correlation energy:                                -11.95093321034413
  Electronic entropic energy:                                  -0.00014979539390
  Fermi energy:                                                 0.42396536926451

  Total energy:                                               -94.20993703610581

 !-----------------------------------------------------------------------------!
                     Mulliken Population Analysis

 #  Atom  Element  Kind  Atomic population                           Net charge
       1     Zr       1         12.000000                              0.000000
       2     Zr       1         12.000000                             -0.000000
 # Total charge                             24.000000                 -0.000000

 !-----------------------------------------------------------------------------!

 !-----------------------------------------------------------------------------!
                           Hirshfeld Charges

  #Atom  Element  Kind  Ref Charge     Population                    Net charge
      1       Zr     1      12.000         12.000                         0.000
      2       Zr     1      12.000         12.000                        -0.000

  Total Charge                                                           -0.000
 !-----------------------------------------------------------------------------!

 KPOINTS| Band Structure Calculation
 KPOINTS| Number of k-point sets                                               1
 KPOINTS| Number of added MOs/bands                                           -1
 KPOINTS| Number of k-points in set    1                                     148
 KPOINTS| In units of b-vector [2pi/Bohr]
 KPOINTS| Special point     1 not specifi     0.000000     0.000000     0.000000
 KPOINTS| Special point     2 not specifi     0.500000     0.000000     0.000000
 KPOINTS| Special point     3 not specifi     0.333333     0.333333     0.000000
 KPOINTS| Special point     4 not specifi     0.000000     0.000000     0.000000
 KPOINTS| Time for k-point line                                            3.206

 ENERGY| Total FORCE_EVAL ( QS ) energy [hartree]            -94.209937036105813

 -------------------------------------------------------------------------------
 -                                                                             -
 -                                DBCSR STATISTICS                             -
 -                                                                             -
 -------------------------------------------------------------------------------
 COUNTER                                    TOTAL       BLAS       SMM       ACC
 flops inhomo. stacks                           0       0.0%      0.0%      0.0%
 flops total                         0.000000E+00       0.0%      0.0%      0.0%
 flops max/rank                      0.000000E+00       0.0%      0.0%      0.0%
 matmuls inhomo. stacks                         0       0.0%      0.0%      0.0%
 matmuls total                                  0       0.0%      0.0%      0.0%
 number of processed stacks                     0       0.0%      0.0%      0.0%
 average stack size                                     0.0       0.0       0.0
 marketing flops                     0.000000E+00
 -------------------------------------------------------------------------------
 -                                                                             -
 -                      DBCSR MESSAGE PASSING PERFORMANCE                      -
 -                                                                             -
 -------------------------------------------------------------------------------
 ROUTINE             CALLS      AVE VOLUME [Bytes]
 MP_Bcast                1                     12.
 MP_Allreduce           19                     21.
 MP_Alltoall        616840                   2451.
 -------------------------------------------------------------------------------

 -------------------------------------------------------------------------------
 -                                                                             -
 -                                DBM STATISTICS                               -
 -                                                                             -
 -------------------------------------------------------------------------------
    M  x    N  x    K                                          COUNT     PERCENT
 -------------------------------------------------------------------------------

 -------------------------------------------------------------------------------
 -                                                                             -
 -                                GRID STATISTICS                              -
 -                                                                             -
 -------------------------------------------------------------------------------
 LP    KERNEL             BACKEND                              COUNT     PERCENT
 4     collocate general  CPU                                1108890      50.94%
 4     integrate general  CPU                                1067820      49.06%
 0     collocate general  CPU                                      4       0.00%
 0     integrate general  CPU                                      2       0.00%
 -------------------------------------------------------------------------------

 MEMORY| Estimated peak process memory [MiB]                                 422

 -------------------------------------------------------------------------------
 ----                             MULTIGRID INFO                            ----
 -------------------------------------------------------------------------------
 count for grid        1:          35954          cutoff [a.u.]          500.00
 count for grid        2:          42768          cutoff [a.u.]          166.67
 count for grid        3:          32944          cutoff [a.u.]           55.56
 count for grid        4:          57168          cutoff [a.u.]           18.52
 total gridlevel count  :         168834

 -------------------------------------------------------------------------------
 -                                                                             -
 -                         MESSAGE PASSING PERFORMANCE                         -
 -                                                                             -
 -------------------------------------------------------------------------------

 ROUTINE             CALLS      AVE VOLUME [Bytes]
 MP_Group                6
 MP_Bcast           243369                   2051.
 MP_Allreduce       199265                     19.
 MP_Sync                 4
 MP_Alltoall           473                2270903.
 MP_SendRecv           770                 135225.
 MP_ISendRecv          735                 132805.
 MP_Wait            167987
 MP_comm_split           4
 MP_ISend           178124                    364.
 MP_IRecv           284288                    223.
 -------------------------------------------------------------------------------


 -------------------------------------------------------------------------------
 -                                                                             -
 -                           R E F E R E N C E S                               -
 -                                                                             -
 -------------------------------------------------------------------------------
 
 CP2K version 2025.1 (Development Version), the CP2K developers group (2025).
 CP2K is freely available from https://www.cp2k.org/ .
 
 T. D. Kuehne, M. Iannuzzi, M. Del Ben, V. V. Rybkin, P. Seewald, F. Stein, T. 
 Laino, R. Z. Khaliullin, O. Schuett, F. Schiffmann, D. Golze, J. Wilhelm, S. 
 Chulkov, M. H. Bani-Hashemian, V. Weber, U. Borstnik, M. Taillefumier, A. S. 
 Jakobovits, A. Lazzaro, H. Pabst, T. Mueller, R. Schade, M. Guidon, S. 
 Andermatt, N. Holmberg, G. K. Schenter, A. Hehn, A. Bussy, F. Belleflamme, G. 
 Tabacchi, A. Gloess, M. Lass, I. Bethune, C. J. Mundy, C. Plessl, M. Watkins, 
 J. VandeVondele, M. Krack, J. Hutter.
 J. Chem. Phys. 152, 194103 (2020).
 CP2K: An electronic structure and molecular dynamics software package - 
 Quickstep: Efficient and accurate electronic structure calculations.
 https://doi.org/10.1063/5.0007045

 O. Schuett, P. Messmer, J. Hutter, J. VandeVondele.
 Electronic Structure Calculations on Graphics Processing Units, 173-190 (2016).
 GPU-Accelerated Sparse Matrix-Matrix Multiplication for Linear Scaling Density 
 Functional Theory.
 https://doi.org/10.1002/9781118670712.ch8

 J. Hutter, M. Iannuzzi, F. Schiffmann, J. VandeVondele.
 WIREs Comput Mol Sci. 4, 15-25 (2014).
 CP2K: atomistic simulations of condensed matter systems.
 https://doi.org/10.1002/wcms.1159

 U. Borstnik, J. VandeVondele, V. Weber, J. Hutter.
 Parallel Comput. 40, 47-58 (2014).
 Sparse matrix multiplication: The distributed block-compressed sparse row 
 library.
 https://doi.org/10.1016/j.parco.2014.03.012

 J. VandeVondele, J. Hutter.
 J. Chem. Phys. 127, 114105 (2007).
 Gaussian basis sets for accurate calculations on molecular systems in gas and 
 condensed phases.
 https://doi.org/10.1063/1.2770708

 J. VandeVondele, M. Krack, F. Mohamed, M. Parrinello, T. Chassaing, J. Hutter.
 Comput. Phys. Commun. 167, 103-128 (2005).
 QUICKSTEP: Fast and accurate density functional calculations using a mixed 
 Gaussian and plane waves approach.
 https://doi.org/10.1016/j.cpc.2004.12.014

 M. Krack.
 Theor. Chem. Acc. 114, 145-152 (2005).
 Pseudopotentials for H to Kr optimized for gradient-corrected 
 exchange-correlation functionals.
 https://doi.org/10.1007/s00214-005-0655-y

 M. Frigo, S. G. Johnson.
 Proc. IEEE 93, 216-231 (2005).
 The design and implementation of FFTW3.
 https://doi.org/10.1109/JPROC.2004.840301

 C. Hartwigsen, S. Goedecker, J. Hutter.
 Phys. Rev. B 58, 3641-3662 (1998).
 Relativistic separable dual-space Gaussian pseudopotentials from H to Rn.
 https://doi.org/10.1103/PhysRevB.58.3641

 G. Lippert, J. Hutter, M. Parrinello.
 Mol. Phys. 92, 477-487 (1997).
 A hybrid Gaussian and plane wave density functional scheme.
 https://doi.org/10.1080/002689797170220

 S. Goedecker, M. Teter, J. Hutter.
 Phys. Rev. B 54, 1703-1710 (1996).
 Separable dual-space Gaussian pseudopotentials.
 https://doi.org/10.1103/PhysRevB.54.1703

 J. P. Perdew, K. Burke, M. Ernzerhof.
 Phys. Rev. Lett. 77, 3865-3868 (1996).
 Generalized gradient approximation made simple.
 https://doi.org/10.1103/PhysRevLett.77.3865


 -------------------------------------------------------------------------------
 -                                                                             -
 -                                T I M I N G                                  -
 -                                                                             -
 -------------------------------------------------------------------------------
 SUBROUTINE                       CALLS  ASD         SELF TIME        TOTAL TIME
                                MAXIMUM       AVERAGE  MAXIMUM  AVERAGE  MAXIMUM
 CP2K                                 1  1.0    0.021    0.024  259.959  259.959
 qs_energies                          1  2.0    0.020    0.099  259.687  259.734
 scf_env_do_scf                       1  3.0    0.000    0.000  250.724  250.724
 scf_env_do_scf_inner_loop           26  4.0    0.057    0.061  250.724  250.724
 do_general_diag_kp                  27  5.9    0.143    0.166  217.391  222.379
 qs_scf_new_mos_kp                   26  5.0    0.000    0.000  214.310  219.290
 mp_alltoall_i22                 105124  8.7  163.305  200.503  163.305  200.503
 dbcsr_desymmetrize_deep          59514  7.4    0.862    0.973  124.585  151.679
 rskp_transform                   13608  6.9   21.890  118.784   21.890  118.784
 dbcsr_complete_redistribute      45610  8.1    1.402    1.582   55.849   65.925
 kpoint_density_transform            26  7.0    0.088    0.100   57.660   57.825
 copy_fm_to_dbcsr                 13312  8.0    0.076    0.083   46.402   56.240
 transform_dmat                    6656  8.0    9.866   52.870    9.866   52.870
 qs_ks_update_qs_env                 26  5.0    0.000    0.000    8.089   29.887
 rebuild_ks_matrix                   26  6.0    0.000    0.000    6.231   28.028
 qs_ks_build_kohn_sham_matrix        26  7.0    0.109    0.111    6.231   28.028
 sum_up_and_integrate                26  8.0    0.000    0.000    5.229   26.983
 integrate_v_rspace                  26  9.0    0.040    0.210    5.229   26.983
 grid_integrate_task_list            26 10.0    4.980   26.609    4.980   26.609
 transfer_rs2pw                     110  8.0    0.001    0.002   21.143   26.001
 transfer_rs2pw_500                  29  8.9    0.044    0.049   21.109   25.968
 mp_sendrecv_dv                     770 10.0   21.088   25.945   21.088   25.945
 qs_rho_update_rho_low               27  5.0    0.000    0.000   23.704   23.717
 calculate_rho_elec                  27  6.0    0.015    0.031   23.704   23.717
 density_rs2pw                       27  7.0    0.001    0.001   19.245   23.646
 grid_collocate_task_list            27  7.0    4.443   23.411    4.443   23.411
 copy_dbcsr_to_fm                 32298  6.8    0.313    0.336   15.144   15.419
 dbcsr_finalize                  146096  8.0    0.509    0.544    3.553    3.818
 cp_dbcsr_alloc_block_from_nbl    17945  5.0    0.689    3.495    0.729    3.626
 write_kpoints_restart               26  5.0    0.023    0.029    3.571    3.571
 cp_fm_start_copy_general         40528  7.3    0.515    0.785    3.221    3.269
 qs_energies_init_hamiltonians        1  3.0    0.000    0.000    3.239    3.239
 mp_alltoall_d11v                315372  9.3    2.861    2.999    2.861    2.999
 dbcsr_dot                       132133  8.0    0.542    0.738    2.575    2.766
 mp_cart_sub                      64598  8.8    2.704    2.723    2.704    2.723
 build_core_hamiltonian_matrix        1  4.0    0.009    0.009    0.600    2.581
 qs_env_update_s_mstruct              1  4.0    0.000    0.000    2.128    2.493
 mp_sum_d                        132759  9.0    2.137    2.493    2.137    2.493
 calculate_rho_core                   1  5.0    0.001    0.002    1.992    2.467
 dbcsr_merge_all                  45610 10.1    1.204    1.430    2.006    2.257
 hybrid_alltoall_any              59514  8.4    0.228    0.243    1.882    1.963
 init_scf_run                         1  3.0    0.000    0.000    1.714    1.904
 scf_env_initial_rho_setup            1  4.0    0.000    0.000    1.714    1.904
 evaluate_core_matrix_traces         26  6.0    0.000    0.000    1.858    1.858
 calculate_ptrace_kp                 52  7.0    0.097    0.101    1.858    1.858
 mp_alltoall_i11v                196344  8.9    1.823    1.850    1.823    1.850
 mp_cart_create                   32305  8.8    1.463    1.514    1.463    1.514
 dbcsr_copy                      147985  6.7    0.798    0.856    1.214    1.414
 mp_allgather_i                   81056  8.3    1.285    1.395    1.285    1.395
 cp_fm_write_unformatted           5082  6.0    1.000    1.213    1.009    1.250
 self_consistency_check              26  5.0    0.093    0.098    1.134    1.173
 dbcsr_create_new                300839  7.8    0.900    0.942    1.093    1.148
 mp_bcast_iv                     162138  8.3    0.965    1.089    0.965    1.089
 dbcsr_work_create               105124  8.7    0.618    0.642    0.996    1.066
 mixing_allocate                      1  3.0    0.014    0.015    0.242    1.056
 calculate_first_density_matrix       1  5.0    0.002    0.002    0.823    1.012
 calculate_atomic_block_dm            1  6.0    0.001    0.001    0.818    1.008
 cp_sm_mix                        66066  6.0    0.173    0.283    0.948    0.998
 dbcsr_iterator_start            488306  8.7    0.834    0.857    0.958    0.973
 cp_cfm_geeig_canon                 869  6.9    0.005    0.006    0.806    0.817
 dbcsr_work_destroy_all          105124  9.7    0.500    0.504    0.759    0.768
 cp_cfm_heevd                      1738  7.9    0.002    0.002    0.746    0.755
 cp_cfm_heevd_base                 1738  8.9    0.744    0.753    0.744    0.753
 dbcsr_data_new                 1154326  9.6    0.664    0.741    0.664    0.741
 mp_max_d                         66068  7.0    0.618    0.696    0.618    0.696
 copy_dbcsr_to_fm_bc              32298  7.8    0.298    0.304    0.673    0.686
 tree_to_linear_d                 45610 11.1    0.632    0.659    0.632    0.659
 dbcsr_iterator_stop             488306  8.7    0.541    0.545    0.642    0.648
 build_core_ppnl                      1  5.0    0.129    0.625    0.129    0.625
 copy_fm_to_dbcsr_bc              13312  9.0    0.164    0.178    0.568    0.607
 calculate_ecore_overlap              1  4.0    0.000    0.000    0.480    0.591
 dbcsr_data_release             1761660  9.9    0.569    0.582    0.569    0.582
 build_overlap_matrix_low             1  5.0    0.021    0.045    0.132    0.560
 build_kinetic_matrix_low             1  5.0    0.021    0.044    0.131    0.558
 fft_wrap_pw1pw2                    473 10.0    0.004    0.004    0.501    0.526
 qs_env_rebuild_rho                   1  5.0    0.000    0.000    0.120    0.525
 qs_rho_rebuild                       1  6.0    0.007    0.007    0.120    0.525
 mp_sum_iv                           24  5.3    0.407    0.502    0.407    0.502
 qs_scf_ensure_work_matrices          1  3.0    0.000    0.000    0.407    0.501
 dbcsr_destroy                   168707  7.6    0.268    0.289    0.465    0.498
 fft_wrap_pw1pw2_500                314 11.3    0.028    0.028    0.459    0.484
 fft3d_ps                           473 12.0    0.150    0.152    0.421    0.446
 dbcsr_set                       220309  7.3    0.192    0.198    0.284    0.377
 kpoint_set_mo_occupation            26  7.0    0.355    0.359    0.367    0.375
 mp_bcast_im                      81056  8.3    0.295    0.336    0.295    0.336
 dbcsr_copy_into_existing         15853  9.4    0.116    0.240    0.203    0.331
 quick_finalize                   59514  9.4    0.148    0.189    0.246    0.328
 qs_vxc_create                       26  8.0    0.000    0.000    0.308    0.309
 xc_vxc_pw_create                    26  9.0    0.012    0.012    0.307    0.309
 mp_waitall_1                    167987  8.3    0.140    0.283    0.140    0.283
 mp_alltoall_z22v                   473 14.0    0.234    0.257    0.234    0.257
 gspace_mixing                       25  5.0    0.009    0.009    0.243    0.243
 mp_comm_free                     96937  8.8    0.216    0.238    0.216    0.238
 potential_pw2rs                     26 10.0    0.001    0.001    0.208    0.233
 build_core_ppl                       1  5.0    0.045    0.210    0.045    0.210
 xc_pw_derive                       156 11.0    0.000    0.000    0.200    0.204
 dbcsr_reserve_blocks             31257  8.1    0.086    0.173    0.102    0.200
 broyden_mixing                      25  6.0    0.192    0.196    0.197    0.198
 dbcsr_zero                      220309  8.3    0.092    0.180    0.092    0.180
 xc_rho_set_and_dset_create          26 10.0    0.008    0.009    0.162    0.164
 yz_to_x                            213 12.8    0.012    0.012    0.139    0.161
 dbcsr_iterator_seek             488306  9.7    0.124    0.153    0.124    0.153
 cp_fm_finish_copy_general        16788  7.8    0.100    0.119    0.121    0.152
 dbcsr_sort_indices              136381 10.8    0.074    0.140    0.074    0.140
 dbcsr_make_index_exist          300839  8.8    0.128    0.138    0.128    0.138
 xc_pw_divergence                    26 10.0    0.000    0.000    0.132    0.134
 x_to_yz                            260 13.2    0.022    0.022    0.128    0.131
 kpoint_density_matrices             26  7.0    0.009    0.009    0.118    0.124
 mp_sum_dv                          321  3.3    0.062    0.116    0.062    0.116
 transfer_pw2rs                     105 11.0    0.001    0.001    0.114    0.115
 parallel_gemm_fm                  3328  8.0    0.003    0.003    0.107    0.113
 parallel_gemm_fm_gemm             3328  9.0    0.003    0.003    0.105    0.110
 cp_fm_gemm                        3328 10.0    0.101    0.107    0.101    0.107
 parser_read_line                  6490  4.1    0.002    0.002    0.102    0.103
 parser_read_line_low                25  6.1    0.009    0.037    0.099    0.101
 dbcsr_reserve_all_blocks         13312 10.0    0.019    0.022    0.088    0.099
 broadcast_input_information         25  7.1    0.030    0.039    0.090    0.096
 merge_index                      45610 11.1    0.088    0.095    0.088    0.095
 restraint_control                    1  2.0    0.000    0.000    0.047    0.092
 mp_sum_i                             4  2.8    0.047    0.092    0.047    0.092
 qs_create_task_list                  1  5.0    0.000    0.000    0.017    0.091
 generate_qs_task_list                1  6.0    0.013    0.067    0.017    0.091
 transfer_pw2rs_500                  27 11.9    0.046    0.049    0.084    0.086
 mp_irecv_iv                     162112  8.3    0.010    0.080    0.010    0.080
 topology_control                     1  2.0    0.000    0.000    0.074    0.074
 dbcsr_switch_data_area           59514 10.4    0.054    0.055    0.070    0.071
 create_qs_kind_set                   1  2.0    0.000    0.000    0.066    0.066
 read_qs_kind                         1  3.0    0.032    0.033    0.066    0.066
 scf_post_calculation_gpw             1  3.0    0.000    0.000    0.065    0.065
 write_available_results              1  4.0    0.000    0.000    0.065    0.065
 write_mo_free_results                1  5.0    0.001    0.001    0.065    0.065
 mp_isend_dv                      41120  8.2    0.060    0.065    0.060    0.065
 cp_fm_cleanup_copy_general       28880  7.0    0.034    0.038    0.054    0.059
 mp_isend_iv                      91336  8.3    0.014    0.055    0.014    0.055
 kpoint_init_cell_index               2  3.5    0.036    0.046    0.051    0.053
 read_cell_cif                        2  4.5    0.002    0.005    0.051    0.051
 cp_cfm_gemm                       2607  7.9    0.050    0.051    0.050    0.051
 xc_functional_eval                  26 11.0    0.000    0.000    0.047    0.048
 pbe_lda_eval                        26 12.0    0.047    0.048    0.047    0.048
 coordinate_control                   1  3.0    0.001    0.001    0.045    0.045
 coordinate_control_READ_COORDI       1  4.0    0.000    0.000    0.045    0.045
 read_coordinate_cif                  1  5.0    0.002    0.002    0.045    0.045
 mp_irecv_im2                     81056  8.3    0.005    0.039    0.005    0.039
 mp_bcast_i_src                     100  8.1    0.033    0.038    0.033    0.038
 dbcsr_distribution_new           45612  8.4    0.031    0.038    0.031    0.038
 mp_recv_dv                       15246  7.0    0.005    0.037    0.005    0.037
 dbcsr_get_data_size_used        105124  9.7    0.033    0.036    0.033    0.036
 mp_comm_size                    133079  9.0    0.033    0.036    0.033    0.036
 dbcsr_data_copy_aa2              45610 10.9    0.020    0.035    0.020    0.035
 dbcsr_make_dbcsr_index          136381 10.7    0.032    0.034    0.032    0.034
 mp_comm_rank                    133079  9.0    0.031    0.034    0.031    0.034
 mp_bcast_am_src                     25  8.1    0.016    0.017    0.027    0.029
 qs_init_subsys                       1  2.0    0.001    0.002    0.028    0.029
 hirshfeld_integration                1  6.0    0.006    0.024    0.027    0.027
 pw_scatter_p                       260 12.2    0.026    0.027    0.026    0.027
 qs_env_setup                         1  3.0    0.000    0.000    0.025    0.026
 -------------------------------------------------------------------------------

 The number of warnings for this run is : 1
 
 -------------------------------------------------------------------------------
  **** **** ******  **  PROGRAM ENDED AT                 2025-08-04 18:17:11.057
 ***** ** ***  *** **   PROGRAM RAN ON                              i04r10c01s08
 **    ****   ******    PROGRAM RAN BY                                   di38fab
 ***** **    ** ** **   PROGRAM PROCESS ID                               2432450
  **** **  *******  **  PROGRAM STOPPED IN /hppfs/scratch/04/di38fab/09_GTH/Delt
                                           a_Set/Zr/aug-SZV-MOLOPT-GTH-tier-1/8x
                                           8x8
