Cd                                      
   1.00000000000000     
     3.037160    0.000000    0.000000
     1.518580    2.630258    0.000000
     0.000000    0.000000    5.770610
   Cd
     2
Direct
  0.000000  0.000000  0.000000
  0.333333  0.333333  0.500000
 
   28   28   56
  454.20      435.68      385.90      318.33      246.39      178.76      120.23      74.262      43.085      25.734    
  17.285      12.434      9.8072      8.6089      8.2767      8.6097      9.8075      12.433      17.284      25.735    
  43.085      74.262      120.23      178.76      246.39      318.34      385.90      435.68      435.68      401.61    
  343.40      274.63      206.10      144.16      92.838      55.224      32.143      20.488      14.359      10.816    
  9.0407      8.3422      8.3418      9.0402      10.816      14.359      20.487      32.142      55.225      92.841    
  144.16      206.10      274.63      343.39      401.61      435.68      385.90      343.40      284.85      221.31    
  160.56      107.64      66.359      38.864      23.853      16.358      11.940      9.5574      8.4667      8.1622    
  8.4659      9.5571      11.941      16.359      23.852      38.863      66.360      107.64      160.56      221.31    
  284.85      343.39      385.90      401.59      318.33      274.63      221.31      166.40      115.84      74.180    
  44.510      27.018      18.176      13.059      10.120      8.6391      8.0497      8.0499      8.6394      10.120    
  13.059      18.176      27.018      44.509      74.179      115.84      166.40      221.31      274.63      318.34    
  343.36      343.36      246.39      206.10      160.56      115.84      76.994      47.739      29.322      19.566    
  14.013      10.657      8.8404      7.9900      7.7481      7.9905      8.8406      10.657      14.013      19.567    
  29.322      47.737      76.990      115.84      160.56      206.11      246.40      274.60      284.80      274.60    
  178.76      144.16      107.64      74.180      47.739      30.169      20.335      14.654      11.080      9.0333    
  7.9716      7.5319      7.5318      7.9714      9.0331      11.080      14.655      20.337      30.170      47.738    
  74.178      107.63      144.16      178.76      206.10      221.28      221.28      206.09      120.23      92.838    
  66.359      44.510      29.322      20.335      14.881      11.313      9.1737      7.9767      7.3851      7.2091    
  7.3850      7.9765      9.1731      11.313      14.881      20.337      29.326      44.513      66.359      92.835    
  120.23      144.18      160.58      166.41      160.58      144.18      74.262      55.224      38.864      27.018    
  19.566      14.654      11.313      9.2256      7.9867      7.3000      6.9958      6.9960      7.3003      7.9866    
  9.2244      11.311      14.653      19.567      27.022      38.868      55.226      74.260      92.883      107.71    
  115.92      115.92      107.71      92.888      43.085      32.143      23.853      18.176      14.013      11.080    
  9.1737      7.9867      7.2725      6.8881      6.7664      6.8883      7.2732      7.9876      9.1736      11.077    
  14.009      18.173      23.854      32.147      43.089      55.280      66.462      74.311      77.134      74.313    
  66.463      55.278      25.734      20.488      16.358      13.059      10.657      9.0333      7.9767      7.3000    
  6.8881      6.6896      6.6894      6.8880      7.3011      7.9789      9.0350      10.656      13.055      16.354    
  20.485      25.736      32.181      38.951      44.639      47.889      47.888      44.636      38.946      32.177    
  17.285      14.359      11.940      10.120      8.8404      7.9716      7.3851      6.9958      6.7664      6.6894    
  6.7657      6.9949      7.3852      7.9736      8.8440      10.123      11.940      14.355      17.280      20.488    
  23.882      27.086      29.419      30.274      29.415      27.082      23.881      20.491      12.434      10.816    
  9.5574      8.6391      7.9900      7.5319      7.2091      6.9960      6.8883      6.8880      6.9949      7.2069    
  7.5299      7.9904      8.6427      9.5624      10.819      12.432      14.328      16.321      18.152      19.563    
  20.346      20.345      19.563      18.154      16.326      14.332      9.8072      9.0407      8.4667      8.0497    
  7.7481      7.5318      7.3850      7.3003      7.2732      7.3011      7.3852      7.5299      7.7444      8.0465    
  8.4665      9.0442      9.8124      10.770      11.859      12.959      13.910      14.555      14.785      14.558    
  13.914      12.962      11.860      10.767      8.6089      8.3422      8.1622      8.0499      7.9905      7.9714    
  7.9765      7.9866      7.9876      7.9789      7.9736      7.9904      8.0465      8.1571      8.3387      8.6095    
  8.9822      9.4493      9.9725      10.482      10.890      11.119      11.120      10.893      10.483      9.9701    
  9.4444      8.9778      8.2767      8.3418      8.4659      8.6394      8.8406      9.0331      9.1731      9.2244    
  9.1736      9.0350      8.8440      8.6427      8.4665      8.3387      8.2715      8.2704      8.3355      8.4586    
  8.6190      8.7818      8.9043      8.9499      8.9036      8.7796      8.6154      8.4555      8.3355      8.2742    
  8.6097      9.0402      9.5571      10.120      10.657      11.080      11.313      11.311      11.077      10.656    
  10.123      9.5624      9.0442      8.6095      8.2704      8.0203      7.8466      7.7368      7.6787      7.6562    
  7.6510      7.6500      7.6539      7.6763      7.7365      7.8494      8.0254      8.2745      9.8075      10.816    
  11.941      13.059      14.013      14.655      14.881      14.653      14.009      13.055      11.940      10.819    
  9.8124      8.9822      8.3355      7.8466      7.4817      7.2150      7.0316      6.9237      6.8877      6.9230    
  7.0316      7.2172      7.4854      7.8493      8.3349      8.9783      12.433      14.359      16.359      18.176    
  19.567      20.337      20.337      19.567      18.173      16.354      14.355      12.432      10.770      9.4493    
  8.4586      7.7368      7.2150      6.8431      6.5975      6.4734      6.4736      6.5985      6.8452      7.2172    
  7.7370      8.4554      9.4440      10.766      17.284      20.487      23.852      27.018      29.322      30.170    
  29.326      27.022      23.854      20.485      17.280      14.328      11.859      9.9725      8.6190      7.6787    
  7.0316      6.5975      6.3413      6.2560      6.3421      6.5983      7.0312      7.6765      8.6156      9.9701    
  11.860      14.332      25.735      32.142      38.863      44.509      47.737      47.738      44.513      38.868    
  32.147      25.736      20.488      16.321      12.959      10.482      8.7818      7.6562      6.9237      6.4734    
  6.2560      6.2562      6.4735      6.9227      7.6539      8.7798      10.482      12.963      16.326      20.491    
  43.085      55.225      66.360      74.179      76.990      74.178      66.359      55.226      43.089      32.181    
  23.882      18.152      13.910      10.890      8.9043      7.6510      6.8877      6.4736      6.3421      6.4735    
  6.8871      7.6502      8.9045      10.892      13.913      18.155      23.881      32.177      74.262      92.841    
  107.64      115.84      115.84      107.63      92.835      74.260      55.280      38.951      27.086      19.563    
  14.555      11.119      8.9499      7.6500      6.9230      6.5985      6.5983      6.9227      7.6502      8.9510    
  11.121      14.557      19.562      27.083      38.946      55.277      120.23      144.16      160.56      166.40    
  160.56      144.16      120.23      92.883      66.462      44.639      29.419      20.346      14.785      11.120    
  8.9036      7.6539      7.0316      6.8452      7.0312      7.6539      8.9045      11.121      14.784      20.343    
  29.416      44.637      66.462      92.885      178.76      206.10      221.31      221.31      206.11      178.76    
  144.18      107.71      74.311      47.889      30.274      20.345      14.558      10.893      8.7796      7.6763    
  7.2172      7.2172      7.6765      8.7798      10.892      14.557      20.343      30.273      47.890      74.315    
  107.71      144.18      246.39      274.63      284.85      274.63      246.40      206.10      160.58      115.92    
  77.134      47.888      29.415      19.563      13.914      10.483      8.6154      7.7365      7.4854      7.7370    
  8.6156      10.482      13.913      19.562      29.416      47.890      77.137      115.92      160.58      206.09    
  318.34      343.39      343.39      318.34      274.60      221.28      166.41      115.92      74.313      44.636    
  27.082      18.154      12.962      9.9701      8.4555      7.8494      7.8493      8.4554      9.9701      12.963    
  18.155      27.083      44.637      74.315      115.92      166.41      221.28      274.60      385.90      401.61    
  385.90      343.36      284.80      221.28      160.58      107.71      66.463      38.946      23.881      16.326    
  11.860      9.4444      8.3355      8.0254      8.3349      9.4440      11.860      16.326      23.881      38.946    
  66.462      107.71      160.58      221.28      284.80      343.36      435.68      435.68      401.59      343.36    
  274.60      206.09      144.18      92.888      55.278      32.177      20.491      14.332      10.767      8.9778    
  8.2742      8.2745      8.9783      10.766      14.332      20.491      32.177      55.277      92.885      144.18    
  206.09      274.60      343.36      401.60      437.54      419.94      372.52      307.87      238.61      173.14    
  116.34      71.807      41.756      25.126      16.972      12.245      9.6876      8.5187      8.1951      8.5209    
  9.6880      12.243      16.971      25.128      41.756      71.805      116.34      173.14      238.61      307.87    
  372.52      419.94      419.94      387.51      331.89      265.85      199.64      139.56      89.781      53.434    
  31.262      20.087      14.122      10.672      8.9414      8.2598      8.2605      8.9420      10.671      14.121    
  20.088      31.263      53.434      89.782      139.57      199.64      265.84      331.89      387.50      419.94    
  372.52      331.89      275.69      214.36      155.47      104.12      64.172      37.705      23.325      16.071    
  11.768      9.4467      8.3819      8.0851      8.3825      9.4463      11.767      16.071      23.325      37.704    
  64.172      104.13      155.48      214.36      275.68      331.89      372.52      387.49      307.87      265.85    
  214.36      161.14      112.08      71.727      43.126      26.357      17.845      12.857      9.9958      8.5509    
  7.9748      7.9758      8.5521      9.9949      12.856      17.846      26.358      43.124      71.725      112.08    
  161.14      214.36      265.85      307.87      331.86      331.86      238.61      199.64      155.47      112.08    
  74.447      46.231      28.563      19.197      13.787      10.519      8.7479      7.9161      7.6797      7.9178    
  8.7482      10.518      13.787      19.199      28.563      46.227      74.442      112.07      155.48      199.64    
  238.61      265.82      275.64      265.81      173.14      139.56      104.12      71.727      46.231      29.374    
  19.941      14.411      10.931      8.9365      7.8982      7.4670      7.4677      7.8987      8.9357      10.930    
  14.413      19.944      29.374      46.228      71.724      104.12      139.56      173.14      199.63      214.33    
  214.33      199.63      116.34      89.781      64.172      43.126      28.563      19.941      14.631      11.158    
  9.0736      7.9036      7.3228      7.1500      7.3235      7.9033      9.0721      11.158      14.633      19.944    
  28.566      43.129      64.172      89.777      116.34      139.58      155.50      161.16      155.50      139.59    
  71.807      53.434      37.705      26.357      19.197      14.411      11.158      9.1242      7.9137      7.2395    
  6.9399      6.9405      7.2402      7.9129      9.1224      11.157      14.411      19.198      26.361      37.709    
  53.436      71.804      89.824      104.19      112.16      112.16      104.20      89.830      41.756      31.262    
  23.325      17.845      13.787      10.931      9.0736      7.9137      7.2126      6.8338      6.7139      6.8345    
  7.2133      7.9139      9.0731      10.929      13.783      17.843      23.326      31.267      41.760      53.486    
  64.270      71.853      74.582      71.855      64.272      53.485      25.126      20.087      16.071      12.857    
  10.519      8.9365      7.9036      7.2395      6.8338      6.6381      6.6382      6.8342      7.2406      7.9056    
  8.9380      10.518      12.853      16.066      20.085      25.128      31.297      37.785      43.247      46.371    
  46.370      43.243      37.781      31.293      16.972      14.122      11.768      9.9958      8.7479      7.8982    
  7.3228      6.9399      6.7139      6.6382      6.7135      6.9393      7.3232      7.9005      8.7516      9.9983    
  11.767      14.117      16.967      20.084      23.348      26.416      28.649      29.467      28.645      26.412    
  23.346      20.087      12.245      10.672      9.4467      8.5509      7.9161      7.4670      7.1500      6.9405    
  6.8345      6.8342      6.9393      7.1479      7.4654      7.9171      8.5549      9.4515      10.675      12.244    
  14.087      16.029      17.814      19.185      19.941      19.940      19.184      17.815      16.033      14.092    
  9.6876      8.9414      8.3819      7.9748      7.6797      7.4677      7.3235      7.2402      7.2133      7.2406    
  7.3232      7.4654      7.6761      7.9721      8.3825      8.9455      9.6927      10.624      11.682      12.751    
  13.675      14.303      14.526      14.305      13.679      12.755      11.683      10.621      8.5187      8.2598    
  8.0851      7.9758      7.9178      7.8987      7.9033      7.9129      7.9139      7.9056      7.9005      7.9171    
  7.9721      8.0801      8.2568      8.5200      8.8816      9.3349      9.8425      10.337      10.733      10.955    
  10.956      10.736      10.338      9.8407      9.3301      8.8769      8.1951      8.2605      8.3825      8.5521    
  8.7482      8.9357      9.0721      9.1224      9.0731      8.9380      8.7516      8.5549      8.3825      8.2568    
  8.1899      8.1870      8.2483      8.3662      8.5206      8.6777      8.7962      8.8405      8.7959      8.6760    
  8.5171      8.3627      8.2476      8.1902      8.5209      8.9420      9.4463      9.9949      10.518      10.930    
  11.158      11.157      10.929      10.518      9.9983      9.4515      8.9455      8.5200      8.1870      7.9403    
  7.7679      7.6581      7.5994      7.5763      7.5707      7.5698      7.5739      7.5969      7.6572      7.7701    
  7.9452      8.1916      9.6880      10.671      11.767      12.856      13.787      14.413      14.633      14.411    
  13.783      12.853      11.767      10.675      9.6927      8.8816      8.2483      7.7679      7.4081      7.1446    
  6.9634      6.8570      6.8214      6.8559      6.9630      7.1465      7.4117      7.7709      8.2484      8.8784    
  12.243      14.121      16.071      17.846      19.199      19.944      19.944      19.198      17.843      16.066    
  14.117      12.244      10.624      9.3349      8.3662      7.6581      7.1446      6.7781      6.5357      6.4133    
  6.4134      6.5364      6.7801      7.1472      7.6588      8.3634      9.3298      10.620      16.971      20.088    
  23.325      26.358      28.563      29.374      28.566      26.361      23.326      20.085      16.967      14.087    
  11.682      9.8425      8.5206      7.5994      6.9634      6.5357      6.2829      6.1987      6.2838      6.5367    
  6.9635      7.5976      8.5173      9.8398      11.682      14.091      25.128      31.263      37.704      43.124    
  46.227      46.228      43.129      37.709      31.267      25.128      20.084      16.029      12.751      10.337    
  8.6777      7.5763      6.8570      6.4133      6.1987      6.1991      6.4137      6.8561      7.5740      8.6756    
  10.337      12.754      16.033      20.088      41.756      53.434      64.172      71.725      74.442      71.724    
  64.172      53.436      41.760      31.297      23.348      17.814      13.675      10.733      8.7962      7.5707    
  6.8214      6.4134      6.2838      6.4137      6.8208      7.5693      8.7960      10.735      13.678      17.816    
  23.348      31.295      71.805      89.782      104.13      112.08      112.07      104.12      89.777      71.804    
  53.486      37.785      26.416      19.185      14.303      10.955      8.8405      7.5698      6.8559      6.5364    
  6.5367      6.8561      7.5693      8.8410      10.957      14.305      19.184      26.413      37.781      53.483    
  116.34      139.57      155.48      161.14      155.48      139.56      116.34      89.824      64.270      43.247    
  28.649      19.941      14.526      10.956      8.7959      7.5739      6.9630      6.7801      6.9635      7.5740    
  8.7960      10.957      14.526      19.939      28.645      43.244      64.270      89.826      173.14      199.64    
  214.36      214.36      199.64      173.14      139.58      104.19      71.853      46.371      29.467      19.940    
  14.305      10.736      8.6760      7.5969      7.1465      7.1472      7.5976      8.6756      10.735      14.305    
  19.939      29.465      46.370      71.856      104.20      139.58      238.61      265.84      275.68      265.85    
  238.61      199.63      155.50      112.16      74.582      46.370      28.645      19.184      13.679      10.338    
  8.5171      7.6572      7.4117      7.6588      8.5173      10.337      13.678      19.184      28.645      46.370    
  74.585      112.16      155.50      199.63      307.87      331.89      331.89      307.87      265.82      214.33    
  161.16      112.16      71.855      43.243      26.412      17.815      12.755      9.8407      8.3627      7.7701    
  7.7709      8.3634      9.8398      12.754      17.816      26.413      43.244      71.856      112.16      161.16    
  214.33      265.81      372.52      387.50      372.52      331.86      275.64      214.33      155.50      104.20    
  64.272      37.781      23.346      16.033      11.683      9.3301      8.2476      7.9452      8.2484      9.3298    
  11.682      16.033      23.348      37.781      64.270      104.20      155.50      214.33      275.64      331.86    
  419.94      419.94      387.49      331.86      265.81      199.63      139.59      89.830      53.485      31.293    
  20.087      14.092      10.621      8.8769      8.1902      8.1916      8.8784      10.620      14.091      20.088    
  31.295      53.483      89.826      139.58      199.63      265.81      331.86      387.49      392.32      377.11    
  335.86      278.87      216.78      157.25      105.35      64.923      38.074      23.444      16.075      11.706    
  9.3433      8.2580      7.9571      8.2617      9.3437      11.702      16.075      23.448      38.075      64.919    
  105.34      157.25      216.78      278.87      335.86      377.12      377.11      348.94      300.15      241.32    
  181.42      126.56      81.175      48.448      28.835      18.958      13.442      10.258      8.6550      8.0204    
  8.0222      8.6566      10.256      13.440      18.960      28.837      48.446      81.175      126.56      181.42    
  241.32      300.15      348.94      377.11      335.86      300.15      250.15      194.81      141.10      94.206    
  58.056      34.501      21.859      15.247      11.272      9.1267      8.1361      7.8593      8.1382      9.1263    
  11.270      15.248      21.861      34.500      58.055      94.210      141.11      194.81      250.14      300.15    
  335.86      348.93      278.87      241.32      194.81      146.28      101.45      64.850      39.290      24.533    
  16.896      12.280      9.6372      8.2949      7.7558      7.7578      8.2970      9.6354      12.278      16.897    
  24.534      39.287      64.848      101.45      146.29      194.81      241.32      278.87      300.12      300.12    
  216.78      181.42      141.10      101.45      67.301      42.042      26.470      18.152      13.139      10.122    
  8.4793      7.7006      7.4784      7.7034      8.4796      10.120      13.139      18.154      26.470      42.037    
  67.297      101.45      141.10      181.42      216.79      241.30      250.11      241.30      157.25      126.56    
  94.206      64.850      42.042      27.182      18.833      13.716      10.502      8.6552      7.6839      7.2767    
  7.2781      7.6852      8.6538      10.502      13.718      18.835      27.181      42.038      64.847      94.204    
  126.55      157.25      181.42      194.79      194.79      181.42      105.35      81.175      58.056      39.290    
  26.470      18.833      13.919      10.712      8.7826      7.6895      7.1403      6.9759      7.1418      7.6891    
  8.7804      10.712      13.922      18.835      26.472      39.292      58.057      81.171      105.34      126.58    
  141.13      146.31      141.13      126.58      64.923      48.448      34.501      24.533      18.152      13.716    
  10.712      8.8295      7.6994      7.0620      6.7759      6.7769      7.0629      7.6979      8.8272      10.711    
  13.716      18.153      24.537      34.506      48.450      64.919      81.213      94.275      101.53      101.53    
  94.279      81.220      38.074      28.835      21.859      16.896      13.139      10.502      8.7826      7.6994    
  7.0369      6.6750      6.5600      6.6761      7.0374      7.6988      8.7817      10.501      13.135      16.894    
  21.861      28.841      38.078      48.490      58.140      64.960      67.421      64.962      58.143      48.491    
  23.444      18.958      15.247      12.280      10.122      8.6552      7.6895      7.0620      6.6750      6.4873    
  6.4877      6.6757      7.0630      7.6910      8.6563      10.121      12.275      15.243      18.957      23.447    
  28.861      34.563      39.386      42.155      42.154      39.383      34.560      28.857      16.075      13.442    
  11.272      9.6372      8.4793      7.6839      7.1403      6.7759      6.5600      6.4877      6.5598      6.7756    
  7.1409      7.6864      8.4828      9.6390      11.271      13.437      16.070      18.948      21.865      24.567    
  26.525      27.242      26.520      24.561      21.863      18.950      11.706      10.258      9.1267      8.2949    
  7.7006      7.2767      6.9759      6.7769      6.6761      6.6757      6.7756      6.9740      7.2756      7.7022    
  8.2991      9.1312      10.260      11.704      13.400      15.191      16.843      18.111      18.800      18.799    
  18.109      16.844      15.195      13.405      9.3433      8.6550      8.1361      7.7558      7.4784      7.2781    
  7.1418      7.0629      7.0374      7.0630      7.1409      7.2756      7.4751      7.7539      8.1374      8.6593    
  9.3481      10.203      11.175      12.156      13.005      13.582      13.787      13.584      13.008      12.160    
  11.176      10.201      8.2580      8.0204      7.8593      7.7578      7.7034      7.6852      7.6891      7.6979    
  7.6988      7.6910      7.6864      7.7022      7.7539      7.8547      8.0182      8.2600      8.5910      9.0054    
  9.4694      9.9209      10.283      10.485      10.487      10.286      9.9230      9.4681      9.0009      8.5861    
  7.9571      8.0222      8.1382      8.2970      8.4796      8.6538      8.7804      8.8272      8.7817      8.6563    
  8.4828      8.2991      8.1374      8.0182      7.9521      7.9443      7.9952      8.0986      8.2364      8.3779    
  8.4850      8.5252      8.4851      8.3768      8.2333      8.0949      7.9938      7.9468      8.2617      8.6566    
  9.1263      9.6354      10.120      10.502      10.712      10.711      10.501      10.121      9.6390      9.1312    
  8.6593      8.2600      7.9443      7.7073      7.5389      7.4295      7.3694      7.3445      7.3377      7.3368    
  7.3423      7.3668      7.4282      7.5404      7.7117      7.9492      9.3437      10.256      11.270      12.278    
  13.139      13.718      13.922      13.716      13.135      12.275      11.271      10.260      9.3481      8.5910    
  7.9952      7.5389      7.1939      6.9399      6.7651      6.6626      6.6283      6.6613      6.7643      6.9413    
  7.1973      7.5420      7.9961      8.5886      11.702      13.440      15.248      16.897      18.154      18.835    
  18.835      18.153      16.894      15.243      13.437      11.704      10.203      9.0054      8.0986      7.4295    
  6.9399      6.5884      6.3557      6.2381      6.2380      6.3561      6.5903      6.9426      7.4308      8.0965    
  9.0007      10.199      16.075      18.960      21.861      24.534      26.470      27.181      26.472      24.537    
  21.861      18.957      16.070      13.400      11.175      9.4694      8.2364      7.3694      6.7651      6.3557    
  6.1127      6.0316      6.1135      6.3568      6.7654      7.3682      8.2335      9.4664      11.174      13.403    
  23.448      28.837      34.500      39.287      42.037      42.038      39.292      34.506      28.841      23.447    
  18.948      15.191      12.156      9.9209      8.3779      7.3445      6.6626      6.2381      6.0316      6.0322    
  6.2387      6.6618      7.3423      8.3757      9.9204      12.158      15.195      18.952      38.075      48.446    
  58.055      64.848      67.297      64.847      58.057      48.450      38.078      28.861      21.865      16.843    
  13.005      10.283      8.4850      7.3377      6.6283      6.2380      6.1135      6.2387      6.6278      7.3359    
  8.4844      10.285      13.008      16.845      21.866      28.859      64.919      81.175      94.210      101.45    
  101.45      94.204      81.171      64.919      48.490      34.563      24.567      18.111      13.582      10.485    
  8.5252      7.3368      6.6613      6.3561      6.3568      6.6618      7.3359      8.5250      10.488      13.584    
  18.111      24.563      34.560      48.488      105.34      126.56      141.11      146.29      141.10      126.55    
  105.34      81.213      58.140      39.386      26.525      18.800      13.787      10.487      8.4851      7.3423    
  6.7643      6.5903      6.7654      7.3423      8.4844      10.488      13.788      18.799      26.520      39.383    
  58.140      81.215      157.25      181.42      194.81      194.81      181.42      157.25      126.58      94.275    
  64.960      42.155      27.242      18.799      13.584      10.286      8.3768      7.3668      6.9413      6.9426    
  7.3682      8.3757      10.285      13.584      18.799      27.239      42.153      64.963      94.279      126.58    
  216.78      241.32      250.14      241.32      216.79      181.42      141.13      101.53      67.421      42.154    
  26.520      18.109      13.008      9.9230      8.2333      7.4282      7.1973      7.4308      8.2335      9.9204    
  13.008      18.111      26.520      42.153      67.424      101.54      141.13      181.42      278.87      300.15    
  300.15      278.87      241.30      194.79      146.31      101.53      64.962      39.383      24.561      16.844    
  12.160      9.4681      8.0949      7.5404      7.5420      8.0965      9.4664      12.158      16.845      24.563    
  39.383      64.963      101.54      146.31      194.79      241.30      335.86      348.94      335.86      300.12    
  250.11      194.79      141.13      94.279      58.143      34.560      21.863      15.195      11.176      9.0009    
  7.9938      7.7117      7.9961      9.0007      11.174      15.195      21.866      34.560      58.140      94.279    
  141.13      194.79      250.11      300.13      377.12      377.11      348.93      300.12      241.30      181.42    
  126.58      81.220      48.491      28.857      18.950      13.405      10.201      8.5861      7.9468      7.9492    
  8.5886      10.199      13.403      18.952      28.859      48.488      81.215      126.58      181.42      241.30    
  300.13      348.93      329.81      317.64      284.27      237.24      184.83      133.73      89.136      54.949    
  32.862      21.050      14.716      10.888      8.8146      7.8520      7.5834      7.8569      8.8149      10.883    
  14.716      21.055      32.863      54.943      89.134      133.74      184.83      237.24      284.27      317.64    
  317.64      294.91      254.93      205.68      154.53      107.31      68.594      41.318      25.418      17.268    
  12.412      9.6256      8.2112      7.6450      7.6477      8.2137      9.6226      12.410      17.271      25.421    
  41.315      68.592      107.32      154.54      205.67      254.92      294.91      317.64      284.27      254.93    
  213.14      166.02      119.82      79.636      49.241      29.981      19.751      14.000      10.519      8.6334    
  7.7517      7.5035      7.7550      8.6330      10.516      14.000      19.754      29.981      49.239      79.640    
  119.83      166.02      213.13      254.92      284.26      294.90      237.24      205.68      166.02      124.28    
  85.806      54.889      33.854      21.949      15.455      11.404      9.0867      7.8958      7.4109      7.4136    