Cd                                      
   1.00000000000000     
     3.037160    0.000000    0.000000
     1.518580    2.630258    0.000000
     0.000000    0.000000    5.770610
   Cd
     2
Direct
  0.000000  0.000000  0.000000
  0.333333  0.333333  0.500000
 
   28   28   56
 0.45419942255E+03 0.43567934947E+03 0.38589952838E+03 0.31833491835E+03 0.24639328650E+03
 0.17876191243E+03 0.12023341154E+03 0.74262129351E+02 0.43084590106E+02 0.25734476712E+02
 0.17284939988E+02 0.12433541225E+02 0.98071650327E+01 0.86089054224E+01 0.82766948401E+01
 0.86097049194E+01 0.98075395822E+01 0.12432918540E+02 0.17284278879E+02 0.25734801342E+02
 0.43085413960E+02 0.74262163915E+02 0.12023248211E+03 0.17876121284E+03 0.24639365969E+03
 0.31833576982E+03 0.38589986706E+03 0.43567918827E+03 0.43567934947E+03 0.40161110328E+03
 0.34339715491E+03 0.27463124770E+03 0.20610318679E+03 0.14416038245E+03 0.92837883491E+02
 0.55224344812E+02 0.32142808997E+02 0.20487621293E+02 0.14358928185E+02 0.10816096891E+02
 0.90406546665E+01 0.83421636934E+01 0.83418240204E+01 0.90402069143E+01 0.10816297152E+02
 0.14359408958E+02 0.20487458483E+02 0.32142258033E+02 0.55224989093E+02 0.92840552223E+02
 0.14416351302E+03 0.20610397704E+03 0.27462837633E+03 0.34339199580E+03 0.40160646560E+03
 0.43567753112E+03 0.38589952838E+03 0.34339715491E+03 0.28485190656E+03 0.22130821397E+03
 0.16055706547E+03 0.10763627013E+03 0.66359355774E+02 0.38863744584E+02 0.23853058317E+02
 0.16358326130E+02 0.11940150796E+02 0.95573888918E+01 0.84667018452E+01 0.81622037572E+01
 0.84658747877E+01 0.95570678818E+01 0.11940822265E+02 0.16358707502E+02 0.23852059923E+02
 0.38862522190E+02 0.66360235400E+02 0.10763966021E+03 0.16056038979E+03 0.22130833693E+03
 0.28484817948E+03 0.34339185381E+03 0.38589585353E+03 0.40159107293E+03 0.31833491835E+03
 0.27463124770E+03 0.22130821397E+03 0.16639882311E+03 0.11583899236E+03 0.74180454178E+02
 0.44510066690E+02 0.27018393577E+02 0.18176250879E+02 0.13058723893E+02 0.10119864001E+02
 0.86391463307E+01 0.80497474384E+01 0.80498947375E+01 0.86393826872E+01 0.10119893176E+02
 0.13058561693E+02 0.18176002118E+02 0.27017820351E+02 0.44508863424E+02 0.74179020407E+02
 0.11583845634E+03 0.16639994066E+03 0.22131045282E+03 0.27463330499E+03 0.31833601716E+03
 0.34336022775E+03 0.34335994368E+03 0.24639328650E+03 0.20610318679E+03 0.16055706547E+03
 0.11583899236E+03 0.76994169140E+02 0.47739097260E+02 0.29322061764E+02 0.19565874385E+02
 0.14012853046E+02 0.10656787411E+02 0.88403940531E+01 0.79900380222E+01 0.77481210445E+01
 0.79904860031E+01 0.88405864177E+01 0.10656618344E+02 0.14013133380E+02 0.19566830273E+02
 0.29322241527E+02 0.47736778894E+02 0.76989872342E+02 0.11583580376E+03 0.16055801043E+03
 0.20610844760E+03 0.24640004181E+03 0.27459994417E+03 0.28479837838E+03 0.27459538607E+03
 0.17876191243E+03 0.14416038245E+03 0.10763627013E+03 0.74180454178E+02 0.47739097260E+02
 0.30168963161E+02 0.20334839689E+02 0.14654158766E+02 0.11079612306E+02 0.90332710805E+01
 0.79715574162E+01 0.75318678627E+01 0.75318054334E+01 0.79713646504E+01 0.90330868916E+01
 0.11079875895E+02 0.14655282913E+02 0.20336530158E+02 0.30170005513E+02 0.47738214958E+02
 0.74177684867E+02 0.10763342472E+03 0.14415975698E+03 0.17876418705E+03 0.20609512659E+03
 0.22127770250E+03 0.22127612211E+03 0.20609176309E+03 0.12023341154E+03 0.92837883491E+02
 0.66359355774E+02 0.44510066690E+02 0.29322061764E+02 0.20334839689E+02 0.14880507163E+02
 0.11313381435E+02 0.91736946667E+01 0.79767307793E+01 0.73850974455E+01 0.72090587004E+01
 0.73850465296E+01 0.79764639572E+01 0.91730668336E+01 0.11312698104E+02 0.14880730237E+02
 0.20336880818E+02 0.29325514548E+02 0.44512895918E+02 0.66359378644E+02 0.92834725151E+02
 0.12022879972E+03 0.14418026008E+03 0.16057690429E+03 0.16641457548E+03 0.16057888619E+03
 0.14418411774E+03 0.74262129351E+02 0.55224344812E+02 0.38863744584E+02 0.27018393577E+02
 0.19565874385E+02 0.14654158766E+02 0.11313381435E+02 0.92256158049E+01 0.79867377395E+01
 0.73000091566E+01 0.69958293487E+01 0.69960245418E+01 0.73003463219E+01 0.79865863220E+01
 0.92244235029E+01 0.11311407460E+02 0.14652773635E+02 0.19566716961E+02 0.27021797744E+02
 0.38867927968E+02 0.55226416200E+02 0.74260264989E+02 0.92882655412E+02 0.10770922559E+03
 0.11592156641E+03 0.11592376303E+03 0.10771445012E+03 0.92887687201E+02 0.43084590106E+02
 0.32142808997E+02 0.23853058317E+02 0.18176250879E+02 0.14012853046E+02 0.11079612306E+02
 0.91736946667E+01 0.79867377395E+01 0.72724843699E+01 0.68880538084E+01 0.67664028607E+01
 0.68882512009E+01 0.72731556761E+01 0.79876105159E+01 0.91735857600E+01 0.11077437450E+02
 0.14009172801E+02 0.18173473694E+02 0.23853564561E+02 0.32146601767E+02 0.43088981063E+02
 0.55279610180E+02 0.66461567951E+02 0.74311347804E+02 0.77134206756E+02 0.74313100326E+02
 0.66462580988E+02 0.55277642987E+02 0.25734476712E+02 0.20487621293E+02 0.16358326130E+02
 0.13058723893E+02 0.10656787411E+02 0.90332710805E+01 0.79767307793E+01 0.73000091566E+01
 0.68880538084E+01 0.66896156110E+01 0.66894014938E+01 0.68879982914E+01 0.73011113642E+01
 0.79789402163E+01 0.90349752218E+01 0.10656029866E+02 0.13055135944E+02 0.16353847453E+02
 0.20485144809E+02 0.25735606444E+02 0.32180937604E+02 0.38950773829E+02 0.44638920149E+02
 0.47888801977E+02 0.47887616086E+02 0.44635547366E+02 0.38946118266E+02 0.32176949301E+02
 0.17284939988E+02 0.14358928185E+02 0.11940150796E+02 0.10119864001E+02 0.88403940531E+01
 0.79715574162E+01 0.73850974455E+01 0.69958293487E+01 0.67664028607E+01 0.66894014938E+01
 0.67656541817E+01 0.69949245679E+01 0.73851724453E+01 0.79735980840E+01 0.88440225008E+01
 0.10122913628E+02 0.11940060380E+02 0.14355075128E+02 0.17279651721E+02 0.20487586608E+02
 0.23882283034E+02 0.27086152667E+02 0.29418791146E+02 0.30274056851E+02 0.29415108859E+02
 0.27081841333E+02 0.23880993830E+02 0.20490621436E+02 0.12433541225E+02 0.10816096891E+02
 0.95573888918E+01 0.86391463307E+01 0.79900380222E+01 0.75318678627E+01 0.72090587004E+01
 0.69960245418E+01 0.68882512009E+01 0.68879982914E+01 0.69949245679E+01 0.72069226657E+01
 0.75298989308E+01 0.79903814091E+01 0.86427202932E+01 0.95623656140E+01 0.10819039924E+02
 0.12432346528E+02 0.14327727510E+02 0.16321359792E+02 0.18152372070E+02 0.19563068688E+02
 0.20345516216E+02 0.20345128431E+02 0.19562928037E+02 0.18154309739E+02 0.16325616025E+02
 0.14332004830E+02 0.98071650327E+01 0.90406546665E+01 0.84667018452E+01 0.80497474384E+01
 0.77481210445E+01 0.75318054334E+01 0.73850465296E+01 0.73003463219E+01 0.72731556761E+01
 0.73011113642E+01 0.73851724453E+01 0.75298989308E+01 0.77444429932E+01 0.80465249526E+01
 0.84665305999E+01 0.90442119330E+01 0.98123622380E+01 0.10770204846E+02 0.11859308992E+02
 0.12958979617E+02 0.13909625133E+02 0.14555202694E+02 0.14784715450E+02 0.14558041871E+02
 0.13913962657E+02 0.12962424190E+02 0.11859545658E+02 0.10766702034E+02 0.86089054224E+01
 0.83421636934E+01 0.81622037572E+01 0.80498947375E+01 0.79904860031E+01 0.79713646504E+01
 0.79764639572E+01 0.79865863220E+01 0.79876105159E+01 0.79789402163E+01 0.79735980840E+01
 0.79903814091E+01 0.80465249526E+01 0.81571018524E+01 0.83386580529E+01 0.86095430108E+01
 0.89821629475E+01 0.94492903522E+01 0.99724712438E+01 0.10481704069E+02 0.10890144028E+02
 0.11118676533E+02 0.11119878755E+02 0.10892546414E+02 0.10482653130E+02 0.99701014801E+01
 0.94443649280E+01 0.89778310361E+01 0.82766948401E+01 0.83418240204E+01 0.84658747877E+01
 0.86393826872E+01 0.88405864177E+01 0.90330868916E+01 0.91730668336E+01 0.92244235029E+01
 0.91735857600E+01 0.90349752218E+01 0.88440225008E+01 0.86427202932E+01 0.84665305999E+01
 0.83386580529E+01 0.82714775049E+01 0.82704296427E+01 0.83355148234E+01 0.84586286281E+01
 0.86190069306E+01 0.87817908592E+01 0.89042680709E+01 0.89498589921E+01 0.89035815902E+01
 0.87796095088E+01 0.86153878509E+01 0.84555407059E+01 0.83355382151E+01 0.82742077190E+01
 0.86097049194E+01 0.90402069143E+01 0.95570678818E+01 0.10119893176E+02 0.10656618344E+02
 0.11079875895E+02 0.11312698104E+02 0.11311407460E+02 0.11077437450E+02 0.10656029866E+02
 0.10122913628E+02 0.95623656140E+01 0.90442119330E+01 0.86095430108E+01 0.82704296427E+01
 0.80203499980E+01 0.78465679512E+01 0.77368401177E+01 0.76787106665E+01 0.76561965997E+01
 0.76509616129E+01 0.76500384052E+01 0.76538604941E+01 0.76763451796E+01 0.77364532287E+01
 0.78494212297E+01 0.80254181063E+01 0.82745404962E+01 0.98075395822E+01 0.10816297152E+02
 0.11940822265E+02 0.13058561693E+02 0.14013133380E+02 0.14655282913E+02 0.14880730237E+02
 0.14652773635E+02 0.14009172801E+02 0.13055135944E+02 0.11940060380E+02 0.10819039924E+02
 0.98123622380E+01 0.89821629475E+01 0.83355148234E+01 0.78465679512E+01 0.74816799800E+01
 0.72149795248E+01 0.70315520457E+01 0.69237365179E+01 0.68877374927E+01 0.69229556187E+01
 0.70315775184E+01 0.72171704750E+01 0.74853934543E+01 0.78492968005E+01 0.83349456010E+01
 0.89782607042E+01 0.12432918540E+02 0.14359408958E+02 0.16358707502E+02 0.18176002118E+02
 0.19566830273E+02 0.20336530158E+02 0.20336880818E+02 0.19566716961E+02 0.18173473694E+02
 0.16353847453E+02 0.14355075128E+02 0.12432346528E+02 0.10770204846E+02 0.94492903522E+01
 0.84586286281E+01 0.77368401177E+01 0.72149795248E+01 0.68431280009E+01 0.65974563025E+01
 0.64734289438E+01 0.64736420187E+01 0.65984654826E+01 0.68452494797E+01 0.72171903676E+01
 0.77369646238E+01 0.84553550202E+01 0.94440275656E+01 0.10766488484E+02 0.17284278879E+02
 0.20487458483E+02 0.23852059923E+02 0.27017820351E+02 0.29322241527E+02 0.30170005513E+02
 0.29325514548E+02 0.27021797744E+02 0.23853564561E+02 0.20485144809E+02 0.17279651721E+02
 0.14327727510E+02 0.11859308992E+02 0.99724712438E+01 0.86190069306E+01 0.76787106665E+01
 0.70315520457E+01 0.65974563025E+01 0.63412733211E+01 0.62560274447E+01 0.63421243274E+01
 0.65983229817E+01 0.70312070951E+01 0.76764638735E+01 0.86156250914E+01 0.99700976481E+01
 0.11859981885E+02 0.14331537249E+02 0.25734801342E+02 0.32142258033E+02 0.38862522190E+02
 0.44508863424E+02 0.47736778894E+02 0.47738214958E+02 0.44512895918E+02 0.38867927968E+02
 0.32146601767E+02 0.25735606444E+02 0.20487586608E+02 0.16321359792E+02 0.12958979617E+02
 0.10481704069E+02 0.87817908592E+01 0.76561965997E+01 0.69237365179E+01 0.64734289438E+01
 0.62560274447E+01 0.62562149733E+01 0.64734746196E+01 0.69226887172E+01 0.76539478971E+01
 0.87797856477E+01 0.10482073878E+02 0.12962545470E+02 0.16326386556E+02 0.20490809069E+02
 0.43085413960E+02 0.55224989093E+02 0.66360235400E+02 0.74179020407E+02 0.76989872342E+02
 0.74177684867E+02 0.66359378644E+02 0.55226416200E+02 0.43088981063E+02 0.32180937604E+02
 0.23882283034E+02 0.18152372070E+02 0.13909625133E+02 0.10890144028E+02 0.89042680709E+01
 0.76509616129E+01 0.68877374927E+01 0.64736420187E+01 0.63421243274E+01 0.64734746196E+01
 0.68870993585E+01 0.76501608073E+01 0.89045122654E+01 0.10892347521E+02 0.13912966296E+02
 0.18154513375E+02 0.23881387971E+02 0.32177479364E+02 0.74262163915E+02 0.92840552223E+02
 0.10763966021E+03 0.11583845634E+03 0.11583580376E+03 0.10763342472E+03 0.92834725151E+02
 0.74260264989E+02 0.55279610180E+02 0.38950773829E+02 0.27086152667E+02 0.19563068688E+02
 0.14555202694E+02 0.11118676533E+02 0.89498589921E+01 0.76500384052E+01 0.69229556187E+01
 0.65984654826E+01 0.65983229817E+01 0.69226887172E+01 0.76501608073E+01 0.89509963832E+01
 0.11120774368E+02 0.14556915522E+02 0.19562450376E+02 0.27082503485E+02 0.38945898280E+02
 0.55276914699E+02 0.12023248211E+03 0.14416351302E+03 0.16056038979E+03 0.16639994066E+03
 0.16055801043E+03 0.14415975698E+03 0.12022879972E+03 0.92882655412E+02 0.66461567951E+02
 0.44638920149E+02 0.29418791146E+02 0.20345516216E+02 0.14784715450E+02 0.11119878755E+02
 0.89035815902E+01 0.76538604941E+01 0.70315775184E+01 0.68452494797E+01 0.70312070951E+01
 0.76539478971E+01 0.89045122654E+01 0.11120774368E+02 0.14784209843E+02 0.20343234502E+02
 0.29415836697E+02 0.44636976184E+02 0.66461723235E+02 0.92884964158E+02 0.17876121284E+03
 0.20610397704E+03 0.22130833693E+03 0.22131045282E+03 0.20610844760E+03 0.17876418705E+03
 0.14418026008E+03 0.10770922559E+03 0.74311347804E+02 0.47888801977E+02 0.30274056851E+02
 0.20345128431E+02 0.14558041871E+02 0.10892546414E+02 0.87796095088E+01 0.76763451796E+01
 0.72171704750E+01 0.72171903676E+01 0.76764638735E+01 0.87797856477E+01 0.10892347521E+02
 0.14556915522E+02 0.20343234502E+02 0.30272727378E+02 0.47889684720E+02 0.74314634468E+02
 0.10771278371E+03 0.14418108042E+03 0.24639365969E+03 0.27462837633E+03 0.28484817948E+03
 0.27463330499E+03 0.24640004181E+03 0.20609512659E+03 0.16057690429E+03 0.11592156641E+03
 0.77134206756E+02 0.47887616086E+02 0.29415108859E+02 0.19562928037E+02 0.13913962657E+02
 0.10482653130E+02 0.86153878509E+01 0.77364532287E+01 0.74853934543E+01 0.77369646238E+01
 0.86156250914E+01 0.10482073878E+02 0.13912966296E+02 0.19562450376E+02 0.29415836697E+02
 0.47889684720E+02 0.77137138722E+02 0.11592400153E+03 0.16057678020E+03 0.20609117740E+03
 0.31833576982E+03 0.34339199580E+03 0.34339185381E+03 0.31833601716E+03 0.27459994417E+03
 0.22127770250E+03 0.16641457548E+03 0.11592376303E+03 0.74313100326E+02 0.44635547366E+02
 0.27081841333E+02 0.18154309739E+02 0.12962424190E+02 0.99701014801E+01 0.84555407059E+01
 0.78494212297E+01 0.78492968005E+01 0.84553550202E+01 0.99700976481E+01 0.12962545470E+02
 0.18154513375E+02 0.27082503485E+02 0.44636976184E+02 0.74314634468E+02 0.11592400153E+03
 0.16641290758E+03 0.22127522809E+03 0.27459835911E+03 0.38589986706E+03 0.40160646560E+03
 0.38589585353E+03 0.34336022775E+03 0.28479837838E+03 0.22127612211E+03 0.16057888619E+03
 0.10771445012E+03 0.66462580988E+02 0.38946118266E+02 0.23880993830E+02 0.16325616025E+02
 0.11859545658E+02 0.94443649280E+01 0.83355382151E+01 0.80254181063E+01 0.83349456010E+01
 0.94440275656E+01 0.11859981885E+02 0.16326386556E+02 0.23881387971E+02 0.38945898280E+02
 0.66461723235E+02 0.10771278371E+03 0.16057678020E+03 0.22127522809E+03 0.28480050897E+03
 0.34336493769E+03 0.43567918827E+03 0.43567753112E+03 0.40159107293E+03 0.34335994368E+03
 0.27459538607E+03 0.20609176309E+03 0.14418411774E+03 0.92887687201E+02 0.55277642987E+02
 0.32176949301E+02 0.20490621436E+02 0.14332004830E+02 0.10766702034E+02 0.89778310361E+01
 0.82742077190E+01 0.82745404962E+01 0.89782607042E+01 0.10766488484E+02 0.14331537249E+02
 0.20490809069E+02 0.32177479364E+02 0.55276914699E+02 0.92884964158E+02 0.14418108042E+03
 0.20609117740E+03 0.27459835911E+03 0.34336493769E+03 0.40159539323E+03 0.43754459929E+03
 0.41994133801E+03 0.37252092957E+03 0.30786729476E+03 0.23860836285E+03 0.17313875758E+03
 0.11634192972E+03 0.71806849438E+02 0.41755647421E+02 0.25125827576E+02 0.16971755411E+02
 0.12245436878E+02 0.96876043073E+01 0.85186627305E+01 0.81950558246E+01 0.85209339102E+01
 0.96879660003E+01 0.12243361786E+02 0.16971216056E+02 0.25127789465E+02 0.41756440366E+02
 0.71804959906E+02 0.11634020273E+03 0.17313884125E+03 0.23860872451E+03 0.30786756852E+03
 0.37252266632E+03 0.41994369817E+03 0.41994133801E+03 0.38750571415E+03 0.33189220941E+03
 0.26584513699E+03 0.19963927739E+03 0.13956144259E+03 0.89780914906E+02 0.53434040731E+02
 0.31262275257E+02 0.20086969512E+02 0.14121523544E+02 0.10672179665E+02 0.89414444319E+01
 0.82597680837E+01 0.82604699630E+01 0.89420121178E+01 0.10671274515E+02 0.14120942415E+02
 0.20087963369E+02 0.31262947695E+02 0.53433659900E+02 0.89782240108E+02 0.13956514398E+03
 0.19964083634E+03 0.26584140354E+03 0.33188655515E+03 0.38750268409E+03 0.41994079677E+03
 0.37252092957E+03 0.33189220941E+03 0.27568700757E+03 0.21435815177E+03 0.15547388007E+03
 0.10412135633E+03 0.64172325214E+02 0.37704719098E+02 0.23324538606E+02 0.16070815221E+02
 0.11767849166E+02 0.94466677077E+01 0.83819283928E+01 0.80850595807E+01 0.83825272932E+01
 0.94463074357E+01 0.11767001420E+02 0.16071107717E+02 0.23324987326E+02 0.37703707358E+02
 0.64172173306E+02 0.10412520777E+03 0.15547893517E+03 0.21435817117E+03 0.27568124703E+03
 0.33188603019E+03 0.37251803120E+03 0.38748729622E+03 0.30786729476E+03 0.26584513699E+03
 0.21435815177E+03 0.16114195088E+03 0.11207561314E+03 0.71726809376E+02 0.43126351277E+02
 0.26357497770E+02 0.17845256444E+02 0.12857447639E+02 0.99958092803E+01 0.85509074036E+01
 0.79747535743E+01 0.79758441976E+01 0.85521005871E+01 0.99949120774E+01 0.12856278987E+02
 0.17845747815E+02 0.26357660526E+02 0.43124308128E+02 0.71725031486E+02 0.11207685899E+03
 0.16114447775E+03 0.21435906432E+03 0.26584512543E+03 0.30786813718E+03 0.33185774762E+03
 0.33185702987E+03 0.23860836285E+03 0.19963927739E+03 0.15547388007E+03 0.11207561314E+03
 0.74446658096E+02 0.46230689731E+02 0.28563342124E+02 0.19197403993E+02 0.13786580336E+02
 0.10519188416E+02 0.87479370790E+01 0.79161120445E+01 0.76796675143E+01 0.79177911282E+01
 0.87482198930E+01 0.10517928179E+02 0.13786836817E+02 0.19199283968E+02 0.28563107285E+02
 0.46226931163E+02 0.74442495915E+02 0.11207399347E+03 0.15547510627E+03 0.19964336757E+03
 0.23861498935E+03 0.26581709797E+03 0.27563744286E+03 0.26581145249E+03 0.17313875758E+03
 0.13956144259E+03 0.10412135633E+03 0.71726809376E+02 0.46230689731E+02 0.29374364904E+02
 0.19941494755E+02 0.14411011599E+02 0.10930737527E+02 0.89365203127E+01 0.78981624367E+01
 0.74669790208E+01 0.74676602044E+01 0.78987411408E+01 0.89356995470E+01 0.10930441422E+02
 0.14413027819E+02 0.19943860703E+02 0.29374265825E+02 0.46228420359E+02 0.71724189921E+02
 0.10411908791E+03 0.13956056482E+03 0.17314130656E+03 0.19963472256E+03 0.21433295006E+03
 0.21433019130E+03 0.19962958439E+03 0.11634192972E+03 0.89780914906E+02 0.64172325214E+02
 0.43126351277E+02 0.28563342124E+02 0.19941494755E+02 0.14631387542E+02 0.11158004077E+02
 0.90736129607E+01 0.79036225660E+01 0.73227963396E+01 0.71499737259E+01 0.73235470128E+01
 0.79032660237E+01 0.90721252056E+01 0.11157558276E+02 0.14632906118E+02 0.19943861359E+02
 0.28565806057E+02 0.43128564918E+02 0.64172494775E+02 0.89777496495E+02 0.11633692809E+03
 0.13958287173E+03 0.15549775246E+03 0.16116198273E+03 0.15549813009E+03 0.13958579351E+03
 0.71806849438E+02 0.53434040731E+02 0.37704719098E+02 0.26357497770E+02 0.19197403993E+02
 0.14411011599E+02 0.11158004077E+02 0.91242452727E+01 0.79137339272E+01 0.72395058936E+01
 0.69399027596E+01 0.69405351037E+01 0.72401825200E+01 0.79128818588E+01 0.91224043160E+01
 0.11156602139E+02 0.14410546028E+02 0.19198360862E+02 0.26360813624E+02 0.37709355901E+02
 0.53436229337E+02 0.71804043144E+02 0.89823920178E+02 0.10419386947E+03 0.11215891092E+03
 0.11216071211E+03 0.10419885916E+03 0.89829817526E+02 0.41755647421E+02 0.31262275257E+02
 0.23324538606E+02 0.17845256444E+02 0.13786580336E+02 0.10930737527E+02 0.90736129607E+01
 0.79137339272E+01 0.72126411524E+01 0.68337724193E+01 0.67139427622E+01 0.68344952947E+01
 0.72132726516E+01 0.79138777642E+01 0.90731018427E+01 0.10928751128E+02 0.13782998177E+02
 0.17842534146E+02 0.23325765998E+02 0.31267049197E+02 0.41759972353E+02 0.53485808041E+02
 0.64269570543E+02 0.71852739260E+02 0.74581926973E+02 0.71854791653E+02 0.64271636820E+02
 0.53485037411E+02 0.25125827576E+02 0.20086969512E+02 0.16070815221E+02 0.12857447639E+02
 0.10519188416E+02 0.89365203127E+01 0.79036225660E+01 0.72395058936E+01 0.68337724193E+01
 0.66380914128E+01 0.66381910255E+01 0.68341727752E+01 0.72405995568E+01 0.79055516942E+01
 0.89380026912E+01 0.10518031234E+02 0.12853238943E+02 0.16066212318E+02 0.20085253327E+02
 0.25127801371E+02 0.31297361176E+02 0.37785263087E+02 0.43246531575E+02 0.46370786667E+02
 0.46369660405E+02 0.43243497587E+02 0.37781117712E+02 0.31293331105E+02 0.16971755411E+02
 0.14121523544E+02 0.11767849166E+02 0.99958092803E+01 0.87479370790E+01 0.78981624367E+01
 0.73227963396E+01 0.69399027596E+01 0.67139427622E+01 0.66381910255E+01 0.67134622950E+01
 0.69392997837E+01 0.73231531249E+01 0.79005018254E+01 0.87515924108E+01 0.99982882174E+01
 0.11766902024E+02 0.14117246679E+02 0.16966696729E+02 0.20084368272E+02 0.23347938437E+02
 0.26416391965E+02 0.28649003579E+02 0.29467426386E+02 0.28644882474E+02 0.26411546540E+02
 0.23346158207E+02 0.20086908307E+02 0.12245436878E+02 0.10672179665E+02 0.94466677077E+01
 0.85509074036E+01 0.79161120445E+01 0.74669790208E+01 0.71499737259E+01 0.69405351037E+01
 0.68344952947E+01 0.68341727752E+01 0.69392997837E+01 0.71478562664E+01 0.74653917862E+01
 0.79170851209E+01 0.85549055786E+01 0.94515179772E+01 0.10674549397E+02 0.12243598325E+02
 0.14087395868E+02 0.16028561890E+02 0.17813753551E+02 0.19184848577E+02 0.19940969210E+02
 0.19940196221E+02 0.19183885325E+02 0.17815059163E+02 0.16032716114E+02 0.14092054754E+02
 0.96876043073E+01 0.89414444319E+01 0.83819283928E+01 0.79747535743E+01 0.76796675143E+01
 0.74676602044E+01 0.73235470128E+01 0.72401825200E+01 0.72132726516E+01 0.72405995568E+01
 0.73231531249E+01 0.74653917862E+01 0.76760898027E+01 0.79721140207E+01 0.83824982427E+01
 0.89454549323E+01 0.96926990716E+01 0.10623662087E+02 0.11681992718E+02 0.12750787735E+02
 0.13674999596E+02 0.14302698545E+02 0.14525761021E+02 0.14305268772E+02 0.13679197453E+02
 0.12754549111E+02 0.11682894443E+02 0.10620738075E+02 0.85186627305E+01 0.82597680837E+01
 0.80850595807E+01 0.79758441976E+01 0.79177911282E+01 0.78987411408E+01 0.79032660237E+01
 0.79128818588E+01 0.79138777642E+01 0.79055516942E+01 0.79005018254E+01 0.79170851209E+01
 0.79721140207E+01 0.80800951788E+01 0.82568326673E+01 0.85199766483E+01 0.88816118273E+01
 0.93348717838E+01 0.98425264797E+01 0.10336623561E+02 0.10732870277E+02 0.10954600645E+02
 0.10955948511E+02 0.10735706261E+02 0.10338192170E+02 0.98406764103E+01 0.93300508875E+01
 0.88768833090E+01 0.81950558246E+01 0.82604699630E+01 0.83825272932E+01 0.85521005871E+01
 0.87482198930E+01 0.89356995470E+01 0.90721252056E+01 0.91224043160E+01 0.90731018427E+01
 0.89380026912E+01 0.87515924108E+01 0.85549055786E+01 0.83824982427E+01 0.82568326673E+01
 0.81898675104E+01 0.81869655969E+01 0.82482932445E+01 0.83661602543E+01 0.85205577371E+01
 0.86777255545E+01 0.87962130487E+01 0.88404880605E+01 0.87959104395E+01 0.86760402660E+01
 0.85171138912E+01 0.83626727124E+01 0.82475667467E+01 0.81901755360E+01 0.85209339102E+01
 0.89420121178E+01 0.94463074357E+01 0.99949120774E+01 0.10517928179E+02 0.10930441422E+02
 0.11157558276E+02 0.11156602139E+02 0.10928751128E+02 0.10518031234E+02 0.99982882174E+01
 0.94515179772E+01 0.89454549323E+01 0.85199766483E+01 0.81869655969E+01 0.79403052948E+01
 0.77678705641E+01 0.76581485877E+01 0.75994352369E+01 0.75763030700E+01 0.75707049388E+01
 0.75697897983E+01 0.75739448396E+01 0.75968593827E+01 0.76572358183E+01 0.77701050464E+01
 0.79451812795E+01 0.81915555579E+01 0.96879660003E+01 0.10671274515E+02 0.11767001420E+02
 0.12856278987E+02 0.13786836817E+02 0.14413027819E+02 0.14632906118E+02 0.14410546028E+02
 0.13782998177E+02 0.12853238943E+02 0.11766902024E+02 0.10674549397E+02 0.96926990716E+01
 0.88816118273E+01 0.82482932445E+01 0.77678705641E+01 0.74081299136E+01 0.71446472586E+01
 0.69634456703E+01 0.68570341447E+01 0.68214035366E+01 0.68559284735E+01 0.69630473939E+01
 0.71465109423E+01 0.74117403954E+01 0.77708913623E+01 0.82484191970E+01 0.88783787168E+01
 0.12243361786E+02 0.14120942415E+02 0.16071107717E+02 0.17845747815E+02 0.19199283968E+02
 0.19943860703E+02 0.19943861359E+02 0.19198360862E+02 0.17842534146E+02 0.16066212318E+02
 0.14117246679E+02 0.12243598325E+02 0.10623662087E+02 0.93348717838E+01 0.83661602543E+01
 0.76581485877E+01 0.71446472586E+01 0.67780542797E+01 0.65357230281E+01 0.64133111970E+01
 0.64133614246E+01 0.65364471340E+01 0.67801347705E+01 0.71472021583E+01 0.76588476714E+01
 0.83634010022E+01 0.93297507689E+01 0.10619524338E+02 0.16971216056E+02 0.20087963369E+02
 0.23324987326E+02 0.26357660526E+02 0.28563107285E+02 0.29374265825E+02 0.28565806057E+02
 0.26360813624E+02 0.23325765998E+02 0.20085253327E+02 0.16966696729E+02 0.14087395868E+02
 0.11681992718E+02 0.98425264797E+01 0.85205577371E+01 0.75994352369E+01 0.69634456703E+01
 0.65357230281E+01 0.62828829914E+01 0.61986938343E+01 0.62837690981E+01 0.65367434070E+01
 0.69634601321E+01 0.75976391128E+01 0.85173431225E+01 0.98397520146E+01 0.11681891013E+02
 0.14090585532E+02 0.25127789465E+02 0.31262947695E+02 0.37703707358E+02 0.43124308128E+02
 0.46226931163E+02 0.46228420359E+02 0.43128564918E+02 0.37709355901E+02 0.31267049197E+02
 0.25127801371E+02 0.20084368272E+02 0.16028561890E+02 0.12750787735E+02 0.10336623561E+02
 0.86777255545E+01 0.75763030700E+01 0.68570341447E+01 0.64133111970E+01 0.61986938343E+01
 0.61990763526E+01 0.64136654694E+01 0.68560650730E+01 0.75739808406E+01 0.86755713019E+01
 0.10336538738E+02 0.12753672525E+02 0.16033360789E+02 0.20088179055E+02 0.41756440366E+02
 0.53433659900E+02 0.64172173306E+02 0.71725031486E+02 0.74442495915E+02 0.71724189921E+02
 0.64172494775E+02 0.53436229337E+02 0.41759972353E+02 0.31297361176E+02 0.23347938437E+02
 0.17813753551E+02 0.13674999596E+02 0.10732870277E+02 0.87962130487E+01 0.75707049388E+01
 0.68214035366E+01 0.64133614246E+01 0.62837690981E+01 0.64136654694E+01 0.68207992692E+01
 0.75693303805E+01 0.87960250889E+01 0.10735016223E+02 0.13678248554E+02 0.17815960351E+02
 0.23347852283E+02 0.31294960826E+02 0.71804959906E+02 0.89782240108E+02 0.10412520777E+03
 0.11207685899E+03 0.11207399347E+03 0.10411908791E+03 0.89777496495E+02 0.71804043144E+02
 0.53485808041E+02 0.37785263087E+02 0.26416391965E+02 0.19184848577E+02 0.14302698545E+02
 0.10954600645E+02 0.88404880605E+01 0.75697897983E+01 0.68559284735E+01 0.65364471340E+01
 0.65367434070E+01 0.68560650730E+01 0.75693303805E+01 0.88409507339E+01 0.10957021429E+02
 0.14305114583E+02 0.19184406491E+02 0.26412889979E+02 0.37781013819E+02 0.53483288493E+02
 0.11634020273E+03 0.13956514398E+03 0.15547893517E+03 0.16114447775E+03 0.15547510627E+03
 0.13956056482E+03 0.11633692809E+03 0.89823920178E+02 0.64269570543E+02 0.43246531575E+02
 0.28649003579E+02 0.19940969210E+02 0.14525761021E+02 0.10955948511E+02 0.87959104395E+01
 0.75739448396E+01 0.69630473939E+01 0.67801347705E+01 0.69634601321E+01 0.75739808406E+01
 0.87960250889E+01 0.10957021429E+02 0.14526470770E+02 0.19939094538E+02 0.28645255592E+02
 0.43244061275E+02 0.64269820841E+02 0.89825926713E+02 0.17313884125E+03 0.19964083634E+03
 0.21435817117E+03 0.21435906432E+03 0.19964336757E+03 0.17314130656E+03 0.13958287173E+03
 0.10419386947E+03 0.71852739260E+02 0.46370786667E+02 0.29467426386E+02 0.19940196221E+02
 0.14305268772E+02 0.10735706261E+02 0.86760402660E+01 0.75968593827E+01 0.71465109423E+01
 0.71472021583E+01 0.75976391128E+01 0.86755713019E+01 0.10735016223E+02 0.14305114583E+02
 0.19939094538E+02 0.29465076070E+02 0.46370244560E+02 0.71855949675E+02 0.10419783216E+03
 0.13958352492E+03 0.23860872451E+03 0.26584140354E+03 0.27568124703E+03 0.26584512543E+03
 0.23861498935E+03 0.19963472256E+03 0.15549775246E+03 0.11215891092E+03 0.74581926973E+02
 0.46369660405E+02 0.28644882474E+02 0.19183885325E+02 0.13679197453E+02 0.10338192170E+02
 0.85171138912E+01 0.76572358183E+01 0.74117403954E+01 0.76588476714E+01 0.85173431225E+01
 0.10336538738E+02 0.13678248554E+02 0.19184406491E+02 0.28645255592E+02 0.46370244560E+02
 0.74584779886E+02 0.11216268133E+03 0.15549789745E+03 0.19962982682E+03 0.30786756852E+03
 0.33188655515E+03 0.33188603019E+03 0.30786813718E+03 0.26581709797E+03 0.21433295006E+03
 0.16116198273E+03 0.11216071211E+03 0.71854791653E+02 0.43243497587E+02 0.26411546540E+02
 0.17815059163E+02 0.12754549111E+02 0.98406764103E+01 0.83626727124E+01 0.77701050464E+01
 0.77708913623E+01 0.83634010022E+01 0.98397520146E+01 0.12753672525E+02 0.17815960351E+02
 0.26412889979E+02 0.43244061275E+02 0.71855949675E+02 0.11216268133E+03 0.16116172469E+03
 0.21432921723E+03 0.26581347243E+03 0.37252266632E+03 0.38750268409E+03 0.37251803120E+03
 0.33185774762E+03 0.27563744286E+03 0.21433019130E+03 0.15549813009E+03 0.10419885916E+03
 0.64271636820E+02 0.37781117712E+02 0.23346158207E+02 0.16032716114E+02 0.11682894443E+02
 0.93300508875E+01 0.82475667467E+01 0.79451812795E+01 0.82484191970E+01 0.93297507689E+01
 0.11681891013E+02 0.16033360789E+02 0.23347852283E+02 0.37781013819E+02 0.64269820841E+02
 0.10419783216E+03 0.15549789745E+03 0.21432921723E+03 0.27563743219E+03 0.33186138882E+03
 0.41994369817E+03 0.41994079677E+03 0.38748729622E+03 0.33185702987E+03 0.26581145249E+03
 0.19962958439E+03 0.13958579351E+03 0.89829817526E+02 0.53485037411E+02 0.31293331105E+02
 0.20086908307E+02 0.14092054754E+02 0.10620738075E+02 0.88768833090E+01 0.81901755360E+01
 0.81915555579E+01 0.88783787168E+01 0.10619524338E+02 0.14090585532E+02 0.20088179055E+02
 0.31294960826E+02 0.53483288493E+02 0.89825926713E+02 0.13958352492E+03 0.19962982682E+03
 0.26581347243E+03 0.33186138882E+03 0.38749312464E+03 0.39232180500E+03 0.37711148016E+03
 0.33585896754E+03 0.27886865916E+03 0.21678438653E+03 0.15725177896E+03 0.10534705695E+03
 0.64922559353E+02 0.38074350543E+02 0.23444448491E+02 0.16075109319E+02 0.11705922408E+02
 0.93433295940E+01 0.82580429999E+01 0.79570825195E+01 0.82617003832E+01 0.93436542363E+01
 0.11702463138E+02 0.16074713599E+02 0.23447963350E+02 0.38075055162E+02 0.64918831957E+02
 0.10534468993E+03 0.15725273167E+03 0.21678471455E+03 0.27886828270E+03 0.33586203081E+03
 0.37711631680E+03 0.37711148016E+03 0.34894107850E+03 0.30015214290E+03 0.24132384423E+03
 0.18142122483E+03 0.12655541575E+03 0.81174732284E+02 0.48447625162E+02 0.28835213900E+02
 0.18958289495E+02 0.13441554306E+02 0.10257930183E+02 0.86550450627E+01 0.80204222401E+01
 0.80221589348E+01 0.86566278055E+01 0.10255936861E+02 0.13439916287E+02 0.18960425600E+02
 0.28837101955E+02 0.48446186506E+02 0.81174585143E+02 0.12655951332E+03 0.18142350643E+03
 0.24131939430E+03 0.30014618146E+03 0.34893974115E+03 0.37711222549E+03 0.33585896754E+03
 0.30015214290E+03 0.25015159015E+03 0.19480547068E+03 0.14110195092E+03 0.94205616531E+02