   2   2   0   0
  0.2304930E+02  0.3037160E-09  0.3037160E-09  0.5770610E-09  0.5000000E-15
  1.000000000000000E-004
  CAR 
 Cd                                      
     54.11050813    -10.16797163  301      2.49858283      1.00000000
    -10.168  0.0000E+00  0.0000E+00
     -9.954  0.0000E+00  0.0000E+00
     -9.739  0.0000E+00  0.0000E+00
     -9.525  0.0000E+00  0.0000E+00
     -9.311  0.0000E+00  0.0000E+00
     -9.097  0.0000E+00  0.0000E+00
     -8.882  0.0000E+00  0.0000E+00
     -8.668  0.0000E+00  0.0000E+00
     -8.454  0.0000E+00  0.0000E+00
     -8.240  0.0000E+00  0.0000E+00
     -8.025  0.0000E+00  0.0000E+00
     -7.811  0.0000E+00  0.0000E+00
     -7.597  0.0000E+00  0.0000E+00
     -7.383  0.5647E-05  0.1210E-05
     -7.168  0.6053E+00  0.1297E+00
     -6.954  0.6159E+01  0.1449E+01
     -6.740  0.1478E+02  0.4616E+01
     -6.526  0.1438E+02  0.7696E+01
     -6.311  0.1160E+02  0.1018E+02
     -6.097  0.1919E+02  0.1429E+02
     -5.883  0.1672E+02  0.1788E+02
     -5.668  0.9219E+01  0.1985E+02
     -5.454  0.9939E+00  0.2006E+02
     -5.240  0.1262E+00  0.2009E+02
     -5.026  0.2497E+00  0.2014E+02
     -4.811  0.2657E-02  0.2015E+02
     -4.597  0.5241E+00  0.2026E+02
     -4.383  0.1763E+00  0.2030E+02
     -4.169  0.4362E+00  0.2039E+02
     -3.954  0.4888E+00  0.2049E+02
     -3.740  0.1741E+00  0.2053E+02
     -3.526  0.2120E+00  0.2058E+02
     -3.312  0.3565E+00  0.2065E+02
     -3.097  0.1371E+00  0.2068E+02
     -2.883  0.8432E+00  0.2086E+02
     -2.669  0.4694E+00  0.2096E+02
     -2.455  0.2430E+00  0.2102E+02
     -2.240  0.7959E+00  0.2119E+02
     -2.026  0.4057E+00  0.2127E+02
     -1.812  0.2478E+00  0.2133E+02
     -1.598  0.7087E+00  0.2148E+02
     -1.383  0.1747E+00  0.2151E+02
     -1.169  0.4224E+00  0.2161E+02
     -0.955  0.7280E+00  0.2176E+02
     -0.740  0.2605E+00  0.2182E+02
     -0.526  0.9413E+00  0.2202E+02
     -0.312  0.7253E+00  0.2217E+02
     -0.098  0.1087E+01  0.2241E+02
      0.117  0.4480E+00  0.2250E+02
      0.331  0.4220E+00  0.2259E+02
      0.545  0.5236E+00  0.2271E+02
      0.759  0.6841E+00  0.2285E+02
      0.974  0.8015E+00  0.2302E+02
      1.188  0.3654E+00  0.2310E+02
      1.402  0.7078E+00  0.2325E+02
      1.616  0.4729E+00  0.2336E+02
      1.831  0.6179E+00  0.2349E+02
      2.045  0.9971E+00  0.2370E+02
      2.259  0.5555E+00  0.2382E+02
      2.473  0.5993E+00  0.2395E+02
      2.688  0.9996E+00  0.2416E+02
      2.902  0.6464E+00  0.2430E+02
      3.116  0.7127E+00  0.2445E+02
      3.331  0.7934E+00  0.2462E+02
      3.545  0.6784E+00  0.2477E+02
      3.759  0.8816E+00  0.2496E+02
      3.973  0.9922E+00  0.2517E+02
      4.188  0.3873E+00  0.2525E+02
      4.402  0.5494E+00  0.2537E+02
      4.616  0.1350E+01  0.2566E+02
      4.830  0.2794E+00  0.2572E+02
      5.045  0.7922E+00  0.2589E+02
      5.259  0.1539E+01  0.2622E+02
      5.473  0.9784E+00  0.2643E+02
      5.687  0.1832E+01  0.2682E+02
      5.902  0.4589E+00  0.2692E+02
      6.116  0.4681E+00  0.2702E+02
      6.330  0.5749E+00  0.2714E+02
      6.544  0.8841E+00  0.2733E+02
      6.759  0.1670E+01  0.2769E+02
      6.973  0.8121E+00  0.2787E+02
      7.187  0.8843E+00  0.2806E+02
      7.401  0.6076E+00  0.2819E+02
      7.616  0.1085E+01  0.2842E+02
      7.830  0.4693E+00  0.2852E+02
      8.044  0.5303E+00  0.2863E+02
      8.259  0.6076E+00  0.2876E+02
      8.473  0.1412E+01  0.2906E+02
      8.687  0.1808E+01  0.2945E+02
      8.901  0.1109E+01  0.2969E+02
      9.116  0.1165E+01  0.2994E+02
      9.330  0.2008E+01  0.3037E+02
      9.544  0.8209E+00  0.3055E+02
      9.758  0.8267E+00  0.3072E+02
      9.973  0.6449E+00  0.3086E+02
     10.187  0.1461E+01  0.3117E+02
     10.401  0.1925E+01  0.3159E+02
     10.615  0.1145E+01  0.3183E+02
     10.830  0.8139E+00  0.3201E+02
     11.044  0.1607E+01  0.3235E+02
     11.258  0.1773E+01  0.3273E+02
     11.472  0.9657E+00  0.3294E+02
     11.687  0.1219E+01  0.3320E+02
     11.901  0.9208E+00  0.3340E+02
     12.115  0.1621E+01  0.3374E+02
     12.329  0.6868E+00  0.3389E+02
     12.544  0.3860E+00  0.3397E+02
     12.758  0.1259E+01  0.3424E+02
     12.972  0.1270E+01  0.3452E+02
     13.187  0.6971E+00  0.3466E+02
     13.401  0.3582E+00  0.3474E+02
     13.615  0.1192E+01  0.3500E+02
     13.829  0.6347E+00  0.3513E+02
     14.044  0.6309E+00  0.3527E+02
     14.258  0.9953E+00  0.3548E+02
     14.472  0.1592E+01  0.3582E+02
     14.686  0.1591E+01  0.3616E+02
     14.901  0.1435E+01  0.3647E+02
     15.115  0.1346E+01  0.3676E+02
     15.329  0.1454E+01  0.3707E+02
     15.543  0.1155E+01  0.3732E+02
     15.758  0.1763E+01  0.3770E+02
     15.972  0.2525E+01  0.3824E+02
     16.186  0.1432E+01  0.3854E+02
     16.400  0.1052E+01  0.3877E+02
     16.615  0.1011E+01  0.3899E+02
     16.829  0.1826E+01  0.3938E+02
     17.043  0.1168E+01  0.3963E+02
     17.258  0.1052E+01  0.3985E+02
     17.472  0.9615E+00  0.4006E+02
     17.686  0.2564E+01  0.4061E+02
     17.900  0.2342E+01  0.4111E+02
     18.115  0.8593E+00  0.4129E+02
     18.329  0.1863E+01  0.4169E+02
     18.543  0.1584E+01  0.4203E+02
     18.757  0.8499E+00  0.4221E+02
     18.972  0.1497E+01  0.4254E+02
     19.186  0.1270E+01  0.4281E+02
     19.400  0.1904E+01  0.4322E+02
     19.614  0.1128E+01  0.4346E+02
     19.829  0.1689E+00  0.4349E+02
     20.043  0.6288E+00  0.4363E+02
     20.257  0.2199E+01  0.4410E+02
     20.471  0.1734E+01  0.4447E+02
     20.686  0.1384E+01  0.4477E+02
     20.900  0.1069E+01  0.4500E+02
     21.114  0.7170E+00  0.4515E+02
     21.328  0.1774E+01  0.4553E+02
     21.543  0.1347E+01  0.4582E+02
     21.757  0.1572E+01  0.4616E+02
     21.971  0.2107E+01  0.4661E+02
     22.186  0.1935E+01  0.4702E+02
     22.400  0.1159E+01  0.4727E+02
     22.614  0.1581E+01  0.4761E+02
     22.828  0.1847E+01  0.4800E+02
     23.043  0.2749E+01  0.4859E+02
     23.257  0.2043E+01  0.4903E+02
     23.471  0.1546E+01  0.4936E+02
     23.685  0.1243E+01  0.4963E+02
     23.900  0.9959E+00  0.4984E+02
     24.114  0.1587E+01  0.5018E+02
     24.328  0.5341E+00  0.5030E+02
     24.542  0.2473E+01  0.5083E+02
     24.757  0.3099E+01  0.5149E+02
     24.971  0.1079E+01  0.5172E+02
     25.185  0.2122E+01  0.5218E+02
     25.399  0.2471E+01  0.5271E+02
     25.614  0.2707E+01  0.5329E+02
     25.828  0.1260E+01  0.5356E+02
     26.042  0.1306E+01  0.5384E+02
     26.257  0.1487E+01  0.5415E+02
     26.471  0.2249E+01  0.5464E+02
     26.685  0.2051E+01  0.5508E+02
     26.899  0.1997E+01  0.5550E+02
     27.114  0.1029E+01  0.5572E+02
     27.328  0.1958E+01  0.5614E+02
     27.542  0.1398E+01  0.5644E+02
     27.756  0.2238E+01  0.5692E+02
     27.971  0.2830E+01  0.5753E+02
     28.185  0.2561E+01  0.5808E+02
     28.399  0.2185E+01  0.5855E+02
     28.613  0.1983E+01  0.5897E+02
     28.828  0.1938E+01  0.5939E+02
     29.042  0.1199E+01  0.5964E+02
     29.256  0.2192E+01  0.6011E+02
     29.470  0.2047E+01  0.6055E+02
     29.685  0.2349E+01  0.6105E+02
     29.899  0.1093E+01  0.6129E+02
     30.113  0.2136E+01  0.6175E+02
     30.327  0.1397E+01  0.6204E+02
     30.542  0.7722E+00  0.6221E+02
     30.756  0.1200E+01  0.6247E+02
     30.970  0.2047E+01  0.6291E+02
     31.185  0.1379E+01  0.6320E+02
     31.399  0.2577E+01  0.6375E+02
     31.613  0.2429E+01  0.6427E+02
     31.827  0.2482E+01  0.6481E+02
     32.042  0.1459E+01  0.6512E+02
     32.256  0.1837E+01  0.6551E+02
     32.470  0.1595E+01  0.6585E+02
     32.684  0.1563E+01  0.6619E+02
     32.899  0.2359E+01  0.6669E+02
     33.113  0.3158E+01  0.6737E+02
     33.327  0.2022E+01  0.6780E+02
     33.541  0.1413E+01  0.6811E+02
     33.756  0.1204E+01  0.6836E+02
     33.970  0.2072E+01  0.6881E+02
     34.184  0.3414E+01  0.6954E+02
     34.398  0.1348E+01  0.6983E+02
     34.613  0.1372E+01  0.7012E+02
     34.827  0.2766E+01  0.7072E+02
     35.041  0.2110E+01  0.7117E+02
     35.255  0.1936E+01  0.7158E+02
     35.470  0.1368E+01  0.7188E+02
     35.684  0.1820E+01  0.7227E+02
     35.898  0.1839E+01  0.7266E+02
     36.113  0.2030E+01  0.7309E+02
     36.327  0.2228E+01  0.7357E+02
     36.541  0.2242E+01  0.7405E+02
     36.755  0.2133E+01  0.7451E+02
     36.970  0.2518E+01  0.7505E+02
     37.184  0.1421E+01  0.7535E+02
     37.398  0.1422E+01  0.7566E+02
     37.612  0.3363E+01  0.7638E+02
     37.827  0.2045E+01  0.7682E+02
     38.041  0.1961E+01  0.7724E+02
     38.255  0.2771E+01  0.7783E+02
     38.469  0.2377E+01  0.7834E+02
     38.684  0.2776E+01  0.7894E+02
     38.898  0.1520E+01  0.7926E+02
     39.112  0.9000E+00  0.7945E+02
     39.326  0.1537E+01  0.7978E+02
     39.541  0.1690E+01  0.8015E+02
     39.755  0.2013E+01  0.8058E+02
     39.969  0.2524E+01  0.8112E+02
     40.184  0.2033E+01  0.8155E+02
     40.398  0.3360E+01  0.8227E+02
     40.612  0.2116E+01  0.8273E+02
     40.826  0.1727E+01  0.8310E+02
     41.041  0.3391E+01  0.8382E+02
     41.255  0.2830E+01  0.8443E+02
     41.469  0.3507E+01  0.8518E+02
     41.683  0.3655E+01  0.8596E+02
     41.898  0.1981E+01  0.8639E+02
     42.112  0.2342E+01  0.8689E+02
     42.326  0.1670E+01  0.8725E+02
     42.540  0.2407E+01  0.8776E+02
     42.755  0.2979E+01  0.8840E+02
     42.969  0.2369E+01  0.8891E+02
     43.183  0.1845E+01  0.8930E+02
     43.397  0.1845E+01  0.8970E+02
     43.612  0.1489E+01  0.9002E+02
     43.826  0.1073E+01  0.9025E+02
     44.040  0.2986E+01  0.9089E+02
     44.254  0.2747E+01  0.9148E+02
     44.469  0.1394E+01  0.9178E+02
     44.683  0.2444E+01  0.9230E+02
     44.897  0.3060E+01  0.9296E+02
     45.112  0.2051E+01  0.9339E+02
     45.326  0.1743E+01  0.9377E+02
     45.540  0.1898E+01  0.9417E+02
     45.754  0.1739E+01  0.9455E+02
     45.969  0.1035E+01  0.9477E+02
     46.183  0.1199E+01  0.9503E+02
     46.397  0.1309E+01  0.9531E+02
     46.611  0.1316E+01  0.9559E+02
     46.826  0.3539E+00  0.9566E+02
     47.040  0.3406E+00  0.9574E+02
     47.254  0.4098E+00  0.9583E+02
     47.468  0.8936E-01  0.9584E+02
     47.683  0.2723E+00  0.9590E+02
     47.897  0.3514E-01  0.9591E+02
     48.111  0.3628E-06  0.9591E+02
     48.325  0.6014E-03  0.9591E+02
     48.540  0.2181E+00  0.9596E+02
     48.754  0.1386E-03  0.9596E+02
     48.968  0.1088E+00  0.9598E+02
     49.182  0.7532E-02  0.9598E+02
     49.397  0.2948E-01  0.9599E+02
     49.611  0.3883E-08  0.9599E+02
     49.825  0.0000E+00  0.9599E+02
     50.040  0.0000E+00  0.9599E+02
     50.254  0.0000E+00  0.9599E+02
     50.468  0.5627E-05  0.9599E+02
     50.682  0.3620E-01  0.9600E+02
     50.897  0.2588E-03  0.9600E+02
     51.111  0.2511E-03  0.9600E+02
     51.325  0.1798E-01  0.9600E+02
     51.539  0.1048E-05  0.9600E+02
     51.754  0.0000E+00  0.9600E+02
     51.968  0.0000E+00  0.9600E+02
     52.182  0.0000E+00  0.9600E+02
     52.396  0.0000E+00  0.9600E+02
     52.611  0.0000E+00  0.9600E+02
     52.825  0.0000E+00  0.9600E+02
     53.039  0.0000E+00  0.9600E+02
     53.253  0.0000E+00  0.9600E+02
     53.468  0.0000E+00  0.9600E+02
     53.682  0.0000E+00  0.9600E+02
     53.896  0.0000E+00  0.9600E+02
     54.111  0.0000E+00  0.9600E+02
