       N       E                     dE             d eps       ncg     rms          rms(c)
DAV:   1    -0.145042091533E+01   -0.14504E+01   -0.39440E-05  2544   0.197E-02    0.126E-02
DAV:   2    -0.145042006669E+01    0.84865E-06   -0.64751E-06  2400   0.996E-03
   1 F= -.14504201E+01 E0= -.14491639E+01  d E =-.251227E-02
       N       E                     dE             ncg
DAV:   1    -0.538696079148E+04   -0.24659E+05     4800
DAV:   2    -0.668873502654E+04   -0.13018E+04     6624
DAV:   3    -0.669088917510E+04   -0.21541E+01     5184
DAV:   4    -0.669088943103E+04   -0.25593E-03     8928
DAV:   5    -0.669088943103E+04   -0.47021E-09     5280
       N       E                     dE             ncg
DAV:   1    -0.517918418038E+04   -0.37821E+05     4896
DAV:   2    -0.640316905443E+04   -0.12240E+04     7200
DAV:   3    -0.640455972098E+04   -0.13907E+01     4800
DAV:   4    -0.640455991521E+04   -0.19423E-03     9408
DAV:   5    -0.640455991521E+04   -0.97316E-10     4800
       N       E                     dE             ncg
DAV:   1    -0.344845090260E+04   -0.14702E+05     4512
DAV:   2    -0.472705707931E+04   -0.12786E+04     5856
DAV:   3    -0.472960569982E+04   -0.25486E+01     5088
DAV:   4    -0.472960602838E+04   -0.32856E-03     7824
DAV:   5    -0.472960602838E+04   -0.91040E-09     5472
