 vasp.6.4.3 19Mar24 (build Jun 26 2024 13:02:28) complex                        
  
 executed on             LinuxIFC date 2025.08.08  18:43:37
 running   48 mpi-ranks, on    4 nodes
 distrk:  each k-point on   48 cores,    1 groups
 distr:  one band on NCORE=   1 cores,   48 groups


--------------------------------------------------------------------------------------------------------


 INCAR:
   ENCUT = 356.63680000000005
   IBRION = -1
   ISMEAR = 0
   ISYM = 2
   LCHARG = True
   LWAVE = True
   SIGMA = 0.05
   SYSTEM = Cd

 POTCAR:  PAW_PBE Cd 06Sep2000                    
 -----------------------------------------------------------------------------
|                                                                             |
|           W    W    AA    RRRRR   N    N  II  N    N   GGGG   !!!           |
|           W    W   A  A   R    R  NN   N  II  NN   N  G    G  !!!           |
|           W    W  A    A  R    R  N N  N  II  N N  N  G       !!!           |
|           W WW W  AAAAAA  RRRRR   N  N N  II  N  N N  G  GGG   !            |
|           WW  WW  A    A  R   R   N   NN  II  N   NN  G    G                |
|           W    W  A    A  R    R  N    N  II  N    N   GGGG   !!!           |
|                                                                             |
|     For optimal performance we recommend to set                             |
|       NCORE = 2 up to number-of-cores-per-socket                            |
|     NCORE specifies how many cores store one orbital (NPAR=cpu/NCORE).      |
|     This setting can greatly improve the performance of VASP for DFT.       |
|     The default, NCORE=1 might be grossly inefficient on modern             |
|     multi-core architectures or massively parallel machines. Do your        |
|     own testing! More info at https://www.vasp.at/wiki/index.php/NCORE      |
|     Unfortunately you need to use the default for GW and RPA                |
|     calculations (for HF NCORE is supported but not extensively tested      |
|     yet).                                                                   |
|                                                                             |
 -----------------------------------------------------------------------------

 POTCAR:  PAW_PBE Cd 06Sep2000                    
   VRHFIN =Cd : s2 d10                                                                              
   LEXCH  = PE                                                                                      
   EATOM  =  1293.1815 eV,   95.0462 Ry                                                             
                                                                                                    
   TITEL  = PAW_PBE Cd 06Sep2000                                                                    
   LULTRA =        F    use ultrasoft PP ?                                                          
   IUNSCR =        1    unscreen: 0-lin 1-nonlin 2-no                                               
   RPACOR =    2.000    partial core radius                                                         
   POMASS =  112.411; ZVAL   =   12.000    mass and valenz                                          
   RCORE  =    2.300    outmost cutoff radius                                                       
   RWIGS  =    2.980; RWIGS  =    1.577    wigner-seitz radius (au A)                               
   ENMAX  =  274.336; ENMIN  =  205.752 eV                                                          
   RCLOC  =    2.054    cutoff for local pot                                                        
   LCOR   =        T    correct aug charges                                                         
   LPAW   =        T    paw PP                                                                      
   EAUG   =  456.106                                                                                
   DEXC   =    0.000                                                                                
   RMAX   =    2.358    core radius for proj-oper                                                   
   RAUG   =    1.300    factor for augmentation sphere                                              
   RDEP   =    2.450    radius for radial grids                                                     
   RDEPT  =    1.955    core radius for aug-charge                                                  
                                                                                                    
   Atomic configuration                                                                             
   12 entries                                                                                       
     n  l   j            E        occ.                                                              
     1  0  0.50    -26519.7817   2.0000                                                             
     2  0  0.50     -3936.9612   2.0000                                                             
     2  1  1.50     -3532.2230   6.0000                                                             
     3  0  0.50      -733.7908   2.0000                                                             
     3  1  1.50      -601.0792   6.0000                                                             
     3  2  2.50      -393.5307  10.0000                                                             
     4  0  0.50      -105.8977   2.0000                                                             
     4  1  1.50       -66.9488   6.0000                                                             
     4  2  2.50       -11.7331  10.0000                                                             
     5  0  0.50        -5.6592   2.0000                                                             
     5  1  0.50        -1.3606   0.0000                                                             
     4  3  2.50        -1.3606   0.0000                                                             
   Description                                                                                      
     l       E           TYP  RCUT    TYP  RCUT                                                     
     2    -11.7331479     23  2.300                                                                 
     2    -13.0937305     23  2.300                                                                 
     0     -5.6591502     23  2.300                                                                 
     0     -1.5561433     23  2.300                                                                 
     1     -2.7211652     23  2.300                                                                 
     1      8.3548275     23  2.300                                                                 
  local pseudopotential read in
  partial core-charges read in
  partial kinetic energy density read in
  atomic valenz-charges read in
  non local Contribution for L=           2  read in
    real space projection operators read in
  non local Contribution for L=           2  read in
    real space projection operators read in
  non local Contribution for L=           0  read in
    real space projection operators read in
  non local Contribution for L=           0  read in
    real space projection operators read in
  non local Contribution for L=           1  read in
    real space projection operators read in
  non local Contribution for L=           1  read in
    real space projection operators read in
    PAW grid and wavefunctions read in
 
   number of l-projection  operators is LMAX  =           6
   number of lm-projection operators is LMMAX =          18
 
PAW_PBE Cd 06Sep2000                    :
 energy of atom  1       EATOM=-1293.1815
 kinetic energy error for atom=    0.0464 (will be added to EATOM!!)
 
 
 POSCAR: Cd2
  positions in direct lattice
  No initial velocities read in


 exchange-correlation table for PE
   RHO(1)=    0.500       N(1)  =     2000
   RHO(2)=  100.500       N(2)  =     4000
 


--------------------------------------------------------------------------------------------------------


 ion  position               nearest neighbor table
   1  0.000  0.000  0.000-   2 3.38   2 3.38   2 3.38   2 3.38   2 3.38   2 3.38
   2  0.333  0.333  0.500-   1 3.38   1 3.38   1 3.38   1 3.38   1 3.38   1 3.38
 
  LATTYP: Found a hexagonal cell.
 ALAT       =     3.0371600000
 C/A-ratio  =     1.9000019755
  
  Lattice vectors:
  
 A1 = (  -1.5185800000,  -2.6302577154,   0.0000000000)
 A2 = (   3.0371600000,   0.0000000000,   0.0000000000)
 A3 = (   0.0000000000,   0.0000000000,   5.7706100000)


Analysis of symmetry for initial positions (statically):
=====================================================================
 Subroutine PRICEL returns:
 Original cell was already a primitive cell.
 

 Routine SETGRP: Setting up the symmetry group for a 
 hexagonal supercell.


 Subroutine GETGRP returns: Found 24 space group operations
 (whereof 12 operations were pure point group operations)
 out of a pool of 24 trial point group operations.


The static configuration has the point symmetry D_3h.
 The point group associated with its full space group is D_6h.


Analysis of symmetry for dynamics (positions and initial velocities):
=====================================================================
 Subroutine PRICEL returns:
 Original cell was already a primitive cell.
 

 Routine SETGRP: Setting up the symmetry group for a 
 hexagonal supercell.


 Subroutine GETGRP returns: Found 24 space group operations
 (whereof 12 operations were pure point group operations)
 out of a pool of 24 trial point group operations.


The dynamic configuration has the point symmetry D_3h.
 The point group associated with its full space group is D_6h.


 Subroutine INISYM returns: Found 24 space group operations
 (whereof 12 operations are pure point group operations),
 and found     1 'primitive' translations


----------------------------------------------------------------------------------------

                                     Primitive cell                                     

  volume of cell :      46.0986

  direct lattice vectors                    reciprocal lattice vectors
     3.037160000  0.000000000  0.000000000     0.329254962 -0.190095441  0.000000000
     1.518580000  2.630257715  0.000000000     0.000000000  0.380190882  0.000000000
     0.000000000  0.000000000  5.770610000    -0.000000000 -0.000000000  0.173291905

  length of vectors
     3.037160000  3.037160000  5.770610000     0.380190882  0.380190882  0.173291905

  position of ions in fractional coordinates (direct lattice)
     0.000000000  0.000000000  0.000000000
     0.333333333  0.333333333  0.500000000

  ion indices of the primitive-cell ions
   primitive index   ion index
                 1           1
                 2           2

----------------------------------------------------------------------------------------

 
 
 KPOINTS: Automatic kpoint scheme                 

Automatic generation of k-mesh.
 Grid dimensions read from file:
 generate k-points for:    8    8    8

 Generating k-lattice:

  Cartesian coordinates                     Fractional coordinates (reciprocal lattice)
     0.041156870 -0.023761930  0.000000000     0.125000000  0.000000000  0.000000000
     0.000000000  0.047523860  0.000000000     0.000000000  0.125000000  0.000000000
    -0.000000000 -0.000000000  0.021661488    -0.000000000 -0.000000000  0.125000000

  Length of vectors
     0.047523860  0.047523860  0.021661488

  Shift w.r.t. Gamma in fractional coordinates (k-lattice)
     0.000000000  0.000000000  0.000000000

 
 Subroutine IBZKPT returns following result:
 ===========================================
 
 Found     50 irreducible k-points:
 
 Following reciprocal coordinates:
            Coordinates               Weight
  0.000000  0.000000  0.000000      1.000000
  0.125000 -0.000000  0.000000      6.000000
  0.250000 -0.000000  0.000000      6.000000
  0.375000 -0.000000  0.000000      6.000000
  0.500000 -0.000000  0.000000      3.000000
  0.250000  0.125000  0.000000      6.000000
  0.375000  0.125000  0.000000     12.000000
  0.500000  0.125000  0.000000     12.000000
  0.500000  0.250000  0.000000      6.000000
 -0.375000  0.250000  0.000000      6.000000
  0.000000  0.000000  0.125000      2.000000
  0.125000  0.000000  0.125000     12.000000
  0.250000 -0.000000  0.125000     12.000000
  0.375000 -0.000000  0.125000     12.000000
  0.500000 -0.000000  0.125000      6.000000
  0.250000  0.125000  0.125000     12.000000
  0.375000  0.125000  0.125000     24.000000
  0.500000  0.125000  0.125000     24.000000
  0.500000  0.250000  0.125000     12.000000
 -0.375000  0.250000  0.125000     12.000000
  0.000000  0.000000  0.250000      2.000000
  0.125000 -0.000000  0.250000     12.000000
  0.250000  0.000000  0.250000     12.000000
  0.375000  0.000000  0.250000     12.000000
  0.500000 -0.000000  0.250000      6.000000
  0.250000  0.125000  0.250000     12.000000
  0.375000  0.125000  0.250000     24.000000
  0.500000  0.125000  0.250000     24.000000
  0.500000  0.250000  0.250000     12.000000
 -0.375000  0.250000  0.250000     12.000000
  0.000000 -0.000000  0.375000      2.000000
  0.125000 -0.000000  0.375000     12.000000
  0.250000  0.000000  0.375000     12.000000
  0.375000  0.000000  0.375000     12.000000
  0.500000  0.000000  0.375000      6.000000
  0.250000  0.125000  0.375000     12.000000
  0.375000  0.125000  0.375000     24.000000
  0.500000  0.125000  0.375000     24.000000
  0.500000  0.250000  0.375000     12.000000
 -0.375000  0.250000  0.375000     12.000000
  0.000000  0.000000  0.500000      1.000000
  0.125000 -0.000000  0.500000      6.000000
  0.250000 -0.000000  0.500000      6.000000
  0.375000  0.000000  0.500000      6.000000
  0.500000  0.000000  0.500000      3.000000
  0.250000  0.125000  0.500000      6.000000
  0.375000  0.125000  0.500000     12.000000
  0.500000  0.125000  0.500000     12.000000
  0.500000  0.250000  0.500000      6.000000
 -0.375000  0.250000  0.500000      6.000000
 
 Following cartesian coordinates:
            Coordinates               Weight
  0.000000  0.000000  0.000000      1.000000
  0.041157 -0.023762  0.000000      6.000000
  0.082314 -0.047524  0.000000      6.000000
  0.123471 -0.071286  0.000000      6.000000
  0.164627 -0.095048  0.000000      3.000000
  0.082314 -0.000000  0.000000      6.000000
  0.123471 -0.023762  0.000000     12.000000
  0.164627 -0.047524  0.000000     12.000000
  0.164627 -0.000000  0.000000      6.000000
 -0.123471  0.166334  0.000000      6.000000
 -0.000000 -0.000000  0.021661      2.000000
  0.041157 -0.023762  0.021661     12.000000
  0.082314 -0.047524  0.021661     12.000000
  0.123471 -0.071286  0.021661     12.000000
  0.164627 -0.095048  0.021661      6.000000
  0.082314 -0.000000  0.021661     12.000000
  0.123471 -0.023762  0.021661     24.000000
  0.164627 -0.047524  0.021661     24.000000
  0.164627 -0.000000  0.021661     12.000000
 -0.123471  0.166334  0.021661     12.000000
 -0.000000 -0.000000  0.043323      2.000000
  0.041157 -0.023762  0.043323     12.000000
  0.082314 -0.047524  0.043323     12.000000
  0.123471 -0.071286  0.043323     12.000000
  0.164627 -0.095048  0.043323      6.000000
  0.082314 -0.000000  0.043323     12.000000
  0.123471 -0.023762  0.043323     24.000000
  0.164627 -0.047524  0.043323     24.000000
  0.164627 -0.000000  0.043323     12.000000
 -0.123471  0.166334  0.043323     12.000000
 -0.000000 -0.000000  0.064984      2.000000
  0.041157 -0.023762  0.064984     12.000000
  0.082314 -0.047524  0.064984     12.000000
  0.123471 -0.071286  0.064984     12.000000
  0.164627 -0.095048  0.064984      6.000000
  0.082314 -0.000000  0.064984     12.000000
  0.123471 -0.023762  0.064984     24.000000
  0.164627 -0.047524  0.064984     24.000000
  0.164627 -0.000000  0.064984     12.000000
 -0.123471  0.166334  0.064984     12.000000
 -0.000000 -0.000000  0.086646      1.000000
  0.041157 -0.023762  0.086646      6.000000
  0.082314 -0.047524  0.086646      6.000000
  0.123471 -0.071286  0.086646      6.000000
  0.164627 -0.095048  0.086646      3.000000
  0.082314 -0.000000  0.086646      6.000000
  0.123471 -0.023762  0.086646     12.000000
  0.164627 -0.047524  0.086646     12.000000
  0.164627 -0.000000  0.086646      6.000000
 -0.123471  0.166334  0.086646      6.000000
 
 
 Subroutine IBZKPT_HF returns following result:
 ==============================================
 
 Found    512 k-points in 1st BZ
 the following    512 k-points will be used (e.g. in the exchange kernel)
 Following reciprocal coordinates:   # in IRBZ
  0.000000  0.000000  0.000000    0.00195312   1 t-inv F
  0.125000 -0.000000  0.000000    0.00195312   2 t-inv F
  0.250000 -0.000000  0.000000    0.00195312   3 t-inv F
  0.375000 -0.000000  0.000000    0.00195312   4 t-inv F
  0.500000 -0.000000  0.000000    0.00195312   5 t-inv F
  0.250000  0.125000  0.000000    0.00195312   6 t-inv F
  0.375000  0.125000  0.000000    0.00195312   7 t-inv F
  0.500000  0.125000  0.000000    0.00195312   8 t-inv F
  0.500000  0.250000  0.000000    0.00195312   9 t-inv F
 -0.375000  0.250000  0.000000    0.00195312  10 t-inv F
  0.000000  0.000000  0.125000    0.00195312  11 t-inv F
  0.125000  0.000000  0.125000    0.00195312  12 t-inv F
  0.250000 -0.000000  0.125000    0.00195312  13 t-inv F
  0.375000 -0.000000  0.125000    0.00195312  14 t-inv F
  0.500000 -0.000000  0.125000    0.00195312  15 t-inv F
  0.250000  0.125000  0.125000    0.00195312  16 t-inv F
  0.375000  0.125000  0.125000    0.00195312  17 t-inv F
  0.500000  0.125000  0.125000    0.00195312  18 t-inv F
  0.500000  0.250000  0.125000    0.00195312  19 t-inv F
 -0.375000  0.250000  0.125000    0.00195312  20 t-inv F
  0.000000  0.000000  0.250000    0.00195312  21 t-inv F
  0.125000 -0.000000  0.250000    0.00195312  22 t-inv F
  0.250000  0.000000  0.250000    0.00195312  23 t-inv F
  0.375000  0.000000  0.250000    0.00195312  24 t-inv F
  0.500000 -0.000000  0.250000    0.00195312  25 t-inv F
  0.250000  0.125000  0.250000    0.00195312  26 t-inv F
  0.375000  0.125000  0.250000    0.00195312  27 t-inv F
  0.500000  0.125000  0.250000    0.00195312  28 t-inv F
  0.500000  0.250000  0.250000    0.00195312  29 t-inv F
 -0.375000  0.250000  0.250000    0.00195312  30 t-inv F
  0.000000 -0.000000  0.375000    0.00195312  31 t-inv F
  0.125000 -0.000000  0.375000    0.00195312  32 t-inv F
  0.250000  0.000000  0.375000    0.00195312  33 t-inv F
  0.375000  0.000000  0.375000    0.00195312  34 t-inv F
  0.500000  0.000000  0.375000    0.00195312  35 t-inv F
  0.250000  0.125000  0.375000    0.00195312  36 t-inv F
  0.375000  0.125000  0.375000    0.00195312  37 t-inv F
  0.500000  0.125000  0.375000    0.00195312  38 t-inv F
  0.500000  0.250000  0.375000    0.00195312  39 t-inv F
 -0.375000  0.250000  0.375000    0.00195312  40 t-inv F
  0.000000  0.000000  0.500000    0.00195312  41 t-inv F
  0.125000 -0.000000  0.500000    0.00195312  42 t-inv F
  0.250000 -0.000000  0.500000    0.00195312  43 t-inv F
  0.375000  0.000000  0.500000    0.00195312  44 t-inv F
  0.500000  0.000000  0.500000    0.00195312  45 t-inv F
  0.250000  0.125000  0.500000    0.00195312  46 t-inv F
  0.375000  0.125000  0.500000    0.00195312  47 t-inv F
  0.500000  0.125000  0.500000    0.00195312  48 t-inv F
  0.500000  0.250000  0.500000    0.00195312  49 t-inv F
 -0.375000  0.250000  0.500000    0.00195312  50 t-inv F
 -0.125000 -0.125000  0.000000    0.00195312   2 t-inv F
  0.000000  0.125000  0.000000    0.00195312   2 t-inv F
 -0.125000  0.000000  0.000000    0.00195312   2 t-inv F
  0.125000  0.125000  0.000000    0.00195312   2 t-inv F
 -0.000000 -0.125000  0.000000    0.00195312   2 t-inv F
 -0.250000 -0.250000  0.000000    0.00195312   3 t-inv F
  0.000000  0.250000  0.000000    0.00195312   3 t-inv F
 -0.250000  0.000000  0.000000    0.00195312   3 t-inv F
  0.250000  0.250000  0.000000    0.00195312   3 t-inv F
 -0.000000 -0.250000  0.000000    0.00195312   3 t-inv F
 -0.375000 -0.375000  0.000000    0.00195312   4 t-inv F
  0.000000  0.375000  0.000000    0.00195312   4 t-inv F
 -0.375000  0.000000  0.000000    0.00195312   4 t-inv F
  0.375000  0.375000  0.000000    0.00195312   4 t-inv F
 -0.000000 -0.375000  0.000000    0.00195312   4 t-inv F
 -0.500000 -0.500000  0.000000    0.00195312   5 t-inv F
  0.000000  0.500000  0.000000    0.00195312   5 t-inv F
 -0.125000 -0.250000  0.000000    0.00195312   6 t-inv F
 -0.125000  0.125000  0.000000    0.00195312   6 t-inv F
  0.125000 -0.125000  0.000000    0.00195312   6 t-inv F
  0.125000  0.250000  0.000000    0.00195312   6 t-inv F
 -0.250000 -0.125000  0.000000    0.00195312   6 t-inv F
 -0.250000 -0.375000  0.000000    0.00195312   7 t-inv F
 -0.125000  0.250000  0.000000    0.00195312   7 t-inv F
  0.250000 -0.125000  0.000000    0.00195312   7 t-inv F
  0.125000  0.375000  0.000000    0.00195312   7 t-inv F
 -0.375000 -0.250000  0.000000    0.00195312   7 t-inv F
 -0.375000 -0.125000  0.000000    0.00195312   7 t-inv F
  0.250000  0.375000  0.000000    0.00195312   7 t-inv F
  0.125000 -0.250000  0.000000    0.00195312   7 t-inv F
 -0.250000  0.125000  0.000000    0.00195312   7 t-inv F
 -0.125000 -0.375000  0.000000    0.00195312   7 t-inv F
  0.375000  0.250000  0.000000    0.00195312   7 t-inv F
 -0.375000 -0.500000  0.000000    0.00195312   8 t-inv F
 -0.125000  0.375000  0.000000    0.00195312   8 t-inv F
  0.375000 -0.125000  0.000000    0.00195312   8 t-inv F
  0.125000  0.500000  0.000000    0.00195312   8 t-inv F
 -0.500000 -0.375000  0.000000    0.00195312   8 t-inv F
 -0.500000 -0.125000  0.000000    0.00195312   8 t-inv F
  0.375000  0.500000  0.000000    0.00195312   8 t-inv F
  0.125000 -0.375000  0.000000    0.00195312   8 t-inv F
 -0.375000  0.125000  0.000000    0.00195312   8 t-inv F
 -0.125000 -0.500000  0.000000    0.00195312   8 t-inv F
  0.500000  0.375000  0.000000    0.00195312   8 t-inv F
 -0.250000 -0.500000  0.000000    0.00195312   9 t-inv F
 -0.250000  0.250000  0.000000    0.00195312   9 t-inv F
  0.250000 -0.250000  0.000000    0.00195312   9 t-inv F
  0.250000  0.500000  0.000000    0.00195312   9 t-inv F
 -0.500000 -0.250000  0.000000    0.00195312   9 t-inv F
  0.625000  0.375000  0.000000    0.00195312  10 t-inv F
 -0.250000 -0.625000  0.000000    0.00195312  10 t-inv F
 -0.625000 -0.250000  0.000000    0.00195312  10 t-inv F
  0.250000 -0.375000  0.000000    0.00195312  10 t-inv F
  0.375000  0.625000  0.000000    0.00195312  10 t-inv F
 -0.000000 -0.000000 -0.125000    0.00195312  11 t-inv F
 -0.125000 -0.125000 -0.125000    0.00195312  12 t-inv F
 -0.000000  0.125000  0.125000    0.00195312  12 t-inv F
  0.125000  0.000000 -0.125000    0.00195312  12 t-inv F
 -0.125000 -0.125000  0.125000    0.00195312  12 t-inv F
 -0.000000  0.125000 -0.125000    0.00195312  12 t-inv F
 -0.125000 -0.000000 -0.125000    0.00195312  12 t-inv F
  0.125000  0.125000  0.125000    0.00195312  12 t-inv F
  0.000000 -0.125000 -0.125000    0.00195312  12 t-inv F
 -0.125000 -0.000000  0.125000    0.00195312  12 t-inv F
  0.125000  0.125000 -0.125000    0.00195312  12 t-inv F
  0.000000 -0.125000  0.125000    0.00195312  12 t-inv F
 -0.250000 -0.250000 -0.125000    0.00195312  13 t-inv F
  0.000000  0.250000  0.125000    0.00195312  13 t-inv F
  0.250000 -0.000000 -0.125000    0.00195312  13 t-inv F
 -0.250000 -0.250000  0.125000    0.00195312  13 t-inv F
  0.000000  0.250000 -0.125000    0.00195312  13 t-inv F
 -0.250000  0.000000 -0.125000    0.00195312  13 t-inv F
  0.250000  0.250000  0.125000    0.00195312  13 t-inv F
 -0.000000 -0.250000 -0.125000    0.00195312  13 t-inv F
 -0.250000  0.000000  0.125000    0.00195312  13 t-inv F
  0.250000  0.250000 -0.125000    0.00195312  13 t-inv F
 -0.000000 -0.250000  0.125000    0.00195312  13 t-inv F
 -0.375000 -0.375000 -0.125000    0.00195312  14 t-inv F
  0.000000  0.375000  0.125000    0.00195312  14 t-inv F
  0.375000 -0.000000 -0.125000    0.00195312  14 t-inv F
 -0.375000 -0.375000  0.125000    0.00195312  14 t-inv F
  0.000000  0.375000 -0.125000    0.00195312  14 t-inv F
 -0.375000  0.000000 -0.125000    0.00195312  14 t-inv F
  0.375000  0.375000  0.125000    0.00195312  14 t-inv F
 -0.000000 -0.375000 -0.125000    0.00195312  14 t-inv F
 -0.375000  0.000000  0.125000    0.00195312  14 t-inv F
  0.375000  0.375000 -0.125000    0.00195312  14 t-inv F
 -0.000000 -0.375000  0.125000    0.00195312  14 t-inv F
 -0.500000 -0.500000 -0.125000    0.00195312  15 t-inv F
  0.000000  0.500000  0.125000    0.00195312  15 t-inv F
  0.500000 -0.000000 -0.125000    0.00195312  15 t-inv F
 -0.500000 -0.500000  0.125000    0.00195312  15 t-inv F
  0.000000  0.500000 -0.125000    0.00195312  15 t-inv F
 -0.125000 -0.250000 -0.125000    0.00195312  16 t-inv F
 -0.125000  0.125000  0.125000    0.00195312  16 t-inv F
  0.250000  0.125000 -0.125000    0.00195312  16 t-inv F
 -0.125000 -0.250000  0.125000    0.00195312  16 t-inv F
 -0.125000  0.125000 -0.125000    0.00195312  16 t-inv F
  0.125000 -0.125000  0.125000    0.00195312  16 t-inv F
  0.125000  0.250000 -0.125000    0.00195312  16 t-inv F
 -0.250000 -0.125000  0.125000    0.00195312  16 t-inv F
  0.125000 -0.125000 -0.125000    0.00195312  16 t-inv F
  0.125000  0.250000  0.125000    0.00195312  16 t-inv F
 -0.250000 -0.125000 -0.125000    0.00195312  16 t-inv F
 -0.250000 -0.375000 -0.125000    0.00195312  17 t-inv F
 -0.125000  0.250000  0.125000    0.00195312  17 t-inv F
  0.375000  0.125000 -0.125000    0.00195312  17 t-inv F
 -0.250000 -0.375000  0.125000    0.00195312  17 t-inv F
 -0.125000  0.250000 -0.125000    0.00195312  17 t-inv F
  0.250000 -0.125000  0.125000    0.00195312  17 t-inv F
  0.125000  0.375000 -0.125000    0.00195312  17 t-inv F
 -0.375000 -0.250000  0.125000    0.00195312  17 t-inv F
  0.250000 -0.125000 -0.125000    0.00195312  17 t-inv F
  0.125000  0.375000  0.125000    0.00195312  17 t-inv F
 -0.375000 -0.250000 -0.125000    0.00195312  17 t-inv F
 -0.375000 -0.125000 -0.125000    0.00195312  17 t-inv F
  0.250000  0.375000  0.125000    0.00195312  17 t-inv F
  0.125000 -0.250000 -0.125000    0.00195312  17 t-inv F
 -0.375000 -0.125000  0.125000    0.00195312  17 t-inv F
  0.250000  0.375000 -0.125000    0.00195312  17 t-inv F
  0.125000 -0.250000  0.125000    0.00195312  17 t-inv F
 -0.250000  0.125000 -0.125000    0.00195312  17 t-inv F
 -0.125000 -0.375000  0.125000    0.00195312  17 t-inv F
  0.375000  0.250000 -0.125000    0.00195312  17 t-inv F
 -0.250000  0.125000  0.125000    0.00195312  17 t-inv F
 -0.125000 -0.375000 -0.125000    0.00195312  17 t-inv F
  0.375000  0.250000  0.125000    0.00195312  17 t-inv F
 -0.375000 -0.500000 -0.125000    0.00195312  18 t-inv F
 -0.125000  0.375000  0.125000    0.00195312  18 t-inv F
  0.500000  0.125000 -0.125000    0.00195312  18 t-inv F
 -0.375000 -0.500000  0.125000    0.00195312  18 t-inv F
 -0.125000  0.375000 -0.125000    0.00195312  18 t-inv F
  0.375000 -0.125000  0.125000    0.00195312  18 t-inv F
  0.125000  0.500000 -0.125000    0.00195312  18 t-inv F
 -0.500000 -0.375000  0.125000    0.00195312  18 t-inv F
  0.375000 -0.125000 -0.125000    0.00195312  18 t-inv F
  0.125000  0.500000  0.125000    0.00195312  18 t-inv F
 -0.500000 -0.375000 -0.125000    0.00195312  18 t-inv F
 -0.500000 -0.125000 -0.125000    0.00195312  18 t-inv F
  0.375000  0.500000  0.125000    0.00195312  18 t-inv F
  0.125000 -0.375000 -0.125000    0.00195312  18 t-inv F
 -0.500000 -0.125000  0.125000    0.00195312  18 t-inv F
  0.375000  0.500000 -0.125000    0.00195312  18 t-inv F
  0.125000 -0.375000  0.125000    0.00195312  18 t-inv F
 -0.375000  0.125000 -0.125000    0.00195312  18 t-inv F
 -0.125000 -0.500000  0.125000    0.00195312  18 t-inv F
  0.500000  0.375000 -0.125000    0.00195312  18 t-inv F
 -0.375000  0.125000  0.125000    0.00195312  18 t-inv F
 -0.125000 -0.500000 -0.125000    0.00195312  18 t-inv F
  0.500000  0.375000  0.125000    0.00195312  18 t-inv F
 -0.250000 -0.500000 -0.125000    0.00195312  19 t-inv F
 -0.250000  0.250000  0.125000    0.00195312  19 t-inv F
  0.500000  0.250000 -0.125000    0.00195312  19 t-inv F
 -0.250000 -0.500000  0.125000    0.00195312  19 t-inv F
 -0.250000  0.250000 -0.125000    0.00195312  19 t-inv F
  0.250000 -0.250000  0.125000    0.00195312  19 t-inv F
  0.250000  0.500000 -0.125000    0.00195312  19 t-inv F
 -0.500000 -0.250000  0.125000    0.00195312  19 t-inv F
  0.250000 -0.250000 -0.125000    0.00195312  19 t-inv F
  0.250000  0.500000  0.125000    0.00195312  19 t-inv F
 -0.500000 -0.250000 -0.125000    0.00195312  19 t-inv F
  0.625000  0.375000 -0.125000    0.00195312  20 t-inv F
 -0.250000 -0.625000  0.125000    0.00195312  20 t-inv F
 -0.375000  0.250000 -0.125000    0.00195312  20 t-inv F
  0.625000  0.375000  0.125000    0.00195312  20 t-inv F
 -0.250000 -0.625000 -0.125000    0.00195312  20 t-inv F
 -0.625000 -0.250000  0.125000    0.00195312  20 t-inv F
  0.250000 -0.375000 -0.125000    0.00195312  20 t-inv F
  0.375000  0.625000  0.125000    0.00195312  20 t-inv F
 -0.625000 -0.250000 -0.125000    0.00195312  20 t-inv F
  0.250000 -0.375000  0.125000    0.00195312  20 t-inv F
  0.375000  0.625000 -0.125000    0.00195312  20 t-inv F
 -0.000000 -0.000000 -0.250000    0.00195312  21 t-inv F
 -0.125000 -0.125000 -0.250000    0.00195312  22 t-inv F
  0.000000  0.125000  0.250000    0.00195312  22 t-inv F
  0.125000 -0.000000 -0.250000    0.00195312  22 t-inv F
 -0.125000 -0.125000  0.250000    0.00195312  22 t-inv F
  0.000000  0.125000 -0.250000    0.00195312  22 t-inv F
 -0.125000  0.000000 -0.250000    0.00195312  22 t-inv F
  0.125000  0.125000  0.250000    0.00195312  22 t-inv F
 -0.000000 -0.125000 -0.250000    0.00195312  22 t-inv F
 -0.125000  0.000000  0.250000    0.00195312  22 t-inv F
  0.125000  0.125000 -0.250000    0.00195312  22 t-inv F
 -0.000000 -0.125000  0.250000    0.00195312  22 t-inv F
 -0.250000 -0.250000 -0.250000    0.00195312  23 t-inv F
 -0.000000  0.250000  0.250000    0.00195312  23 t-inv F
  0.250000  0.000000 -0.250000    0.00195312  23 t-inv F
 -0.250000 -0.250000  0.250000    0.00195312  23 t-inv F
 -0.000000  0.250000 -0.250000    0.00195312  23 t-inv F
 -0.250000 -0.000000 -0.250000    0.00195312  23 t-inv F
  0.250000  0.250000  0.250000    0.00195312  23 t-inv F
  0.000000 -0.250000 -0.250000    0.00195312  23 t-inv F
 -0.250000 -0.000000  0.250000    0.00195312  23 t-inv F
  0.250000  0.250000 -0.250000    0.00195312  23 t-inv F
  0.000000 -0.250000  0.250000    0.00195312  23 t-inv F
 -0.375000 -0.375000 -0.250000    0.00195312  24 t-inv F
 -0.000000  0.375000  0.250000    0.00195312  24 t-inv F
  0.375000  0.000000 -0.250000    0.00195312  24 t-inv F
 -0.375000 -0.375000  0.250000    0.00195312  24 t-inv F
 -0.000000  0.375000 -0.250000    0.00195312  24 t-inv F
 -0.375000 -0.000000 -0.250000    0.00195312  24 t-inv F
  0.375000  0.375000  0.250000    0.00195312  24 t-inv F
  0.000000 -0.375000 -0.250000    0.00195312  24 t-inv F
 -0.375000 -0.000000  0.250000    0.00195312  24 t-inv F
  0.375000  0.375000 -0.250000    0.00195312  24 t-inv F
  0.000000 -0.375000  0.250000    0.00195312  24 t-inv F
 -0.500000 -0.500000 -0.250000    0.00195312  25 t-inv F
  0.000000  0.500000  0.250000    0.00195312  25 t-inv F
  0.500000 -0.000000 -0.250000    0.00195312  25 t-inv F
 -0.500000 -0.500000  0.250000    0.00195312  25 t-inv F
  0.000000  0.500000 -0.250000    0.00195312  25 t-inv F
 -0.125000 -0.250000 -0.250000    0.00195312  26 t-inv F
 -0.125000  0.125000  0.250000    0.00195312  26 t-inv F
  0.250000  0.125000 -0.250000    0.00195312  26 t-inv F
 -0.125000 -0.250000  0.250000    0.00195312  26 t-inv F
 -0.125000  0.125000 -0.250000    0.00195312  26 t-inv F
  0.125000 -0.125000  0.250000    0.00195312  26 t-inv F
  0.125000  0.250000 -0.250000    0.00195312  26 t-inv F
 -0.250000 -0.125000  0.250000    0.00195312  26 t-inv F
  0.125000 -0.125000 -0.250000    0.00195312  26 t-inv F
  0.125000  0.250000  0.250000    0.00195312  26 t-inv F
 -0.250000 -0.125000 -0.250000    0.00195312  26 t-inv F
 -0.250000 -0.375000 -0.250000    0.00195312  27 t-inv F
 -0.125000  0.250000  0.250000    0.00195312  27 t-inv F
  0.375000  0.125000 -0.250000    0.00195312  27 t-inv F
 -0.250000 -0.375000  0.250000    0.00195312  27 t-inv F
 -0.125000  0.250000 -0.250000    0.00195312  27 t-inv F
  0.250000 -0.125000  0.250000    0.00195312  27 t-inv F
  0.125000  0.375000 -0.250000    0.00195312  27 t-inv F
 -0.375000 -0.250000  0.250000    0.00195312  27 t-inv F
  0.250000 -0.125000 -0.250000    0.00195312  27 t-inv F
  0.125000  0.375000  0.250000    0.00195312  27 t-inv F
 -0.375000 -0.250000 -0.250000    0.00195312  27 t-inv F
 -0.375000 -0.125000 -0.250000    0.00195312  27 t-inv F
  0.250000  0.375000  0.250000    0.00195312  27 t-inv F
  0.125000 -0.250000 -0.250000    0.00195312  27 t-inv F
 -0.375000 -0.125000  0.250000    0.00195312  27 t-inv F
  0.250000  0.375000 -0.250000    0.00195312  27 t-inv F
  0.125000 -0.250000  0.250000    0.00195312  27 t-inv F
 -0.250000  0.125000 -0.250000    0.00195312  27 t-inv F
 -0.125000 -0.375000  0.250000    0.00195312  27 t-inv F
  0.375000  0.250000 -0.250000    0.00195312  27 t-inv F
 -0.250000  0.125000  0.250000    0.00195312  27 t-inv F
 -0.125000 -0.375000 -0.250000    0.00195312  27 t-inv F
  0.375000  0.250000  0.250000    0.00195312  27 t-inv F
 -0.375000 -0.500000 -0.250000    0.00195312  28 t-inv F
 -0.125000  0.375000  0.250000    0.00195312  28 t-inv F
  0.500000  0.125000 -0.250000    0.00195312  28 t-inv F
 -0.375000 -0.500000  0.250000    0.00195312  28 t-inv F
 -0.125000  0.375000 -0.250000    0.00195312  28 t-inv F
  0.375000 -0.125000  0.250000    0.00195312  28 t-inv F
  0.125000  0.500000 -0.250000    0.00195312  28 t-inv F
 -0.500000 -0.375000  0.250000    0.00195312  28 t-inv F
  0.375000 -0.125000 -0.250000    0.00195312  28 t-inv F
  0.125000  0.500000  0.250000    0.00195312  28 t-inv F
 -0.500000 -0.375000 -0.250000    0.00195312  28 t-inv F
 -0.500000 -0.125000 -0.250000    0.00195312  28 t-inv F
  0.375000  0.500000  0.250000    0.00195312  28 t-inv F
  0.125000 -0.375000 -0.250000    0.00195312  28 t-inv F
 -0.500000 -0.125000  0.250000    0.00195312  28 t-inv F
  0.375000  0.500000 -0.250000    0.00195312  28 t-inv F
  0.125000 -0.375000  0.250000    0.00195312  28 t-inv F
 -0.375000  0.125000 -0.250000    0.00195312  28 t-inv F
 -0.125000 -0.500000  0.250000    0.00195312  28 t-inv F
  0.500000  0.375000 -0.250000    0.00195312  28 t-inv F
 -0.375000  0.125000  0.250000    0.00195312  28 t-inv F
 -0.125000 -0.500000 -0.250000    0.00195312  28 t-inv F
  0.500000  0.375000  0.250000    0.00195312  28 t-inv F
 -0.250000 -0.500000 -0.250000    0.00195312  29 t-inv F
 -0.250000  0.250000  0.250000    0.00195312  29 t-inv F
  0.500000  0.250000 -0.250000    0.00195312  29 t-inv F
 -0.250000 -0.500000  0.250000    0.00195312  29 t-inv F
 -0.250000  0.250000 -0.250000    0.00195312  29 t-inv F
  0.250000 -0.250000  0.250000    0.00195312  29 t-inv F
  0.250000  0.500000 -0.250000    0.00195312  29 t-inv F
 -0.500000 -0.250000  0.250000    0.00195312  29 t-inv F
  0.250000 -0.250000 -0.250000    0.00195312  29 t-inv F
  0.250000  0.500000  0.250000    0.00195312  29 t-inv F
 -0.500000 -0.250000 -0.250000    0.00195312  29 t-inv F
  0.625000  0.375000 -0.250000    0.00195312  30 t-inv F
 -0.250000 -0.625000  0.250000    0.00195312  30 t-inv F
 -0.375000  0.250000 -0.250000    0.00195312  30 t-inv F
  0.625000  0.375000  0.250000    0.00195312  30 t-inv F
 -0.250000 -0.625000 -0.250000    0.00195312  30 t-inv F
 -0.625000 -0.250000  0.250000    0.00195312  30 t-inv F
  0.250000 -0.375000 -0.250000    0.00195312  30 t-inv F
  0.375000  0.625000  0.250000    0.00195312  30 t-inv F
 -0.625000 -0.250000 -0.250000    0.00195312  30 t-inv F
  0.250000 -0.375000  0.250000    0.00195312  30 t-inv F
  0.375000  0.625000 -0.250000    0.00195312  30 t-inv F
 -0.000000 -0.000000 -0.375000    0.00195312  31 t-inv F
 -0.125000 -0.125000 -0.375000    0.00195312  32 t-inv F
  0.000000  0.125000  0.375000    0.00195312  32 t-inv F
  0.125000 -0.000000 -0.375000    0.00195312  32 t-inv F
 -0.125000 -0.125000  0.375000    0.00195312  32 t-inv F
  0.000000  0.125000 -0.375000    0.00195312  32 t-inv F
 -0.125000  0.000000 -0.375000    0.00195312  32 t-inv F
  0.125000  0.125000  0.375000    0.00195312  32 t-inv F
 -0.000000 -0.125000 -0.375000    0.00195312  32 t-inv F
 -0.125000  0.000000  0.375000    0.00195312  32 t-inv F
  0.125000  0.125000 -0.375000    0.00195312  32 t-inv F
 -0.000000 -0.125000  0.375000    0.00195312  32 t-inv F
 -0.250000 -0.250000 -0.375000    0.00195312  33 t-inv F
 -0.000000  0.250000  0.375000    0.00195312  33 t-inv F
  0.250000  0.000000 -0.375000    0.00195312  33 t-inv F
 -0.250000 -0.250000  0.375000    0.00195312  33 t-inv F
 -0.000000  0.250000 -0.375000    0.00195312  33 t-inv F
 -0.250000 -0.000000 -0.375000    0.00195312  33 t-inv F
  0.250000  0.250000  0.375000    0.00195312  33 t-inv F
  0.000000 -0.250000 -0.375000    0.00195312  33 t-inv F
 -0.250000 -0.000000  0.375000    0.00195312  33 t-inv F
  0.250000  0.250000 -0.375000    0.00195312  33 t-inv F
  0.000000 -0.250000  0.375000    0.00195312  33 t-inv F
 -0.375000 -0.375000 -0.375000    0.00195312  34 t-inv F
 -0.000000  0.375000  0.375000    0.00195312  34 t-inv F
  0.375000  0.000000 -0.375000    0.00195312  34 t-inv F
 -0.375000 -0.375000  0.375000    0.00195312  34 t-inv F
 -0.000000  0.375000 -0.375000    0.00195312  34 t-inv F
 -0.375000 -0.000000 -0.375000    0.00195312  34 t-inv F
  0.375000  0.375000  0.375000    0.00195312  34 t-inv F
  0.000000 -0.375000 -0.375000    0.00195312  34 t-inv F
 -0.375000 -0.000000  0.375000    0.00195312  34 t-inv F
  0.375000  0.375000 -0.375000    0.00195312  34 t-inv F
  0.000000 -0.375000  0.375000    0.00195312  34 t-inv F
 -0.500000 -0.500000 -0.375000    0.00195312  35 t-inv F
 -0.000000  0.500000  0.375000    0.00195312  35 t-inv F
  0.500000  0.000000 -0.375000    0.00195312  35 t-inv F
 -0.500000 -0.500000  0.375000    0.00195312  35 t-inv F
 -0.000000  0.500000 -0.375000    0.00195312  35 t-inv F
 -0.125000 -0.250000 -0.375000    0.00195312  36 t-inv F
 -0.125000  0.125000  0.375000    0.00195312  36 t-inv F
  0.250000  0.125000 -0.375000    0.00195312  36 t-inv F
 -0.125000 -0.250000  0.375000    0.00195312  36 t-inv F
 -0.125000  0.125000 -0.375000    0.00195312  36 t-inv F
  0.125000 -0.125000  0.375000    0.00195312  36 t-inv F
  0.125000  0.250000 -0.375000    0.00195312  36 t-inv F
 -0.250000 -0.125000  0.375000    0.00195312  36 t-inv F
  0.125000 -0.125000 -0.375000    0.00195312  36 t-inv F
  0.125000  0.250000  0.375000    0.00195312  36 t-inv F
 -0.250000 -0.125000 -0.375000    0.00195312  36 t-inv F
 -0.250000 -0.375000 -0.375000    0.00195312  37 t-inv F
 -0.125000  0.250000  0.375000    0.00195312  37 t-inv F
  0.375000  0.125000 -0.375000    0.00195312  37 t-inv F
 -0.250000 -0.375000  0.375000    0.00195312  37 t-inv F
 -0.125000  0.250000 -0.375000    0.00195312  37 t-inv F
  0.250000 -0.125000  0.375000    0.00195312  37 t-inv F
  0.125000  0.375000 -0.375000    0.00195312  37 t-inv F
 -0.375000 -0.250000  0.375000    0.00195312  37 t-inv F
  0.250000 -0.125000 -0.375000    0.00195312  37 t-inv F
  0.125000  0.375000  0.375000    0.00195312  37 t-inv F
 -0.375000 -0.250000 -0.375000    0.00195312  37 t-inv F
 -0.375000 -0.125000 -0.375000    0.00195312  37 t-inv F
  0.250000  0.375000  0.375000    0.00195312  37 t-inv F
  0.125000 -0.250000 -0.375000    0.00195312  37 t-inv F
 -0.375000 -0.125000  0.375000    0.00195312  37 t-inv F
  0.250000  0.375000 -0.375000    0.00195312  37 t-inv F
  0.125000 -0.250000  0.375000    0.00195312  37 t-inv F
 -0.250000  0.125000 -0.375000    0.00195312  37 t-inv F
 -0.125000 -0.375000  0.375000    0.00195312  37 t-inv F
  0.375000  0.250000 -0.375000    0.00195312  37 t-inv F
 -0.250000  0.125000  0.375000    0.00195312  37 t-inv F
 -0.125000 -0.375000 -0.375000    0.00195312  37 t-inv F
  0.375000  0.250000  0.375000    0.00195312  37 t-inv F
 -0.375000 -0.500000 -0.375000    0.00195312  38 t-inv F
 -0.125000  0.375000  0.375000    0.00195312  38 t-inv F
  0.500000  0.125000 -0.375000    0.00195312  38 t-inv F
 -0.375000 -0.500000  0.375000    0.00195312  38 t-inv F
 -0.125000  0.375000 -0.375000    0.00195312  38 t-inv F
  0.375000 -0.125000  0.375000    0.00195312  38 t-inv F
  0.125000  0.500000 -0.375000    0.00195312  38 t-inv F
 -0.500000 -0.375000  0.375000    0.00195312  38 t-inv F
  0.375000 -0.125000 -0.375000    0.00195312  38 t-inv F
  0.125000  0.500000  0.375000    0.00195312  38 t-inv F
 -0.500000 -0.375000 -0.375000    0.00195312  38 t-inv F
 -0.500000 -0.125000 -0.375000    0.00195312  38 t-inv F
  0.375000  0.500000  0.375000    0.00195312  38 t-inv F
  0.125000 -0.375000 -0.375000    0.00195312  38 t-inv F
 -0.500000 -0.125000  0.375000    0.00195312  38 t-inv F
  0.375000  0.500000 -0.375000    0.00195312  38 t-inv F
  0.125000 -0.375000  0.375000    0.00195312  38 t-inv F
 -0.375000  0.125000 -0.375000    0.00195312  38 t-inv F
 -0.125000 -0.500000  0.375000    0.00195312  38 t-inv F
  0.500000  0.375000 -0.375000    0.00195312  38 t-inv F
 -0.375000  0.125000  0.375000    0.00195312  38 t-inv F
 -0.125000 -0.500000 -0.375000    0.00195312  38 t-inv F
  0.500000  0.375000  0.375000    0.00195312  38 t-inv F
 -0.250000 -0.500000 -0.375000    0.00195312  39 t-inv F
 -0.250000  0.250000  0.375000    0.00195312  39 t-inv F
  0.500000  0.250000 -0.375000    0.00195312  39 t-inv F
 -0.250000 -0.500000  0.375000    0.00195312  39 t-inv F
 -0.250000  0.250000 -0.375000    0.00195312  39 t-inv F
  0.250000 -0.250000  0.375000    0.00195312  39 t-inv F
  0.250000  0.500000 -0.375000    0.00195312  39 t-inv F
 -0.500000 -0.250000  0.375000    0.00195312  39 t-inv F
  0.250000 -0.250000 -0.375000    0.00195312  39 t-inv F
  0.250000  0.500000  0.375000    0.00195312  39 t-inv F
 -0.500000 -0.250000 -0.375000    0.00195312  39 t-inv F
  0.625000  0.375000 -0.375000    0.00195312  40 t-inv F
 -0.250000 -0.625000  0.375000    0.00195312  40 t-inv F
 -0.375000  0.250000 -0.375000    0.00195312  40 t-inv F
  0.625000  0.375000  0.375000    0.00195312  40 t-inv F
 -0.250000 -0.625000 -0.375000    0.00195312  40 t-inv F
 -0.625000 -0.250000  0.375000    0.00195312  40 t-inv F
  0.250000 -0.375000 -0.375000    0.00195312  40 t-inv F
  0.375000  0.625000  0.375000    0.00195312  40 t-inv F
 -0.625000 -0.250000 -0.375000    0.00195312  40 t-inv F
  0.250000 -0.375000  0.375000    0.00195312  40 t-inv F
  0.375000  0.625000 -0.375000    0.00195312  40 t-inv F
 -0.125000 -0.125000 -0.500000    0.00195312  42 t-inv F
  0.000000  0.125000  0.500000    0.00195312  42 t-inv F
 -0.125000  0.000000 -0.500000    0.00195312  42 t-inv F
  0.125000  0.125000  0.500000    0.00195312  42 t-inv F
 -0.000000 -0.125000 -0.500000    0.00195312  42 t-inv F
 -0.250000 -0.250000 -0.500000    0.00195312  43 t-inv F
  0.000000  0.250000  0.500000    0.00195312  43 t-inv F
 -0.250000  0.000000 -0.500000    0.00195312  43 t-inv F
  0.250000  0.250000  0.500000    0.00195312  43 t-inv F
 -0.000000 -0.250000 -0.500000    0.00195312  43 t-inv F
 -0.375000 -0.375000 -0.500000    0.00195312  44 t-inv F
 -0.000000  0.375000  0.500000    0.00195312  44 t-inv F
 -0.375000 -0.000000 -0.500000    0.00195312  44 t-inv F
  0.375000  0.375000  0.500000    0.00195312  44 t-inv F
  0.000000 -0.375000 -0.500000    0.00195312  44 t-inv F
 -0.500000 -0.500000 -0.500000    0.00195312  45 t-inv F
 -0.000000  0.500000  0.500000    0.00195312  45 t-inv F
 -0.125000 -0.250000 -0.500000    0.00195312  46 t-inv F
 -0.125000  0.125000  0.500000    0.00195312  46 t-inv F
  0.125000 -0.125000  0.500000    0.00195312  46 t-inv F
  0.125000  0.250000 -0.500000    0.00195312  46 t-inv F
 -0.250000 -0.125000  0.500000    0.00195312  46 t-inv F
 -0.250000 -0.375000 -0.500000    0.00195312  47 t-inv F
 -0.125000  0.250000  0.500000    0.00195312  47 t-inv F
  0.250000 -0.125000  0.500000    0.00195312  47 t-inv F
  0.125000  0.375000 -0.500000    0.00195312  47 t-inv F
 -0.375000 -0.250000  0.500000    0.00195312  47 t-inv F
 -0.375000 -0.125000 -0.500000    0.00195312  47 t-inv F
  0.250000  0.375000  0.500000    0.00195312  47 t-inv F
  0.125000 -0.250000 -0.500000    0.00195312  47 t-inv F
 -0.250000  0.125000 -0.500000    0.00195312  47 t-inv F
 -0.125000 -0.375000  0.500000    0.00195312  47 t-inv F
  0.375000  0.250000 -0.500000    0.00195312  47 t-inv F
 -0.375000 -0.500000 -0.500000    0.00195312  48 t-inv F
 -0.125000  0.375000  0.500000    0.00195312  48 t-inv F
  0.375000 -0.125000  0.500000    0.00195312  48 t-inv F
  0.125000  0.500000 -0.500000    0.00195312  48 t-inv F
 -0.500000 -0.375000  0.500000    0.00195312  48 t-inv F
 -0.500000 -0.125000 -0.500000    0.00195312  48 t-inv F
  0.375000  0.500000  0.500000    0.00195312  48 t-inv F
  0.125000 -0.375000 -0.500000    0.00195312  48 t-inv F
 -0.375000  0.125000 -0.500000    0.00195312  48 t-inv F
 -0.125000 -0.500000  0.500000    0.00195312  48 t-inv F
  0.500000  0.375000 -0.500000    0.00195312  48 t-inv F
 -0.250000 -0.500000 -0.500000    0.00195312  49 t-inv F
 -0.250000  0.250000  0.500000    0.00195312  49 t-inv F
  0.250000 -0.250000  0.500000    0.00195312  49 t-inv F
  0.250000  0.500000 -0.500000    0.00195312  49 t-inv F
 -0.500000 -0.250000  0.500000    0.00195312  49 t-inv F
  0.625000  0.375000 -0.500000    0.00195312  50 t-inv F
 -0.250000 -0.625000  0.500000    0.00195312  50 t-inv F
 -0.625000 -0.250000  0.500000    0.00195312  50 t-inv F
  0.250000 -0.375000 -0.500000    0.00195312  50 t-inv F
  0.375000  0.625000  0.500000    0.00195312  50 t-inv F


--------------------------------------------------------------------------------------------------------




 Dimension of arrays:
   k-points           NKPTS =     50   k-points in BZ     NKDIM =     50   number of bands    NBANDS=     48
   number of dos      NEDOS =    301   number of ions     NIONS =      2
   non local maximal  LDIM  =      6   non local SUM 2l+1 LMDIM =     18
   total plane-waves  NPLWV =   5488
   max r-space proj   IRMAX =      1   max aug-charges    IRDMAX=   5233
   dimension x,y,z NGX =    14 NGY =   14 NGZ =   28
   dimension x,y,z NGXF=    28 NGYF=   28 NGZF=   56
   support grid    NGXF=    28 NGYF=   28 NGZF=   56
   ions per type =               2
   NGX,Y,Z   is equivalent  to a cutoff of   7.66,  7.66,  8.07 a.u.
   NGXF,Y,Z  is equivalent  to a cutoff of  15.33, 15.33, 16.13 a.u.

 SYSTEM =  Cd                                      
 POSCAR =  Cd2                                     

 Startparameter for this run:
   NWRITE =      2    write-flag & timer
   PREC   = normal    normal or accurate (medium, high low for compatibility)
   ISTART =      1    job   : 0-new  1-cont  2-samecut
   ICHARG =      0    charge: 1-file 2-atom 10-const
   ISPIN  =      1    spin polarized calculation?
   LNONCOLLINEAR =      F non collinear calculations
   LSORBIT =      F    spin-orbit coupling
   INIWAV =      1    electr: 0-lowe 1-rand  2-diag
   LASPH  =      F    aspherical Exc in radial PAW
 Electronic Relaxation 1
   ENCUT  =  356.6 eV  26.21 Ry    5.12 a.u.   4.68  4.68  8.89*2*pi/ulx,y,z
   ENINI  =  356.6     initial cutoff
   ENAUG  =  456.1 eV  augmentation charge cutoff
   NELM   =     60;   NELMIN=  2; NELMDL=  0     # of ELM steps 
   EDIFF  = 0.1E-03   stopping-criterion for ELM
   LREAL  =      F    real-space projection
   NLSPLINE    = F    spline interpolate recip. space projectors
   LCOMPAT=      F    compatible to vasp.4.4
   GGA_COMPAT  = T    GGA compatible to vasp.4.4-vasp.4.6
   LMAXPAW     = -100 max onsite density
   LMAXMIX     =    2 max onsite mixed and CHGCAR
   VOSKOWN=      0    Vosko Wilk Nusair interpolation
   ROPT   =    0.00000
 Ionic relaxation
   EDIFFG = 0.1E-02   stopping-criterion for IOM
   NSW    =      0    number of steps for IOM
   NBLOCK =      1;   KBLOCK =      1    inner block; outer block 
   IBRION =     -1    ionic relax: 0-MD 1-quasi-New 2-CG
   NFREE  =      0    steps in history (QN), initial steepest desc. (CG)
   ISIF   =      2    stress and relaxation
   IWAVPR =     10    prediction:  0-non 1-charg 2-wave 3-comb
   ISYM   =      2    0-nonsym 1-usesym 2-fastsym
   LCORR  =      T    Harris-Foulkes like correction to forces

   POTIM  = 0.5000    time-step for ionic-motion
   TEIN   =    0.0    initial temperature
   TEBEG  =    0.0;   TEEND  =   0.0 temperature during run
   SMASS  =  -3.00    Nose mass-parameter (am)
   estimated Nose-frequenzy (Omega)   =  0.10E-29 period in steps = 0.13E+47 mass=  -0.211E-27a.u.
   SCALEE = 1.0000    scale energy and forces
   NPACO  =    256;   APACO  = 10.0  distance and # of slots for P.C.
   PSTRESS=    0.0 pullay stress

  Mass of Ions in am
   POMASS = 112.41
  Ionic Valenz
   ZVAL   =  12.00
  Atomic Wigner-Seitz radii
   RWIGS  =  -1.00
  virtual crystal weights 
   VCA    =   1.00
   NELECT =      24.0000    total number of electrons
   NUPDOWN=      -1.0000    fix difference up-down

 DOS related values:
   EMIN   =  10.00;   EMAX   =-10.00  energy-range for DOS
   EFERMI =   0.00;   METHOD = LEGACY      
   ISMEAR =     0;   SIGMA  =   0.05  broadening in eV -4-tet -1-fermi 0-gaus

 Electronic relaxation 2 (details)
   IALGO  =     38    algorithm
   LDIAG  =      T    sub-space diagonalisation (order eigenvalues)
   LSUBROT=      F    optimize rotation matrix (better conditioning)
   TURBO    =      0    0=normal 1=particle mesh
   IRESTART =      0    0=no restart 2=restart with 2 vectors
   NREBOOT  =      0    no. of reboots
   NMIN     =      0    reboot dimension
   EREF     =   0.00    reference energy to select bands
   IMIX   =      4    mixing-type and parameters
     AMIX     =   0.40;   BMIX     =  1.00
     AMIX_MAG =   1.60;   BMIX_MAG =  1.00
     AMIN     =   0.10
     WC   =   100.;   INIMIX=   1;  MIXPRE=   1;  MAXMIX= -45

 Intra band minimization:
   WEIMIN = 0.0000     energy-eigenvalue tresh-hold
   EBREAK =  0.52E-06  absolut break condition
   DEPER  =   0.30     relativ break condition  

   TIME   =   0.40     timestep for ELM

  volume/ion in A,a.u.               =      23.05       155.54
  Fermi-wavevector in a.u.,A,eV,Ry     =   1.316991  2.488751 23.598819  1.734464
  Thomas-Fermi vector in A             =   2.447063
 
 Write flags
   LWAVE        =      T    write WAVECAR
   LDOWNSAMPLE  =      F    k-point downsampling of WAVECAR
   LCHARG       =      T    write CHGCAR
   LVTOT        =      F    write LOCPOT, total local potential
   LVHAR        =      F    write LOCPOT, Hartree potential only
   WRT_POTENTIAL= false  ! write potential to hdf5 file
   LELF         =      F    write electronic localiz. function (ELF)
   LORBIT       =      0    0 simple, 1 ext, 2 COOP (PROOUT), +10 PAW based schemes


 Dipole corrections
   LMONO      =      F    monopole corrections only (constant potential shift)
   LDIPOL     =      F    correct potential (dipole corrections)
   IDIPOL     =      0    1-x, 2-y, 3-z, 4-all directions 
   EPSILON    =  1.0000000 bulk dielectric constant
   LVACPOTAV  =      F  vacuum potentials using an averaging scheme for the charge density
   VACPOTFLAT =  0.1000000 required flatness to determine vacuum potential
 Exchange correlation treatment:
   GGA     = PE    functional components
   XC_C    = 1    coefficients multiplying the functional components
   LIBXC   =     F    Libxc                    
   VOSKOWN =     0    Vosko Wilk Nusair interpolation
   LHFCALC =     F    Hartree Fock is set to
   LHFONE  =     F    Hartree Fock one center treatment
   AEXX    =    0.0000 exact exchange contribution

 Parameters of functionals:
   PE:
     No parameter
 
 Van der Waals corrections
   IVDW    =     0    specifies the selected vdW correction

 Linear response parameters
   LEPSILON=     F    determine dielectric tensor
   LRPA    =     F    only Hartree local field effects (RPA)
   LNABLA  =     F    use nabla operator in PAW spheres
   LVEL    =     F    velocity operator in full k-point grid
   CSHIFT  =0.1000    complex shift for real part using Kramers Kronig
   OMEGAMAX=  -1.0    maximum frequency
   DEG_THRESHOLD= 0.2000000E-02 threshold for treating states as degnerate
   RTIME   =   -0.100 relaxation time in fs
  (WPLASMAI=    0.000 imaginary part of plasma frequency in eV, 0.658/RTIME)
   DFIELD  = 0.0000000 0.0000000 0.0000000 field for delta impulse in time
 
  Optional k-point grid parameters
   LKPOINTS_OPT  =     T    use optional k-point grid
   KPOINTS_OPT_MODE=     1    mode for optional k-point grid
 
 Orbital magnetization related:
   ORBITALMAG=     F  switch on orbital magnetization
   LCHIMAG   =     F  perturbation theory with respect to B field
   DQ        =  0.001000  dq finite difference perturbation B field
   LLRAUG    =     F  two centre corrections for induced B field
   LBONE     =     F  B-component reconstruction in AE one-centre
   LVGVCALC  =     T  calculate vGv susceptibility
   LVGVAPPL  =     F  apply vGv susceptibility instead of pGv for G=0

 Random number generation:
   RANDOM_GENERATOR = DEFAULT
   PCG_SEED         = not used


--------------------------------------------------------------------------------------------------------


 Static calculation
 charge density and potential will be updated during run
 non-spin polarized calculation
 Variant of blocked Davidson
 Davidson routine will perform the subspace rotation
 perform sub-space diagonalisation
    after iterative eigenvector-optimisation
 modified Broyden-mixing scheme, WC =      100.0
 initial mixing is a Kerker type mixing with AMIX =  0.4000 and BMIX =      1.0000
 Hartree-type preconditioning will be used
 using additional bands           36
 reciprocal scheme for non local part
 use partial core corrections
 calculate Harris-corrections to forces 
   (improved forces if not selfconsistent)
 use gradient corrections 
 use of overlap-Matrix (Vanderbilt PP)
 Gauss-broadening in eV      SIGMA  =   0.05


--------------------------------------------------------------------------------------------------------


  energy-cutoff  :      356.64
  volume of cell :       46.10
      direct lattice vectors                 reciprocal lattice vectors
     3.037160000  0.000000000  0.000000000     0.329254962 -0.190095441  0.000000000
     1.518580000  2.630257715  0.000000000     0.000000000  0.380190882  0.000000000
     0.000000000  0.000000000  5.770610000    -0.000000000 -0.000000000  0.173291905

  length of vectors
     3.037160000  3.037160000  5.770610000     0.380190882  0.380190882  0.173291905


 
 old parameters found on file WAVECAR:
  energy-cutoff  :      356.64
  volume of cell :       46.10
      direct lattice vectors                 reciprocal lattice vectors
     3.037160000  0.000000000  0.000000000     0.329254962 -0.190095441  0.000000000
     1.518580000  2.630257715  0.000000000     0.000000000  0.380190882  0.000000000
     0.000000000  0.000000000  5.770610000    -0.000000000 -0.000000000  0.173291905

  length of vectors

 
 k-points in units of 2pi/SCALE and weight: Automatic kpoint scheme                 
   0.00000000  0.00000000  0.00000000       0.002
   0.04115687 -0.02376193  0.00000000       0.012
   0.08231374 -0.04752386  0.00000000       0.012
   0.12347061 -0.07128579  0.00000000       0.012
   0.16462748 -0.09504772  0.00000000       0.006
   0.08231374 -0.00000000  0.00000000       0.012
   0.12347061 -0.02376193  0.00000000       0.023
   0.16462748 -0.04752386  0.00000000       0.023
   0.16462748 -0.00000000  0.00000000       0.012
  -0.12347061  0.16633351  0.00000000       0.012
  -0.00000000 -0.00000000  0.02166149       0.004
   0.04115687 -0.02376193  0.02166149       0.023
   0.08231374 -0.04752386  0.02166149       0.023
   0.12347061 -0.07128579  0.02166149       0.023
   0.16462748 -0.09504772  0.02166149       0.012
   0.08231374 -0.00000000  0.02166149       0.023
   0.12347061 -0.02376193  0.02166149       0.047
   0.16462748 -0.04752386  0.02166149       0.047
   0.16462748 -0.00000000  0.02166149       0.023
  -0.12347061  0.16633351  0.02166149       0.023
  -0.00000000 -0.00000000  0.04332298       0.004
   0.04115687 -0.02376193  0.04332298       0.023
   0.08231374 -0.04752386  0.04332298       0.023
   0.12347061 -0.07128579  0.04332298       0.023
   0.16462748 -0.09504772  0.04332298       0.012
   0.08231374 -0.00000000  0.04332298       0.023
   0.12347061 -0.02376193  0.04332298       0.047
   0.16462748 -0.04752386  0.04332298       0.047
   0.16462748 -0.00000000  0.04332298       0.023
  -0.12347061  0.16633351  0.04332298       0.023
  -0.00000000 -0.00000000  0.06498446       0.004
   0.04115687 -0.02376193  0.06498446       0.023
   0.08231374 -0.04752386  0.06498446       0.023
   0.12347061 -0.07128579  0.06498446       0.023
   0.16462748 -0.09504772  0.06498446       0.012
   0.08231374 -0.00000000  0.06498446       0.023
   0.12347061 -0.02376193  0.06498446       0.047
   0.16462748 -0.04752386  0.06498446       0.047
   0.16462748 -0.00000000  0.06498446       0.023
  -0.12347061  0.16633351  0.06498446       0.023
  -0.00000000 -0.00000000  0.08664595       0.002
   0.04115687 -0.02376193  0.08664595       0.012
   0.08231374 -0.04752386  0.08664595       0.012
   0.12347061 -0.07128579  0.08664595       0.012
   0.16462748 -0.09504772  0.08664595       0.006
   0.08231374 -0.00000000  0.08664595       0.012
   0.12347061 -0.02376193  0.08664595       0.023
   0.16462748 -0.04752386  0.08664595       0.023
   0.16462748 -0.00000000  0.08664595       0.012
  -0.12347061  0.16633351  0.08664595       0.012
 
 k-points in reciprocal lattice and weights: Automatic kpoint scheme                 
   0.00000000  0.00000000  0.00000000       0.002
   0.12500000 -0.00000000  0.00000000       0.012
   0.25000000 -0.00000000  0.00000000       0.012
   0.37500000 -0.00000000  0.00000000       0.012
   0.50000000 -0.00000000  0.00000000       0.006
   0.25000000  0.12500000  0.00000000       0.012
   0.37500000  0.12500000  0.00000000       0.023
   0.50000000  0.12500000  0.00000000       0.023
   0.50000000  0.25000000  0.00000000       0.012
  -0.37500000  0.25000000  0.00000000       0.012
   0.00000000  0.00000000  0.12500000       0.004
   0.12500000  0.00000000  0.12500000       0.023
   0.25000000 -0.00000000  0.12500000       0.023
   0.37500000 -0.00000000  0.12500000       0.023
   0.50000000 -0.00000000  0.12500000       0.012
   0.25000000  0.12500000  0.12500000       0.023
   0.37500000  0.12500000  0.12500000       0.047
   0.50000000  0.12500000  0.12500000       0.047
   0.50000000  0.25000000  0.12500000       0.023
  -0.37500000  0.25000000  0.12500000       0.023
   0.00000000  0.00000000  0.25000000       0.004
   0.12500000 -0.00000000  0.25000000       0.023
   0.25000000  0.00000000  0.25000000       0.023
   0.37500000  0.00000000  0.25000000       0.023
   0.50000000 -0.00000000  0.25000000       0.012
   0.25000000  0.12500000  0.25000000       0.023
   0.37500000  0.12500000  0.25000000       0.047
   0.50000000  0.12500000  0.25000000       0.047
   0.50000000  0.25000000  0.25000000       0.023
  -0.37500000  0.25000000  0.25000000       0.023
   0.00000000 -0.00000000  0.37500000       0.004
   0.12500000 -0.00000000  0.37500000       0.023
   0.25000000  0.00000000  0.37500000       0.023
   0.37500000  0.00000000  0.37500000       0.023
   0.50000000  0.00000000  0.37500000       0.012
   0.25000000  0.12500000  0.37500000       0.023
   0.37500000  0.12500000  0.37500000       0.047
   0.50000000  0.12500000  0.37500000       0.047
   0.50000000  0.25000000  0.37500000       0.023
  -0.37500000  0.25000000  0.37500000       0.023
   0.00000000  0.00000000  0.50000000       0.002
   0.12500000 -0.00000000  0.50000000       0.012
   0.25000000 -0.00000000  0.50000000       0.012
   0.37500000  0.00000000  0.50000000       0.012
   0.50000000  0.00000000  0.50000000       0.006
   0.25000000  0.12500000  0.50000000       0.012
   0.37500000  0.12500000  0.50000000       0.023
   0.50000000  0.12500000  0.50000000       0.023
   0.50000000  0.25000000  0.50000000       0.012
  -0.37500000  0.25000000  0.50000000       0.012
 
 position of ions in fractional coordinates (direct lattice) 
   0.00000000  0.00000000  0.00000000
   0.33333333  0.33333333  0.50000000
 
 position of ions in cartesian coordinates  (Angst):
   0.00000000  0.00000000  0.00000000
   1.51858000  0.87675257  2.88530500
 


--------------------------------------------------------------------------------------------------------


 k-point     1 :   0.0000 0.0000 0.0000  plane waves:     713
 k-point     2 :   0.1250-0.0000 0.0000  plane waves:     700
 k-point     3 :   0.2500-0.0000 0.0000  plane waves:     708
 k-point     4 :   0.3750-0.0000 0.0000  plane waves:     700
 k-point     5 :   0.5000-0.0000 0.0000  plane waves:     700
 k-point     6 :   0.2500 0.1250 0.0000  plane waves:     697
 k-point     7 :   0.3750 0.1250 0.0000  plane waves:     710
 k-point     8 :   0.5000 0.1250 0.0000  plane waves:     706
 k-point     9 :   0.5000 0.2500 0.0000  plane waves:     709
 k-point    10 :  -0.3750 0.2500 0.0000  plane waves:     696
 k-point    11 :   0.0000 0.0000 0.1250  plane waves:     702
 k-point    12 :   0.1250 0.0000 0.1250  plane waves:     706
 k-point    13 :   0.2500-0.0000 0.1250  plane waves:     705
 k-point    14 :   0.3750-0.0000 0.1250  plane waves:     706
 k-point    15 :   0.5000-0.0000 0.1250  plane waves:     706
 k-point    16 :   0.2500 0.1250 0.1250  plane waves:     709
 k-point    17 :   0.3750 0.1250 0.1250  plane waves:     707
 k-point    18 :   0.5000 0.1250 0.1250  plane waves:     703
 k-point    19 :   0.5000 0.2500 0.1250  plane waves:     712
 k-point    20 :  -0.3750 0.2500 0.1250  plane waves:     698
 k-point    21 :   0.0000 0.0000 0.2500  plane waves:     702
 k-point    22 :   0.1250-0.0000 0.2500  plane waves:     706
 k-point    23 :   0.2500 0.0000 0.2500  plane waves:     704
 k-point    24 :   0.3750 0.0000 0.2500  plane waves:     709
 k-point    25 :   0.5000-0.0000 0.2500  plane waves:     710
 k-point    26 :   0.2500 0.1250 0.2500  plane waves:     710
 k-point    27 :   0.3750 0.1250 0.2500  plane waves:     706
 k-point    28 :   0.5000 0.1250 0.2500  plane waves:     708
 k-point    29 :   0.5000 0.2500 0.2500  plane waves:     703
 k-point    30 :  -0.3750 0.2500 0.2500  plane waves:     694
 k-point    31 :   0.0000-0.0000 0.3750  plane waves:     720
 k-point    32 :   0.1250-0.0000 0.3750  plane waves:     715
 k-point    33 :   0.2500 0.0000 0.3750  plane waves:     707
 k-point    34 :   0.3750 0.0000 0.3750  plane waves:     704
 k-point    35 :   0.5000 0.0000 0.3750  plane waves:     706
 k-point    36 :   0.2500 0.1250 0.3750  plane waves:     710
 k-point    37 :   0.3750 0.1250 0.3750  plane waves:     701
 k-point    38 :   0.5000 0.1250 0.3750  plane waves:     703
 k-point    39 :   0.5000 0.2500 0.3750  plane waves:     703
 k-point    40 :  -0.3750 0.2500 0.3750  plane waves:     696
 k-point    41 :   0.0000 0.0000 0.5000  plane waves:     726
 k-point    42 :   0.1250-0.0000 0.5000  plane waves:     720
 k-point    43 :   0.2500-0.0000 0.5000  plane waves:     716
 k-point    44 :   0.3750 0.0000 0.5000  plane waves:     702
 k-point    45 :   0.5000 0.0000 0.5000  plane waves:     688
 k-point    46 :   0.2500 0.1250 0.5000  plane waves:     704
 k-point    47 :   0.3750 0.1250 0.5000  plane waves:     704
 k-point    48 :   0.5000 0.1250 0.5000  plane waves:     704
 k-point    49 :   0.5000 0.2500 0.5000  plane waves:     698
 k-point    50 :  -0.3750 0.2500 0.5000  plane waves:     698

 maximum and minimum number of plane-waves per node :       726      688

 maximum number of plane-waves:       726
 maximum index in each direction: 
   IXMAX=    5   IYMAX=    4   IZMAX=    8
   IXMIN=   -5   IYMIN=   -4   IZMIN=   -9


 serial   3D FFT for wavefunctions
 parallel 3D FFT for charge:
    minimum data exchange during FFTs selected (reduces bandwidth)


 total amount of memory used by VASP MPI-rank0    36615. kBytes
=======================================================================

   base      :      30000. kBytes
   nonl-proj :       5554. kBytes
   fftplans  :         79. kBytes
   grid      :        299. kBytes
   one-center:         31. kBytes
   wavefun   :        652. kBytes
 
     INWAV:  cpu time      0.0886: real time      0.0888
 Broyden mixing: mesh for mixing (old mesh)
   NGX =  9   NGY =  9   NGZ = 17
  (NGX  = 28   NGY  = 28   NGZ  = 56)
  gives a total of   1377 points

 charge density for first step will be calculated from the start-wavefunctions


--------------------------------------------------------------------------------------------------------


 Maximum index for augmentation-charges          323 (set IRDMAX)


--------------------------------------------------------------------------------------------------------


 initial charge from wavefunction
 First call to EWALD:  gamma=   0.494
 Maximum number of real-space cells 4x 4x 2
 Maximum number of reciprocal cells 2x 2x 4

    FEWALD:  cpu time      0.0016: real time      0.0016


--------------------------------------- Ionic step        1  -------------------------------------------




--------------------------------------- Iteration      1(   1)  ---------------------------------------


    POTLOK:  cpu time      0.0028: real time      0.0045
    SETDIJ:  cpu time      0.0019: real time      0.0020
     EDDAV:  cpu time      0.3607: real time      0.3610
       DOS:  cpu time      0.0015: real time      0.0016
    CHARGE:  cpu time      0.0045: real time      0.0045
    MIXING:  cpu time      0.0008: real time      0.0010
    --------------------------------------------
      LOOP:  cpu time      0.3721: real time      0.3746

 eigenvalue-minimisations  :  2544
 total energy-change (2. order) :-0.1450421E+01  (-0.3943985E-05)
 number of electron      24.0000077 magnetization 
 augmentation part       11.4385259 magnetization 

 Broyden mixing:
  rms(total) = 0.12605E-02    rms(broyden)= 0.12582E-02
  rms(prec ) = 0.16062E-02
  weight for this iteration     100.00

 Free energy of the ion-electron system (eV)
  ---------------------------------------------------
  alpha Z        PSCENC =       193.16787861
  Ewald energy   TEWEN  =     -2096.48189481
  -Hartree energ DENC   =      -631.56103893
  -exchange      EXHF   =         0.00000000
  -V(xc)+E(xc)   XCENC  =        10.41500439
  PAW double counting   =      2502.38633338    -2434.69101493
  entropy T*S    EENTRO =        -0.00251193
  eigenvalues    EBANDS =      -130.95339542
  atomic energy  EATOM  =      2586.27021872
  Solvation  Ediel_sol  =         0.00000000
  ---------------------------------------------------
  free energy    TOTEN  =        -1.45042092 eV

  energy without entropy =       -1.44790899  energy(sigma->0) =       -1.44916495


--------------------------------------------------------------------------------------------------------




--------------------------------------- Iteration      1(   2)  ---------------------------------------


    POTLOK:  cpu time      0.0031: real time      0.0038
    SETDIJ:  cpu time      0.0019: real time      0.0019
     EDDAV:  cpu time      0.3111: real time      0.3110
       DOS:  cpu time      0.0005: real time      0.0005
    --------------------------------------------
      LOOP:  cpu time      0.3166: real time      0.3172

 eigenvalue-minimisations  :  2400
 total energy-change (2. order) : 0.8486491E-06  (-0.6475100E-06)
 number of electron      24.0000077 magnetization 
 augmentation part       11.4385259 magnetization 

 Free energy of the ion-electron system (eV)
  ---------------------------------------------------
  alpha Z        PSCENC =       193.16787861
  Ewald energy   TEWEN  =     -2096.48189481
  -Hartree energ DENC   =      -631.59535198
  -exchange      EXHF   =         0.00000000
  -V(xc)+E(xc)   XCENC  =        10.41626973
  PAW double counting   =      2502.35649248    -2434.66255545
  entropy T*S    EENTRO =        -0.00251227
  eigenvalues    EBANDS =      -130.91896511
  atomic energy  EATOM  =      2586.27021872
  Solvation  Ediel_sol  =         0.00000000
  ---------------------------------------------------
  free energy    TOTEN  =        -1.45042007 eV

  energy without entropy =       -1.44790779  energy(sigma->0) =       -1.44916393


--------------------------------------------------------------------------------------------------------




 average (electrostatic) potential at core
  the test charge radii are     1.0698
  (the norm of the test charge is              1.0000)
       1 -39.7472       2 -39.7473
 
 
 
 E-fermi :   2.4986     XC(G=0): -10.6871     alpha+bet : -6.3818

 val. band max:        2.4737017711   @ k =   0.5000   0.0000   0.5000
 cond. band min:       2.5092313624   @ k =   0.5000   0.1250   0.0000
 fundamental gap:      0.0355295912
 Fermi energy:         2.4985828289

 k-point     1 :       0.0000    0.0000    0.0000
  band No.  band energies     occupation 
      1      -7.1060      2.00000
      2      -6.8905      2.00000
      3      -6.5702      2.00000
      4      -6.5702      2.00000
      5      -6.5281      2.00000
      6      -6.5281      2.00000
      7      -6.1061      2.00000
      8      -6.1061      2.00000
      9      -5.9015      2.00000
     10      -5.8967      2.00000
     11      -5.8967      2.00000
     12      -0.6160      2.00000
     13      -0.2482      2.00000
     14      12.5074      0.00000
     15      16.5888      0.00000
     16      16.7650      0.00000
     17      16.8168      0.00000
     18      16.8168      0.00000
     19      17.9245      0.00000
     20      18.4187      0.00000
     21      18.4187      0.00000
     22      21.0445      0.00000
     23      21.7814      0.00000
     24      21.7814      0.00000
     25      22.2639      0.00000
     26      22.6207      0.00000
     27      22.6207      0.00000
     28      23.2057      0.00000
     29      23.2057      0.00000
     30      23.8638      0.00000
     31      23.8639      0.00000
     32      24.2326      0.00000
     33      28.4813      0.00000
     34      33.0440      0.00000
     35      34.1368      0.00000
     36      34.1368      0.00000
     37      34.6553      0.00000
     38      34.6553      0.00000
     39      35.2147      0.00000
     40      35.5078      0.00000
     41      35.5078      0.00000
     42      35.9563      0.00000
     43      37.7546      0.00000
     44      37.7546      0.00000
     45      38.2653      0.00000
     46      38.5968      0.00000
     47      46.3005      0.00000
     48      51.1888      0.00000

 k-point     2 :       0.1250   -0.0000    0.0000
  band No.  band energies     occupation 
      1      -6.9846      2.00000
      2      -6.7963      2.00000
      3      -6.6140      2.00000
      4      -6.5552      2.00000
      5      -6.4442      2.00000
      6      -6.4065      2.00000
      7      -6.2126      2.00000
      8      -6.1472      2.00000
      9      -6.0472      2.00000
     10      -5.8960      2.00000
     11      -5.5470      2.00000
     12      -0.3766      2.00000
     13       0.2952      2.00000
     14      12.8258      0.00000
     15      12.9671      0.00000
     16      14.8355      0.00000
     17      16.0747      0.00000
     18      16.4064      0.00000
     19      17.5460      0.00000
     20      17.5659      0.00000
     21      19.0498      0.00000
     22      19.1446      0.00000
     23      19.3038      0.00000
     24      20.7176      0.00000
     25      21.8760      0.00000
     26      23.2038      0.00000
     27      24.6766      0.00000
     28      24.8806      0.00000
     29      25.2248      0.00000
     30      26.6402      0.00000
     31      27.1555      0.00000
     32      27.5607      0.00000
     33      29.8545      0.00000
     34      31.1145      0.00000
     35      31.5535      0.00000
     36      32.2396      0.00000
     37      32.6411      0.00000
     38      33.9789      0.00000
     39      35.1784      0.00000
     40      35.4448      0.00000
     41      38.2627      0.00000
     42      38.4073      0.00000
     43      38.4645      0.00000
     44      38.8242      0.00000
     45      41.4674      0.00000
     46      42.0385      0.00000
     47      46.4856      0.00000
     48      48.8773      0.00000

 k-point     3 :       0.2500   -0.0000    0.0000
  band No.  band energies     occupation 
      1      -7.0007      2.00000
      2      -6.8139      2.00000
      3      -6.5464      2.00000
      4      -6.5245      2.00000
      5      -6.3530      2.00000
      6      -6.2762      2.00000
      7      -6.2355      2.00000
      8      -6.1282      2.00000
      9      -6.1012      2.00000
     10      -5.9055      2.00000
     11      -4.3449      2.00000
     12       0.4514      2.00000
     13       1.7300      2.00000
     14       8.2687      0.00000
     15      12.5744      0.00000
     16      12.6826      0.00000
     17      13.0194      0.00000
     18      14.9041      0.00000
     19      15.3437      0.00000
     20      17.0380      0.00000
     21      17.3630      0.00000
     22      17.4458      0.00000
     23      19.6753      0.00000
     24      19.8605      0.00000
     25      24.9909      0.00000
     26      25.7609      0.00000
     27      26.5996      0.00000
     28      26.6194      0.00000
     29      27.6930      0.00000
     30      28.1399      0.00000
     31      28.8482      0.00000
     32      29.4415      0.00000
     33      30.7690      0.00000
     34      30.9220      0.00000
     35      31.9070      0.00000
     36      33.7369      0.00000
     37      33.7798      0.00000
     38      33.8866      0.00000
     39      36.2017      0.00000
     40      36.5328      0.00000
     41      40.2097      0.00000
     42      40.2259      0.00000
     43      41.7205      0.00000
     44      43.0496      0.00000
     45      44.5938      0.00000
     46      44.7193      0.00000
     47      45.7311      0.00000
     48      46.1829      0.00000

 k-point     4 :       0.3750   -0.0000    0.0000
  band No.  band energies     occupation 
      1      -7.1710      2.00000
      2      -6.9956      2.00000
      3      -6.8128      2.00000
      4      -6.4507      2.00000
      5      -6.3340      2.00000
      6      -6.3152      2.00000
      7      -6.0471      2.00000
      8      -5.9221      2.00000
      9      -5.7927      2.00000
     10      -5.7745      2.00000
     11      -2.2786      2.00000
     12       2.0649      2.00000
     13       3.7468      0.00000
     14       4.1924      0.00000
     15       8.3871      0.00000
     16       9.8003      0.00000
     17      11.2132      0.00000
     18      14.9105      0.00000
     19      15.3769      0.00000
     20      16.2899      0.00000
     21      16.8535      0.00000
     22      18.2090      0.00000
     23      19.0665      0.00000
     24      20.0459      0.00000
     25      23.1985      0.00000
     26      23.6685      0.00000
     27      27.9131      0.00000
     28      29.1953      0.00000
     29      29.3181      0.00000
     30      29.4462      0.00000
     31      30.8015      0.00000
     32      31.4073      0.00000
     33      33.1247      0.00000
     34      33.9344      0.00000
     35      34.0621      0.00000
     36      34.5112      0.00000
     37      37.1038      0.00000
     38      37.7878      0.00000
     39      39.6739      0.00000
     40      39.8307      0.00000
     41      40.4835      0.00000
     42      40.9892      0.00000
     43      41.1896      0.00000
     44      42.7749      0.00000
     45      42.8864      0.00000
     46      43.2852      0.00000
     47      44.3256      0.00000
     48      44.8868      0.00000

 k-point     5 :       0.5000   -0.0000    0.0000
  band No.  band energies     occupation 
      1      -7.2462      2.00000
      2      -7.0721      2.00000
      3      -6.9203      2.00000
      4      -6.5185      2.00000
      5      -6.3469      2.00000
      6      -6.2519      2.00000
      7      -5.9303      2.00000
      8      -5.9228      2.00000
      9      -5.6500      2.00000
     10      -5.6296      2.00000
     11       0.3839      2.00000
     12       0.7334      2.00000
     13       4.3519      0.00000
     14       5.3228      0.00000
     15       5.5044      0.00000
     16       7.5881      0.00000
     17      10.6856      0.00000
     18      14.7702      0.00000
     19      14.7751      0.00000
     20      15.9006      0.00000
     21      18.8680      0.00000
     22      19.0267      0.00000
     23      19.2448      0.00000
     24      19.5215      0.00000
     25      20.5749      0.00000
     26      22.4783      0.00000
     27      27.8041      0.00000
     28      28.7161      0.00000
     29      32.0061      0.00000
     30      32.0865      0.00000
     31      32.1328      0.00000
     32      33.3779      0.00000
     33      34.3931      0.00000
     34      34.5504      0.00000
     35      35.8795      0.00000
     36      36.8813      0.00000
     37      37.9039      0.00000
     38      38.3321      0.00000
     39      38.5009      0.00000
     40      38.5626      0.00000
     41      39.9936      0.00000
     42      40.2174      0.00000
     43      40.9867      0.00000
     44      40.9906      0.00000
     45      41.5039      0.00000
     46      44.0179      0.00000
     47      44.6102      0.00000
     48      45.7715      0.00000

 k-point     6 :       0.2500    0.1250    0.0000
  band No.  band energies     occupation 
      1      -6.8258      2.00000
      2      -6.7600      2.00000
      3      -6.6129      2.00000
      4      -6.5865      2.00000
      5      -6.3852      2.00000
      6      -6.3272      2.00000
      7      -6.2554      2.00000
      8      -6.1762      2.00000
      9      -6.1289      2.00000
     10      -5.9233      2.00000
     11      -4.7310      2.00000
     12       0.1630      2.00000
     13       1.2789      2.00000
     14      10.5323      0.00000
     15      10.9022      0.00000
     16      13.6782      0.00000
     17      14.8645      0.00000
     18      15.1763      0.00000
     19      15.7654      0.00000
     20      15.7960      0.00000
     21      17.5137      0.00000
     22      18.3305      0.00000
     23      19.5930      0.00000
     24      22.7187      0.00000
     25      23.4155      0.00000
     26      23.8146      0.00000
     27      24.9270      0.00000
     28      27.6808      0.00000
     29      27.8988      0.00000
     30      28.1927      0.00000
     31      28.7641      0.00000
     32      28.8001      0.00000
     33      28.9049      0.00000
     34      31.2786      0.00000
     35      31.6036      0.00000
     36      31.6067      0.00000
     37      33.8825      0.00000
     38      34.4452      0.00000
     39      36.6545      0.00000
     40      36.7781      0.00000
     41      37.9424      0.00000
     42      38.2344      0.00000
     43      41.2838      0.00000
     44      42.8769      0.00000
     45      44.3819      0.00000
     46      44.7944      0.00000
     47      45.2066      0.00000
     48      46.3957      0.00000

 k-point     7 :       0.3750    0.1250    0.0000
  band No.  band energies     occupation 
      1      -6.9552      2.00000
      2      -6.7883      2.00000
      3      -6.6836      2.00000
      4      -6.4880      2.00000
[...]
     40      39.6938      0.00000
     41      40.4435      0.00000
     42      40.4435      0.00000
     43      40.7819      0.00000
     44      40.7819      0.00000
     45      41.1936      0.00000
     46      41.1936      0.00000
     47      43.9137      0.00000
     48      43.9137      0.00000

 k-point    45 :       0.5000    0.0000    0.5000
  band No.  band energies     occupation 
      1      -7.1505      2.00000
      2      -7.1504      2.00000
      3      -6.8807      2.00000
      4      -6.8806      2.00000
      5      -6.1448      2.00000
      6      -6.1447      2.00000
      7      -5.9033      2.00000
      8      -5.9033      2.00000
      9      -5.6389      2.00000
     10      -5.6388      2.00000
     11       1.1746      2.00000
     12       1.1747      2.00000
     13       2.4736      1.51942
     14       2.4737      1.51841
     15      10.2288      0.00000
     16      10.2288      0.00000
     17      12.1836      0.00000
     18      12.1837      0.00000
     19      13.7948      0.00000
     20      13.7948      0.00000
     21      15.1759      0.00000
     22      15.1759      0.00000
     23      22.9538      0.00000
     24      22.9538      0.00000
     25      23.0669      0.00000
     26      23.0670      0.00000
     27      28.1242      0.00000
     28      28.1242      0.00000
     29      31.7159      0.00000
     30      31.7159      0.00000
     31      32.7100      0.00000
     32      32.7100      0.00000
     33      34.0969      0.00000
     34      34.0969      0.00000
     35      36.4949      0.00000
     36      36.4950      0.00000
     37      37.0867      0.00000
     38      37.0867      0.00000
     39      39.0523      0.00000
     40      39.0523      0.00000
     41      40.2206      0.00000
     42      40.2206      0.00000
     43      41.2886      0.00000
     44      41.2886      0.00000
     45      41.6352      0.00000
     46      41.6352      0.00000
     47      44.6002      0.00000
     48      44.6003      0.00000

 k-point    46 :       0.2500    0.1250    0.5000
  band No.  band energies     occupation 
      1      -6.7491      2.00000
      2      -6.7490      2.00000
      3      -6.6816      2.00000
      4      -6.6815      2.00000
      5      -6.3756      2.00000
      6      -6.3756      2.00000
      7      -6.1749      2.00000
      8      -6.1749      2.00000
      9      -6.0160      2.00000
     10      -6.0159      2.00000
     11      -3.3369      2.00000
     12      -3.3368      2.00000
     13       7.0219      0.00000
     14       7.0219      0.00000
     15      11.7348      0.00000
     16      11.7349      0.00000
     17      12.1830      0.00000
     18      12.1831      0.00000
     19      18.8801      0.00000
     20      18.8802      0.00000
     21      20.2143      0.00000
     22      20.2143      0.00000
     23      21.1248      0.00000
     24      21.1248      0.00000
     25      22.8530      0.00000
     26      22.8530      0.00000
     27      25.4849      0.00000
     28      25.4849      0.00000
     29      26.7257      0.00000
     30      26.7257      0.00000
     31      28.6731      0.00000
     32      28.6732      0.00000
     33      29.5152      0.00000
     34      29.5153      0.00000
     35      31.2151      0.00000
     36      31.2152      0.00000
     37      35.8712      0.00000
     38      35.8712      0.00000
     39      38.2242      0.00000
     40      38.2243      0.00000
     41      38.6197      0.00000
     42      38.6198      0.00000
     43      40.2121      0.00000
     44      40.2121      0.00000
     45      44.5516      0.00000
     46      44.5516      0.00000
     47      46.3921      0.00000
     48      46.3922      0.00000

 k-point    47 :       0.3750    0.1250    0.5000
  band No.  band energies     occupation 
      1      -6.8714      2.00000
      2      -6.8713      2.00000
      3      -6.7094      2.00000
      4      -6.7093      2.00000
      5      -6.2757      2.00000
      6      -6.2756      2.00000
      7      -6.1664      2.00000
      8      -6.1664      2.00000
      9      -5.8505      2.00000
     10      -5.8504      2.00000
     11      -1.7663      2.00000
     12      -1.7662      2.00000
     13       7.4515      0.00000
     14       7.4515      0.00000
     15       8.5355      0.00000
     16       8.5355      0.00000
     17      10.5367      0.00000
     18      10.5367      0.00000
     19      17.2929      0.00000
     20      17.2930      0.00000
     21      18.3634      0.00000
     22      18.3634      0.00000
     23      20.4742      0.00000
     24      20.4742      0.00000
     25      24.7579      0.00000
     26      24.7579      0.00000
     27      26.3259      0.00000
     28      26.3259      0.00000
     29      27.8975      0.00000
     30      27.8975      0.00000
     31      31.7057      0.00000
     32      31.7057      0.00000
     33      32.5796      0.00000
     34      32.5796      0.00000
     35      34.7955      0.00000
     36      34.7955      0.00000
     37      35.6920      0.00000
     38      35.6920      0.00000
     39      37.7252      0.00000
     40      37.7253      0.00000
     41      39.8887      0.00000
     42      39.8887      0.00000
     43      41.2565      0.00000
     44      41.2565      0.00000
     45      44.2249      0.00000
     46      44.2249      0.00000
     47      44.7757      0.00000
     48      44.7757      0.00000

 k-point    48 :       0.5000    0.1250    0.5000
  band No.  band energies     occupation 
      1      -6.9877      2.00000
      2      -6.9876      2.00000
      3      -6.8255      2.00000
      4      -6.8255      2.00000
      5      -6.2288      2.00000
      6      -6.2287      2.00000
      7      -5.9640      2.00000
      8      -5.9639      2.00000
      9      -5.7752      2.00000
     10      -5.7751      2.00000
     11       0.5685      2.00000
     12       0.5686      2.00000
     13       3.8693      0.00000
     14       3.8694      0.00000
     15       9.4837      0.00000
     16       9.4837      0.00000
     17      10.3095      0.00000
     18      10.3095      0.00000
     19      14.4774      0.00000
     20      14.4774      0.00000
     21      17.5520      0.00000
     22      17.5520      0.00000
     23      20.3730      0.00000
     24      20.3730      0.00000
     25      26.5742      0.00000
     26      26.5742      0.00000
     27      28.1059      0.00000
     28      28.1059      0.00000
     29      29.2570      0.00000
     30      29.2571      0.00000
     31      32.0085      0.00000
     32      32.0085      0.00000
     33      33.5434      0.00000
     34      33.5434      0.00000
     35      35.6993      0.00000
     36      35.6993      0.00000
     37      37.4442      0.00000
     38      37.4442      0.00000
     39      38.5106      0.00000
     40      38.5106      0.00000
     41      40.9238      0.00000
     42      40.9238      0.00000
     43      41.8953      0.00000
     44      41.8953      0.00000
     45      42.4381      0.00000
     46      42.4382      0.00000
     47      44.1473      0.00000
     48      44.1473      0.00000

 k-point    49 :       0.5000    0.2500    0.5000
  band No.  band energies     occupation 
      1      -6.7884      2.00000
      2      -6.7884      2.00000
      3      -6.6532      2.00000
      4      -6.6532      2.00000
      5      -6.3697      2.00000
      6      -6.3697      2.00000
      7      -6.2208      2.00000
      8      -6.2208      2.00000
      9      -5.8094      2.00000
     10      -5.8094      2.00000
     11       0.2601      2.00000
     12       0.2601      2.00000
     13       6.1284      0.00000
     14       6.1284      0.00000
     15       6.7438      0.00000
     16       6.7438      0.00000
     17      10.1494      0.00000
     18      10.1494      0.00000
     19      15.8873      0.00000
     20      15.8873      0.00000
     21      16.7077      0.00000
     22      16.7077      0.00000
     23      22.8547      0.00000
     24      22.8548      0.00000
     25      24.4316      0.00000
     26      24.4317      0.00000
     27      27.9140      0.00000
     28      27.9140      0.00000
     29      30.5679      0.00000
     30      30.5679      0.00000
     31      31.6211      0.00000
     32      31.6211      0.00000
     33      33.0734      0.00000
     34      33.0734      0.00000
     35      33.9657      0.00000
     36      33.9657      0.00000
     37      36.9178      0.00000
     38      36.9178      0.00000
     39      37.9175      0.00000
     40      37.9175      0.00000
     41      40.5800      0.00000
     42      40.5800      0.00000
     43      41.6169      0.00000
     44      41.6169      0.00000
     45      45.6774      0.00000
     46      45.6774      0.00000
     47      46.7287      0.00000
     48      46.7288      0.00000

 k-point    50 :      -0.3750    0.2500    0.5000
  band No.  band energies     occupation 
      1      -6.7486      2.00000
      2      -6.7485      2.00000
      3      -6.6553      2.00000
      4      -6.6552      2.00000
      5      -6.3999      2.00000
      6      -6.3999      2.00000
      7      -6.1229      2.00000
      8      -6.1228      2.00000
      9      -5.9049      2.00000
     10      -5.9049      2.00000
     11       2.7314      0.00000
     12       2.7315      0.00000
     13       3.3091      0.00000
     14       3.3091      0.00000
     15       6.0811      0.00000
     16       6.0812      0.00000
     17      11.4753      0.00000
     18      11.4753      0.00000
     19      14.1590      0.00000
     20      14.1590      0.00000
     21      16.1806      0.00000
     22      16.1806      0.00000
     23      23.3470      0.00000
     24      23.3471      0.00000
     25      27.8607      0.00000
     26      27.8608      0.00000
     27      28.1913      0.00000
     28      28.1913      0.00000
     29      29.3825      0.00000
     30      29.3825      0.00000
     31      31.1455      0.00000
     32      31.1455      0.00000
     33      31.4665      0.00000
     34      31.4665      0.00000
     35      34.4445      0.00000
     36      34.4445      0.00000
     37      37.1524      0.00000
     38      37.1524      0.00000
     39      38.2224      0.00000
     40      38.2224      0.00000
     41      42.0658      0.00000
     42      42.0658      0.00000
     43      43.5491      0.00000
     44      43.5491      0.00000
     45      45.1226      0.00000
     46      45.1226      0.00000
     47      47.0212      0.00000
     48      47.0213      0.00000


--------------------------------------------------------------------------------------------------------


 soft charge-density along one line, spin component           1
         0         1         2         3         4         5         6         7         8         9
 total charge-density along one line
 
 pseudopotential strength for first ion, spin component:           1
-18.237   0.000   0.000   0.000   0.000 -18.267   0.000   0.000
  0.000 -18.244  -0.000  -0.000  -0.000   0.000 -18.274  -0.000
  0.000  -0.000 -18.248  -0.000   0.000   0.000  -0.000 -18.278
  0.000  -0.000  -0.000 -18.244   0.000   0.000  -0.000  -0.000
  0.000  -0.000   0.000   0.000 -18.237   0.000  -0.000   0.000
-18.267   0.000   0.000   0.000   0.000 -18.277   0.000   0.000
  0.000 -18.274  -0.000  -0.000  -0.000   0.000 -18.284  -0.000
  0.000  -0.000 -18.278  -0.000   0.000   0.000  -0.000 -18.288
  0.000  -0.000  -0.000 -18.274   0.000   0.000  -0.000  -0.000
  0.000  -0.000   0.000   0.000 -18.267   0.000  -0.000   0.000
  0.000  -0.000  -0.001  -0.000   0.000   0.000  -0.000  -0.001
  0.000  -0.000  -0.002  -0.000   0.000   0.000  -0.000  -0.002
  0.000   0.000  -0.000  -0.000  -0.001   0.000   0.000  -0.000
 -0.000  -0.000  -0.000  -0.000  -0.000  -0.000  -0.000  -0.000
 -0.001  -0.000  -0.000  -0.000   0.000  -0.001  -0.000  -0.000
  0.000   0.000  -0.000  -0.000  -0.001   0.000   0.000  -0.000
 -0.000  -0.000  -0.000  -0.000  -0.000  -0.000  -0.000  -0.000
 -0.001  -0.000  -0.000  -0.000   0.000  -0.001  -0.000  -0.000
 total augmentation occupancy for first ion, spin component:           1
  3.247   0.000  -0.000   0.000  -0.000  -1.142  -0.000   0.000  -0.000   0.000  -0.000   0.000   0.000  -0.000  -0.058  -0.000
  0.000   2.807   0.000   0.000  -0.000  -0.000  -0.660  -0.000  -0.000   0.000  -0.000   0.000   0.000   0.000  -0.000  -0.000
 -0.000   0.000   3.439   0.000  -0.000   0.000  -0.000  -1.270  -0.000   0.000   0.415  -0.077   0.000   0.000   0.000  -0.000
  0.000   0.000   0.000   2.807   0.000  -0.000  -0.000   0.000  -0.660  -0.000  -0.000   0.000  -0.000   0.000  -0.000   0.000
 -0.000  -0.000  -0.000   0.000   3.247   0.000   0.000   0.000  -0.000  -1.142  -0.000   0.000  -0.058  -0.000  -0.000   0.004
 -1.142  -0.000   0.000  -0.000   0.000   1.019   0.000  -0.000   0.000  -0.000   0.000  -0.000  -0.000   0.000   0.054   0.000
 -0.000  -0.660  -0.000  -0.000   0.000   0.000   0.502  -0.000   0.000  -0.000   0.000  -0.000  -0.000  -0.000   0.000   0.000
  0.000  -0.000  -1.270   0.000   0.000  -0.000   0.000   1.091  -0.000  -0.000  -0.421   0.100  -0.000   0.000  -0.000   0.000
 -0.000  -0.000   0.000  -0.660  -0.000   0.000   0.000   0.000   0.502   0.000   0.000  -0.000   0.000  -0.000   0.000  -0.000
  0.000   0.000   0.000  -0.000  -1.142  -0.000  -0.000  -0.000   0.000   1.019   0.000  -0.000   0.054   0.000   0.000  -0.006
 -0.000  -0.000   0.415  -0.000  -0.000   0.000   0.000  -0.421   0.000   0.000   2.695  -0.622   0.000  -0.000   0.000   0.000
  0.000   0.000  -0.077   0.000   0.000  -0.000  -0.000   0.100  -0.000  -0.000  -0.622   0.229  -0.000   0.000  -0.000  -0.000
  0.000   0.000   0.000  -0.000  -0.058  -0.000  -0.000  -0.000   0.000   0.054  -0.000   0.000   0.205   0.000   0.000  -0.034
 -0.000   0.000   0.000   0.000  -0.000   0.000  -0.000   0.000  -0.000   0.000  -0.000   0.000   0.000   0.126   0.000  -0.000
 -0.058  -0.000   0.000  -0.000  -0.000   0.054   0.000  -0.000   0.000   0.000   0.000  -0.000   0.000   0.000   0.205  -0.000
 -0.000  -0.000  -0.000   0.000   0.004   0.000   0.000   0.000  -0.000  -0.006   0.000   0.000  -0.034  -0.000  -0.000   0.007
  0.000   0.000   0.000   0.000   0.000  -0.000   0.000  -0.000   0.000  -0.000   0.000   0.000  -0.000  -0.021  -0.000   0.000
  0.004   0.000  -0.000   0.000   0.000  -0.006  -0.000   0.000  -0.000  -0.000   0.000   0.000  -0.000  -0.000  -0.034   0.000


------------------------ aborting loop because EDIFF is reached ----------------------------------------


    CHARGE:  cpu time      0.0046: real time      0.0046
    FORLOC:  cpu time      0.0001: real time      0.0002
    FORNL :  cpu time      0.0090: real time      0.0091
    STRESS:  cpu time      0.0918: real time      0.0919
    FORCOR:  cpu time      0.0018: real time      0.0020
    FORHAR:  cpu time      0.0005: real time      0.0006
    MIXING:  cpu time      0.0005: real time      0.0006
    OFIELD:  cpu time      0.0000: real time      0.0001

  FORCE on cell =-STRESS in cart. coord.  units (eV):
  Direction    XX          YY          ZZ          XY          YZ          ZX
  --------------------------------------------------------------------------------------
  Alpha Z   193.16788   193.16788   193.16788
  Ewald    -641.99257  -641.99257  -812.49698    -0.00000     0.00000     0.00000
  Hartree   243.78424   243.78424   144.04602     0.00000     0.00000     0.00000
  E(xc)    -126.61687  -126.61687  -126.90337    -0.00001    -0.00000    -0.00000
  Local     134.15411   134.15385   403.22187     0.00023     0.00001     0.00003
  n-local  -166.38328  -170.36314  -169.33822    -1.33708     0.31533    -0.60405
  augment    65.44115    65.44137    65.66231    -0.00019     0.00000     0.00000
  Kinetic   308.44911   292.49788   301.91108    -6.27016     0.99461    -2.38240
  Fock        0.00000     0.00000     0.00000     0.00000     0.00000     0.00000
  -------------------------------------------------------------------------------------
  Total       0.03821     0.03821    -0.72941    -0.00000     0.00000    -0.00000
  in kB       1.32790     1.32790   -25.35113    -0.00000     0.00000    -0.00000
  external pressure =       -7.57 kB  Pullay stress =        0.00 kB


 VOLUME and BASIS-vectors are now :
 -----------------------------------------------------------------------------
  energy-cutoff  :      356.64
  volume of cell :       46.10
      direct lattice vectors                 reciprocal lattice vectors
     3.037160000  0.000000000  0.000000000     0.329254962 -0.190095441  0.000000000
     1.518580000  2.630257715  0.000000000     0.000000000  0.380190882  0.000000000
     0.000000000  0.000000000  5.770610000    -0.000000000 -0.000000000  0.173291905

  length of vectors
     3.037160000  3.037160000  5.770610000     0.380190882  0.380190882  0.173291905


 FORCES acting on ions
    electron-ion (+dipol)            ewald-force                    non-local-force                 convergence-correction
 -----------------------------------------------------------------------------------------------
   -.900E-06 -.519E-06 -.343E-07   0.482E-12 0.272E-12 -.393E-13   -.213E-16 0.669E-17 -.179E-17   0.822E-08 0.475E-08 0.435E-12
   -.710E-06 -.410E-06 -.114E-05   -.485E-12 -.273E-12 0.393E-13   0.263E-16 -.225E-17 0.218E-17   -.818E-08 -.473E-08 0.279E-12
 -----------------------------------------------------------------------------------------------
   -.161E-05 -.930E-06 -.117E-05   -.311E-14 -.983E-15 -.118E-16   0.504E-17 0.444E-17 0.387E-18   0.404E-10 0.234E-10 0.714E-12
 
 
 POSITION                                       TOTAL-FORCE (eV/Angst)
 -----------------------------------------------------------------------------------
      0.00000      0.00000      0.00000        -0.000000     -0.000000      0.000000
      1.51858      0.87675      2.88530         0.000000      0.000000     -0.000000
 -----------------------------------------------------------------------------------
    total drift:                               -0.000002     -0.000001     -0.000001


--------------------------------------------------------------------------------------------------------



  FREE ENERGIE OF THE ION-ELECTRON SYSTEM (eV)
  ---------------------------------------------------
  free  energy   TOTEN  =        -1.45042007 eV

  energy  without entropy=       -1.44790779  energy(sigma->0) =       -1.44916393
 


--------------------------------------------------------------------------------------------------------


    POTLOK:  cpu time      0.0038: real time      0.0038


--------------------------------------------------------------------------------------------------------


 writing wavefunctions
     LOOP+:  cpu time     18.1333: real time     18.1505
    4ORBIT:  cpu time      0.0000: real time      0.0000

 total amount of memory used by VASP MPI-rank0    36615. kBytes
=======================================================================

   base      :      30000. kBytes
   nonl-proj :       5554. kBytes
   fftplans  :         79. kBytes
   grid      :        299. kBytes
   one-center:         31. kBytes
   wavefun   :        652. kBytes
 
  
  
 General timing and accounting informations for this job:
 ========================================================
  
                  Total CPU time used (sec):       18.703
                            User time (sec):       18.279
                          System time (sec):        0.424
                         Elapsed time (sec):       18.942
  
                   Maximum memory used (kb):      206480.
                   Average memory used (kb):          N/A
  
                          Minor page faults:        20971
                          Major page faults:            0
                 Voluntary context switches:         3442
