Br                                      
   1.00000000000000     
     8.228600    0.000000    0.000000
     0.000000    4.227310    0.000000
     0.000000    0.000000    9.033230
   Br
     8
Direct
  0.000000  0.375740  0.882840
  0.000000  0.124260  0.382840
  0.000000  0.875740  0.617160
  0.000000  0.624260  0.117160
  0.500000  0.875740  0.882840
  0.500000  0.624260  0.382840
  0.500000  0.375740  0.617160
  0.500000  0.124260  0.117160
 
   72   36   80
 0.13162592135E+02 0.12996207472E+02 0.12511702137E+02 0.11750548989E+02 0.10774279480E+02
 0.96551597558E+01 0.84665592696E+01 0.72750913645E+01 0.61357959416E+01 0.50904653402E+01
 0.41682186360E+01 0.33871186456E+01 0.27561159708E+01 0.22775290720E+01 0.19509291446E+01
 0.17789398601E+01 0.17739578593E+01 0.19634144419E+01 0.23920135275E+01 0.31229608584E+01
 0.42439127008E+01 0.58830574995E+01 0.82346344325E+01 0.11584145360E+02 0.16317567356E+02
 0.22901408649E+02 0.31831714182E+02 0.43562261686E+02 0.58422829115E+02 0.76523479183E+02
 0.97626424784E+02 0.12098178770E+03 0.14517787474E+03 0.16811721889E+03 0.18723432393E+03
 0.19998224531E+03 0.20446578162E+03 0.19998224531E+03 0.18723432393E+03 0.16811721889E+03
 0.14517787474E+03 0.12098178770E+03 0.97626424784E+02 0.76523479183E+02 0.58422829115E+02
 0.43562261686E+02 0.31831714182E+02 0.22901408649E+02 0.16317567356E+02 0.11584145360E+02
 0.82346344325E+01 0.58830574995E+01 0.42439127008E+01 0.31229608584E+01 0.23920135275E+01
 0.19634144419E+01 0.17739578593E+01 0.17789398601E+01 0.19509291446E+01 0.22775290720E+01
 0.27561159708E+01 0.33871186456E+01 0.41682186360E+01 0.50904653402E+01 0.61357959416E+01
 0.72750913645E+01 0.84665592696E+01 0.96551597558E+01 0.10774279480E+02 0.11750548989E+02
 0.12511702137E+02 0.12996207472E+02 0.13959385834E+02 0.13778877303E+02 0.13253622189E+02
 0.12429632200E+02 0.11375051650E+02 0.10169732716E+02 0.88944270815E+01 0.76218323956E+01
 0.64110141251E+01 0.53055224278E+01 0.43342979657E+01 0.35139604286E+01 0.28515430641E+01
 0.23476585867E+01 0.20007149509E+01 0.18125910252E+01 0.17950038167E+01 0.19745501144E+01
 0.23949844589E+01 0.31185882039E+01 0.42321741737E+01 0.58630548075E+01 0.82042048736E+01
 0.11538897335E+02 0.16249466396E+02 0.22797575850E+02 0.31674244126E+02 0.43329262374E+02
 0.58089899897E+02 0.76064351857E+02 0.97012337272E+02 0.12018144045E+03 0.14416198484E+03
 0.16687069486E+03 0.18577330112E+03 0.19836604514E+03 0.20279260634E+03 0.19836604514E+03
 0.18577330112E+03 0.16687069486E+03 0.14416198484E+03 0.12018144045E+03 0.97012337272E+02
 0.76064351857E+02 0.58089899897E+02 0.43329262374E+02 0.31674244126E+02 0.22797575850E+02
 0.16249466396E+02 0.11538897335E+02 0.82042048736E+01 0.58630548075E+01 0.42321741737E+01
 0.31185882039E+01 0.23949844589E+01 0.19745501144E+01 0.17950038167E+01 0.18125910252E+01
 0.20007149509E+01 0.23476585867E+01 0.28515430641E+01 0.35139604286E+01 0.43342979657E+01
 0.53055224278E+01 0.64110141251E+01 0.76218323956E+01 0.88944270815E+01 0.10169732716E+02
 0.11375051650E+02 0.12429632200E+02 0.13253622189E+02 0.13778877303E+02 0.16418465976E+02
 0.16194314200E+02 0.15543108755E+02 0.14524805210E+02 0.13227873175E+02 0.11755483321E+02
 0.10211105316E+02 0.86862668997E+01 0.72527005171E+01 0.59597854831E+01 0.48363460653E+01
 0.38948515551E+01 0.31364624062E+01 0.25562700144E+01 0.21486301198E+01 0.19126691053E+01
 0.18577461535E+01 0.20078366652E+01 0.24038233382E+01 0.31051950675E+01 0.41961916988E+01
 0.58014281132E+01 0.81100175345E+01 0.11398580500E+02 0.16038756776E+02 0.22478014761E+02
 0.31192393308E+02 0.42619264088E+02 0.57077489763E+02 0.74669207119E+02 0.95147849050E+02
 0.11775680334E+03 0.14109678588E+03 0.16312915200E+03 0.18141001008E+03 0.19355663968E+03
 0.19782008841E+03 0.19355663968E+03 0.18141001008E+03 0.16312915200E+03 0.14109678588E+03
 0.11775680334E+03 0.95147849050E+02 0.74669207119E+02 0.57077489763E+02 0.42619264088E+02
 0.31192393308E+02 0.22478014761E+02 0.16038756776E+02 0.11398580500E+02 0.81100175345E+01
 0.58014281132E+01 0.41961916988E+01 0.31051950675E+01 0.24038233382E+01 0.20078366652E+01
 0.18577461535E+01 0.19126691053E+01 0.21486301198E+01 0.25562700144E+01 0.31364624062E+01
 0.38948515551E+01 0.48363460653E+01 0.59597854831E+01 0.72527005171E+01 0.86862668997E+01
 0.10211105316E+02 0.11755483321E+02 0.13227873175E+02 0.14524805210E+02 0.15543108755E+02
 0.16194314200E+02 0.20724805621E+02 0.20423866621E+02 0.19551045003E+02 0.18190772379E+02
 0.16467120225E+02 0.14523957317E+02 0.12504327414E+02 0.10532758127E+02 0.87037151578E+01
 0.70778354678E+01 0.56849317106E+01 0.45310805770E+01 0.36073462495E+01 0.28985044931E+01
 0.23905591550E+01 0.20765232709E+01 0.19608377766E+01 0.20627134496E+01 0.24181628836E+01
 0.30819691245E+01 0.41339481298E+01 0.56939853391E+01 0.79445350868E+01 0.11151233228E+02
 0.15668610206E+02 0.21921538384E+02 0.30361549688E+02 0.41404255169E+02 0.55352254645E+02
 0.72296431407E+02 0.91983062268E+02 0.11365794317E+03 0.13595101034E+03 0.15690341203E+03
 0.17421217662E+03 0.18567192011E+03 0.18968620858E+03 0.18567192011E+03 0.17421217662E+03
 0.15690341203E+03 0.13595101034E+03 0.11365794317E+03 0.91983062268E+02 0.72296431407E+02
 0.55352254645E+02 0.41404255169E+02 0.30361549688E+02 0.21921538384E+02 0.15668610206E+02
 0.11151233228E+02 0.79445350868E+01 0.56939853391E+01 0.41339481298E+01 0.30819691245E+01
 0.24181628836E+01 0.20627134496E+01 0.19608377766E+01 0.20765232709E+01 0.23905591550E+01
 0.28985044931E+01 0.36073462495E+01 0.45310805770E+01 0.56849317106E+01 0.70778354678E+01
 0.87037151578E+01 0.10532758127E+02 0.12504327414E+02 0.14523957317E+02 0.16467120225E+02
 0.18190772379E+02 0.19551045003E+02 0.20423866621E+02 0.27123954955E+02 0.26707610619E+02
 0.25501921992E+02 0.23628559371E+02 0.21265361349E+02 0.18616990159E+02 0.15885004640E+02
 0.13242652797E+02 0.10818558111E+02 0.86913495532E+01 0.68940089593E+01 0.54245273643E+01
 0.42594457144E+01 0.33674183045E+01 0.27202027367E+01 0.22996749873E+01 0.21015959630E+01
 0.21377080668E+01 0.24370177577E+01 0.30476407360E+01 0.40429516374E+01 0.55357544295E+01
 0.76987464327E+01 0.10782359102E+02 0.15118460323E+02 0.21102317134E+02 0.29152442794E+02
 0.39653041995E+02 0.52881105599E+02 0.68910338421E+02 0.87482086382E+02 0.10785959841E+03
 0.12873130202E+03 0.14825722702E+03 0.16431509266E+03 0.17490828024E+03 0.17861153230E+03
 0.17490828024E+03 0.16431509266E+03 0.14825722702E+03 0.12873130202E+03 0.10785959841E+03
 0.87482086382E+02 0.68910338421E+02 0.52881105599E+02 0.39653041995E+02 0.29152442794E+02
 0.21102317134E+02 0.15118460323E+02 0.10782359102E+02 0.76987464327E+01 0.55357544295E+01
 0.40429516374E+01 0.30476407360E+01 0.24370177577E+01 0.21377080668E+01 0.21015959630E+01
 0.22996749873E+01 0.27202027367E+01 0.33674183045E+01 0.42594457144E+01 0.54245273643E+01
 0.68940089593E+01 0.86913495532E+01 0.10818558111E+02 0.13242652797E+02 0.15885004640E+02
 0.18616990159E+02 0.21265361349E+02 0.23628559371E+02 0.25501921992E+02 0.26707610619E+02
 0.35849914720E+02 0.35272937966E+02 0.33604626277E+02 0.31020129609E+02 0.27773599202E+02
 0.24154432349E+02 0.20444064532E+02 0.16881199870E+02 0.13640304124E+02 0.10824889640E+02
 0.84735905151E+01 0.65749275095E+01 0.50865012884E+01 0.39545026217E+01 0.31294623852E+01
 0.25757699616E+01 0.22756313433E+01 0.22299947956E+01 0.24585355304E+01 0.30007086291E+01
 0.39212954204E+01 0.53233529514E+01 0.73664172485E+01 0.10281597807E+02 0.14373416326E+02
 0.20002119591E+02 0.27546441650E+02 0.37350698039E+02 0.49657260495E+02 0.64517048337E+02
 0.81670573963E+02 0.10041778838E+03 0.11953935460E+03 0.13735290688E+03 0.15194671567E+03
 0.16154585060E+03 0.16489621522E+03 0.16154585060E+03 0.15194671567E+03 0.13735290688E+03
 0.11953935460E+03 0.10041778838E+03 0.81670573963E+02 0.64517048337E+02 0.49657260495E+02
 0.37350698039E+02 0.27546441650E+02 0.20002119591E+02 0.14373416326E+02 0.10281597807E+02
 0.73664172485E+01 0.53233529514E+01 0.39212954204E+01 0.30007086291E+01 0.24585355304E+01
 0.22299947956E+01 0.22756313433E+01 0.25757699616E+01 0.31294623852E+01 0.39545026217E+01
 0.50865012884E+01 0.65749275095E+01 0.84735905151E+01 0.10824889640E+02 0.13640304124E+02
 0.16881199870E+02 0.20444064532E+02 0.24154432349E+02 0.27773599202E+02 0.31020129609E+02
 0.33604626277E+02 0.35272937966E+02 0.47051873887E+02 0.46262398336E+02 0.43983403191E+02
 0.40464043132E+02 0.36062797373E+02 0.31182540299E+02 0.26208654748E+02 0.21462312675E+02
 0.17174125566E+02 0.13477616263E+02 0.10418373198E+02 0.79737090556E+01 0.60780097471E+01
 0.46488111290E+01 0.36082877681E+01 0.28965265667E+01 0.24767251628E+01 0.23352791346E+01
 0.24800447315E+01 0.29398418982E+01 0.37687078988E+01 0.50571649544E+01 0.69480487303E+01
 0.96491711415E+01 0.13433766444E+02 0.18623193635E+02 0.25551960992E+02 0.34518753626E+02
 0.45724904685E+02 0.59194721175E+02 0.74672334929E+02 0.91512035659E+02 0.10861646190E+03
 0.12449312643E+03 0.13746252010E+03 0.14597601165E+03 0.14894438531E+03 0.14597601165E+03
 0.13746252010E+03 0.12449312643E+03 0.10861646190E+03 0.91512035659E+02 0.74672334929E+02
 0.59194721175E+02 0.45724904685E+02 0.34518753626E+02 0.25551960992E+02 0.18623193635E+02
 0.13433766444E+02 0.96491711415E+01 0.69480487303E+01 0.50571649544E+01 0.37687078988E+01
 0.29398418982E+01 0.24800447315E+01 0.23352791346E+01 0.24767251628E+01 0.28965265667E+01
 0.36082877681E+01 0.46488111290E+01 0.60780097471E+01 0.79737090556E+01 0.10418373198E+02
 0.13477616263E+02 0.17174125566E+02 0.21462312675E+02 0.26208654748E+02 0.31182540299E+02
 0.36062797373E+02 0.40464043132E+02 0.43983403191E+02 0.46262398336E+02 0.60721791408E+02
 0.59663361825E+02 0.56613167903E+02 0.51918511605E+02 0.46075144916E+02 0.39632805546E+02
 0.33107564985E+02 0.26919861757E+02 0.21364120556E+02 0.16605480365E+02 0.12694975431E+02
 0.95956448964E+01 0.72143830757E+01 0.54345971137E+01 0.41438269628E+01 0.32516492287E+01
 0.26970475390E+01 0.24481251292E+01 0.24984531792E+01 0.28643861548E+01 0.35872899212E+01
 0.47425953495E+01 0.64531492845E+01 0.88998521459E+01 0.12321374286E+02 0.16997645722E+02
 0.23216923516E+02 0.31230177909E+02 0.41195550970E+02 0.53110118343E+02 0.66725813608E+02
 0.81463220491E+02 0.96366028087E+02 0.11015193014E+03 0.12138710828E+03 0.12875200258E+03
 0.13131829620E+03 0.12875200258E+03 0.12138710828E+03 0.11015193014E+03 0.96366028087E+02
 0.81463220491E+02 0.66725813608E+02 0.53110118343E+02 0.41195550970E+02 0.31230177909E+02
 0.23216923516E+02 0.16997645722E+02 0.12321374286E+02 0.88998521459E+01 0.64531492845E+01
 0.47425953495E+01 0.35872899212E+01 0.28643861548E+01 0.24984531792E+01 0.24481251292E+01
 0.26970475390E+01 0.32516492287E+01 0.41438269628E+01 0.54345971137E+01 0.72143830757E+01
 0.95956448964E+01 0.12694975431E+02 0.16605480365E+02 0.21364120556E+02 0.26919861757E+02
 0.33107564985E+02 0.39632805546E+02 0.46075144916E+02 0.51918511605E+02 0.56613167903E+02
 0.59663361825E+02 0.76621920690E+02 0.75238792876E+02 0.71259104458E+02 0.65153015397E+02
 0.57587991486E+02 0.49296146324E+02 0.40952481352E+02 0.33093013381E+02 0.26080860552E+02
 0.20110346092E+02 0.15232786332E+02 0.11391766407E+02 0.84620729519E+01 0.62884947044E+01
 0.47192525542E+01 0.36287466997E+01 0.29276363185E+01 0.25626142627E+01 0.25108724285E+01
 0.27748295513E+01 0.33817315046E+01 0.43900058335E+01 0.59000045910E+01 0.80629162607E+01
 0.11080383718E+02 0.15189479420E+02 0.20632239761E+02 0.27613371445E+02 0.36250364842E+02
 0.46516482566E+02 0.58175890768E+02 0.70721039484E+02 0.83342830418E+02 0.94974442895E+02
 0.10443064112E+03 0.11062104313E+03 0.11277688246E+03 0.11062104313E+03 0.10443064112E+03
 0.94974442895E+02 0.83342830418E+02 0.70721039484E+02 0.58175890768E+02 0.46516482566E+02
 0.36250364842E+02 0.27613371445E+02 0.20632239761E+02 0.15189479420E+02 0.11080383718E+02
 0.80629162607E+01 0.59000045910E+01 0.43900058335E+01 0.33817315046E+01 0.27748295513E+01
 0.25108724285E+01 0.25626142627E+01 0.29276363185E+01 0.36287466997E+01 0.47192525542E+01
 0.62884947044E+01 0.84620729519E+01 0.11391766407E+02 0.15232786332E+02 0.20110346092E+02
 0.26080860552E+02 0.33093013381E+02 0.40952481352E+02 0.49296146324E+02 0.57587991486E+02
 0.65153015397E+02 0.71259104458E+02 0.75238792876E+02 0.94234066973E+02 0.92479454969E+02
 0.87437052310E+02 0.79720265688E+02 0.70198186859E+02 0.59817790315E+02 0.49439728089E+02
 0.39730678213E+02 0.31125302194E+02 0.23841770667E+02 0.17923563215E+02 0.13287630020E+02
 0.97715588529E+01 0.71780150407E+01 0.53131023084E+01 0.40134474354E+01 0.31589934970E+01
 0.26730974312E+01 0.25152579353E+01 0.26730974312E+01 0.31589934970E+01 0.40134474354E+01
 0.53131023084E+01 0.71780150407E+01 0.97715588529E+01 0.13287630020E+02 0.17923563215E+02
 0.23841770667E+02 0.31125302194E+02 0.39730678213E+02 0.49439728089E+02 0.59817790315E+02
 0.70198186859E+02 0.79720265688E+02 0.87437052310E+02 0.92479454969E+02 0.94234066973E+02
 0.92479454969E+02 0.87437052310E+02 0.79720265688E+02 0.70198186859E+02 0.59817790315E+02
 0.49439728089E+02 0.39730678213E+02 0.31125302194E+02 0.23841770667E+02 0.17923563215E+02
 0.13287630020E+02 0.97715588529E+01 0.71780150407E+01 0.53131023084E+01 0.40134474354E+01
 0.31589934970E+01 0.26730974312E+01 0.25152579353E+01 0.26730974312E+01 0.31589934970E+01
 0.40134474354E+01 0.53131023084E+01 0.71780150407E+01 0.97715588529E+01 0.13287630020E+02
 0.17923563215E+02 0.23841770667E+02 0.31125302194E+02 0.39730678213E+02 0.49439728089E+02
 0.59817790315E+02 0.70198186859E+02 0.79720265688E+02 0.87437052310E+02 0.92479454969E+02
 0.11277688246E+03 0.11062104313E+03 0.10443064112E+03 0.94974442895E+02 0.83342830418E+02
 0.70721039484E+02 0.58175890768E+02 0.46516482566E+02 0.36250364842E+02 0.27613371445E+02
 0.20632239761E+02 0.15189479420E+02 0.11080383718E+02 0.80629162607E+01 0.59000045910E+01
 0.43900058335E+01 0.33817315046E+01 0.27748295513E+01 0.25108724285E+01 0.25626142627E+01
 0.29276363185E+01 0.36287466997E+01 0.47192525542E+01 0.62884947044E+01 0.84620729519E+01
 0.11391766407E+02 0.15232786332E+02 0.20110346092E+02 0.26080860552E+02 0.33093013381E+02
 0.40952481352E+02 0.49296146324E+02 0.57587991486E+02 0.65153015397E+02 0.71259104458E+02
 0.75238792876E+02 0.76621920690E+02 0.75238792876E+02 0.71259104458E+02 0.65153015397E+02
 0.57587991486E+02 0.49296146324E+02 0.40952481352E+02 0.33093013381E+02 0.26080860552E+02
 0.20110346092E+02 0.15232786332E+02 0.11391766407E+02 0.84620729519E+01 0.62884947044E+01
 0.47192525542E+01 0.36287466997E+01 0.29276363185E+01 0.25626142627E+01 0.25108724285E+01
 0.27748295513E+01 0.33817315046E+01 0.43900058335E+01 0.59000045910E+01 0.80629162607E+01
 0.11080383718E+02 0.15189479420E+02 0.20632239761E+02 0.27613371445E+02 0.36250364842E+02
 0.46516482566E+02 0.58175890768E+02 0.70721039484E+02 0.83342830418E+02 0.94974442895E+02
 0.10443064112E+03 0.11062104313E+03 0.13131829620E+03 0.12875200258E+03 0.12138710828E+03
 0.11015193014E+03 0.96366028087E+02 0.81463220491E+02 0.66725813608E+02 0.53110118343E+02
 0.41195550970E+02 0.31230177909E+02 0.23216923516E+02 0.16997645722E+02 0.12321374286E+02
 0.88998521459E+01 0.64531492845E+01 0.47425953495E+01 0.35872899212E+01 0.28643861548E+01
 0.24984531792E+01 0.24481251292E+01 0.26970475390E+01 0.32516492287E+01 0.41438269628E+01
 0.54345971137E+01 0.72143830757E+01 0.95956448964E+01 0.12694975431E+02 0.16605480365E+02
 0.21364120556E+02 0.26919861757E+02 0.33107564985E+02 0.39632805546E+02 0.46075144916E+02
 0.51918511605E+02 0.56613167903E+02 0.59663361825E+02 0.60721791408E+02 0.59663361825E+02
 0.56613167903E+02 0.51918511605E+02 0.46075144916E+02 0.39632805546E+02 0.33107564985E+02
 0.26919861757E+02 0.21364120556E+02 0.16605480365E+02 0.12694975431E+02 0.95956448964E+01
 0.72143830757E+01 0.54345971137E+01 0.41438269628E+01 0.32516492287E+01 0.26970475390E+01
 0.24481251292E+01 0.24984531792E+01 0.28643861548E+01 0.35872899212E+01 0.47425953495E+01
 0.64531492845E+01 0.88998521459E+01 0.12321374286E+02 0.16997645722E+02 0.23216923516E+02
 0.31230177909E+02 0.41195550970E+02 0.53110118343E+02 0.66725813608E+02 0.81463220491E+02
 0.96366028087E+02 0.11015193014E+03 0.12138710828E+03 0.12875200258E+03 0.14894438531E+03
 0.14597601165E+03 0.13746252010E+03 0.12449312643E+03 0.10861646190E+03 0.91512035659E+02
 0.74672334929E+02 0.59194721175E+02 0.45724904685E+02 0.34518753626E+02 0.25551960992E+02
 0.18623193635E+02 0.13433766444E+02 0.96491711415E+01 0.69480487303E+01 0.50571649544E+01
 0.37687078988E+01 0.29398418982E+01 0.24800447315E+01 0.23352791346E+01 0.24767251628E+01
 0.28965265667E+01 0.36082877681E+01 0.46488111290E+01 0.60780097471E+01 0.79737090556E+01
 0.10418373198E+02 0.13477616263E+02 0.17174125566E+02 0.21462312675E+02 0.26208654748E+02
 0.31182540299E+02 0.36062797373E+02 0.40464043132E+02 0.43983403191E+02 0.46262398336E+02
 0.47051873887E+02 0.46262398336E+02 0.43983403191E+02 0.40464043132E+02 0.36062797373E+02
 0.31182540299E+02 0.26208654748E+02 0.21462312675E+02 0.17174125566E+02 0.13477616263E+02
 0.10418373198E+02 0.79737090556E+01 0.60780097471E+01 0.46488111290E+01 0.36082877681E+01
 0.28965265667E+01 0.24767251628E+01 0.23352791346E+01 0.24800447315E+01 0.29398418982E+01
 0.37687078988E+01 0.50571649544E+01 0.69480487303E+01 0.96491711415E+01 0.13433766444E+02
 0.18623193635E+02 0.25551960992E+02 0.34518753626E+02 0.45724904685E+02 0.59194721175E+02
 0.74672334929E+02 0.91512035659E+02 0.10861646190E+03 0.12449312643E+03 0.13746252010E+03
 0.14597601165E+03 0.16489621522E+03 0.16154585060E+03 0.15194671567E+03 0.13735290688E+03
 0.11953935460E+03 0.10041778838E+03 0.81670573963E+02 0.64517048337E+02 0.49657260495E+02
 0.37350698039E+02 0.27546441650E+02 0.20002119591E+02 0.14373416326E+02 0.10281597807E+02
 0.73664172485E+01 0.53233529514E+01 0.39212954204E+01 0.30007086291E+01 0.24585355304E+01
 0.22299947956E+01 0.22756313433E+01 0.25757699616E+01 0.31294623852E+01 0.39545026217E+01
 0.50865012884E+01 0.65749275095E+01 0.84735905151E+01 0.10824889640E+02 0.13640304124E+02
 0.16881199870E+02 0.20444064532E+02 0.24154432349E+02 0.27773599202E+02 0.31020129609E+02
 0.33604626277E+02 0.35272937966E+02 0.35849914720E+02 0.35272937966E+02 0.33604626277E+02
 0.31020129609E+02 0.27773599202E+02 0.24154432349E+02 0.20444064532E+02 0.16881199870E+02
 0.13640304124E+02 0.10824889640E+02 0.84735905151E+01 0.65749275095E+01 0.50865012884E+01
 0.39545026217E+01 0.31294623852E+01 0.25757699616E+01 0.22756313433E+01 0.22299947956E+01
 0.24585355304E+01 0.30007086291E+01 0.39212954204E+01 0.53233529514E+01 0.73664172485E+01
 0.10281597807E+02 0.14373416326E+02 0.20002119591E+02 0.27546441650E+02 0.37350698039E+02
 0.49657260495E+02 0.64517048337E+02 0.81670573963E+02 0.10041778838E+03 0.11953935460E+03
 0.13735290688E+03 0.15194671567E+03 0.16154585060E+03 0.17861153230E+03 0.17490828024E+03
 0.16431509266E+03 0.14825722702E+03 0.12873130202E+03 0.10785959841E+03 0.87482086382E+02
 0.68910338421E+02 0.52881105599E+02 0.39653041995E+02 0.29152442794E+02 0.21102317134E+02
 0.15118460323E+02 0.10782359102E+02 0.76987464327E+01 0.55357544295E+01 0.40429516374E+01
 0.30476407360E+01 0.24370177577E+01 0.21377080668E+01 0.21015959630E+01 0.22996749873E+01
 0.27202027367E+01 0.33674183045E+01 0.42594457144E+01 0.54245273643E+01 0.68940089593E+01
 0.86913495532E+01 0.10818558111E+02 0.13242652797E+02 0.15885004640E+02 0.18616990159E+02
 0.21265361349E+02 0.23628559371E+02 0.25501921992E+02 0.26707610619E+02 0.27123954955E+02
 0.26707610619E+02 0.25501921992E+02 0.23628559371E+02 0.21265361349E+02 0.18616990159E+02
 0.15885004640E+02 0.13242652797E+02 0.10818558111E+02 0.86913495532E+01 0.68940089593E+01
 0.54245273643E+01 0.42594457144E+01 0.33674183045E+01 0.27202027367E+01 0.22996749873E+01
 0.21015959630E+01 0.21377080668E+01 0.24370177577E+01 0.30476407360E+01 0.40429516374E+01
 0.55357544295E+01 0.76987464327E+01 0.10782359102E+02 0.15118460323E+02 0.21102317134E+02
 0.29152442794E+02 0.39653041995E+02 0.52881105599E+02 0.68910338421E+02 0.87482086382E+02
 0.10785959841E+03 0.12873130202E+03 0.14825722702E+03 0.16431509266E+03 0.17490828024E+03
 0.18968620858E+03 0.18567192011E+03 0.17421217662E+03 0.15690341203E+03 0.13595101034E+03
 0.11365794317E+03 0.91983062268E+02 0.72296431407E+02 0.55352254644E+02 0.41404255169E+02
 0.30361549688E+02 0.21921538384E+02 0.15668610206E+02 0.11151233228E+02 0.79445350868E+01
 0.56939853391E+01 0.41339481298E+01 0.30819691245E+01 0.24181628836E+01 0.20627134496E+01
 0.19608377766E+01 0.20765232709E+01 0.23905591550E+01 0.28985044931E+01 0.36073462495E+01
 0.45310805770E+01 0.56849317106E+01 0.70778354678E+01 0.87037151578E+01 0.10532758127E+02
 0.12504327414E+02 0.14523957317E+02 0.16467120225E+02 0.18190772379E+02 0.19551045003E+02
 0.20423866621E+02 0.20724805621E+02 0.20423866621E+02 0.19551045003E+02 0.18190772379E+02
 0.16467120225E+02 0.14523957317E+02 0.12504327414E+02 0.10532758127E+02 0.87037151578E+01
 0.70778354678E+01 0.56849317106E+01 0.45310805770E+01 0.36073462495E+01 0.28985044931E+01
 0.23905591550E+01 0.20765232709E+01 0.19608377766E+01 0.20627134496E+01 0.24181628836E+01
 0.30819691245E+01 0.41339481298E+01 0.56939853391E+01 0.79445350868E+01 0.11151233228E+02
 0.15668610206E+02 0.21921538384E+02 0.30361549688E+02 0.41404255169E+02 0.55352254644E+02
 0.72296431407E+02 0.91983062268E+02 0.11365794317E+03 0.13595101034E+03 0.15690341203E+03
 0.17421217662E+03 0.18567192011E+03 0.19782008841E+03 0.19355663968E+03 0.18141001008E+03
 0.16312915200E+03 0.14109678588E+03 0.11775680334E+03 0.95147849050E+02 0.74669207119E+02
 0.57077489763E+02 0.42619264088E+02 0.31192393308E+02 0.22478014761E+02 0.16038756776E+02
 0.11398580500E+02 0.81100175345E+01 0.58014281132E+01 0.41961916988E+01 0.31051950675E+01
 0.24038233382E+01 0.20078366652E+01 0.18577461535E+01 0.19126691053E+01 0.21486301198E+01
 0.25562700144E+01 0.31364624062E+01 0.38948515551E+01 0.48363460653E+01 0.59597854831E+01
 0.72527005171E+01 0.86862668997E+01 0.10211105316E+02 0.11755483321E+02 0.13227873175E+02
 0.14524805210E+02 0.15543108755E+02 0.16194314200E+02 0.16418465976E+02 0.16194314200E+02
 0.15543108755E+02 0.14524805210E+02 0.13227873175E+02 0.11755483321E+02 0.10211105316E+02
 0.86862668997E+01 0.72527005171E+01 0.59597854831E+01 0.48363460653E+01 0.38948515551E+01
 0.31364624062E+01 0.25562700144E+01 0.21486301198E+01 0.19126691053E+01 0.18577461535E+01
 0.20078366652E+01 0.24038233382E+01 0.31051950675E+01 0.41961916988E+01 0.58014281132E+01
 0.81100175345E+01 0.11398580500E+02 0.16038756776E+02 0.22478014761E+02 0.31192393308E+02
 0.42619264088E+02 0.57077489763E+02 0.74669207119E+02 0.95147849050E+02 0.11775680334E+03
 0.14109678588E+03 0.16312915200E+03 0.18141001008E+03 0.19355663968E+03 0.20279260634E+03
 0.19836604514E+03 0.18577330112E+03 0.16687069486E+03 0.14416198484E+03 0.12018144045E+03
 0.97012337272E+02 0.76064351857E+02 0.58089899897E+02 0.43329262374E+02 0.31674244126E+02
 0.22797575850E+02 0.16249466396E+02 0.11538897335E+02 0.82042048736E+01 0.58630548075E+01
 0.42321741737E+01 0.31185882039E+01 0.23949844589E+01 0.19745501144E+01 0.17950038167E+01
 0.18125910252E+01 0.20007149509E+01 0.23476585867E+01 0.28515430641E+01 0.35139604286E+01
 0.43342979657E+01 0.53055224278E+01 0.64110141251E+01 0.76218323956E+01 0.88944270815E+01
 0.10169732716E+02 0.11375051650E+02 0.12429632200E+02 0.13253622189E+02 0.13778877303E+02
 0.13959385834E+02 0.13778877303E+02 0.13253622189E+02 0.12429632200E+02 0.11375051650E+02
 0.10169732716E+02 0.88944270815E+01 0.76218323956E+01 0.64110141251E+01 0.53055224278E+01
 0.43342979657E+01 0.35139604286E+01 0.28515430641E+01 0.23476585867E+01 0.20007149509E+01
 0.18125910252E+01 0.17950038167E+01 0.19745501144E+01 0.23949844589E+01 0.31185882039E+01
 0.42321741737E+01 0.58630548075E+01 0.82042048736E+01 0.11538897335E+02 0.16249466396E+02
 0.22797575850E+02 0.31674244126E+02 0.43329262374E+02 0.58089899897E+02 0.76064351857E+02
 0.97012337272E+02 0.12018144045E+03 0.14416198484E+03 0.16687069486E+03 0.18577330112E+03
 0.19836604514E+03 0.20446578162E+03 0.19998224531E+03 0.18723432393E+03 0.16811721889E+03
 0.14517787474E+03 0.12098178770E+03 0.97626424784E+02 0.76523479183E+02 0.58422829115E+02
 0.43562261686E+02 0.31831714182E+02 0.22901408649E+02 0.16317567356E+02 0.11584145360E+02
 0.82346344325E+01 0.58830574995E+01 0.42439127008E+01 0.31229608584E+01 0.23920135275E+01
 0.19634144419E+01 0.17739578593E+01 0.17789398601E+01 0.19509291446E+01 0.22775290720E+01
 0.27561159708E+01 0.33871186456E+01 0.41682186360E+01 0.50904653402E+01 0.61357959416E+01
 0.72750913645E+01 0.84665592696E+01 0.96551597558E+01 0.10774279480E+02 0.11750548989E+02
 0.12511702137E+02 0.12996207472E+02 0.13162592135E+02 0.12996207472E+02 0.12511702137E+02
 0.11750548989E+02 0.10774279480E+02 0.96551597558E+01 0.84665592696E+01 0.72750913645E+01
 0.61357959416E+01 0.50904653402E+01 0.41682186360E+01 0.33871186456E+01 0.27561159708E+01
 0.22775290720E+01 0.19509291446E+01 0.17789398601E+01 0.17739578593E+01 0.19634144419E+01
 0.23920135275E+01 0.31229608584E+01 0.42439127008E+01 0.58830574995E+01 0.82346344325E+01
 0.11584145360E+02 0.16317567356E+02 0.22901408649E+02 0.31831714182E+02 0.43562261686E+02
 0.58422829115E+02 0.76523479183E+02 0.97626424784E+02 0.12098178770E+03 0.14517787474E+03
 0.16811721889E+03 0.18723432393E+03 0.19998224531E+03 0.20279260634E+03 0.19836604514E+03
 0.18577330112E+03 0.16687069486E+03 0.14416198484E+03 0.12018144045E+03 0.97012337272E+02
 0.76064351857E+02 0.58089899897E+02 0.43329262374E+02 0.31674244126E+02 0.22797575850E+02
 0.16249466396E+02 0.11538897335E+02 0.82042048736E+01 0.58630548075E+01 0.42321741737E+01
 0.31185882039E+01 0.23949844589E+01 0.19745501144E+01 0.17950038167E+01 0.18125910252E+01
 0.20007149509E+01 0.23476585867E+01 0.28515430641E+01 0.35139604286E+01 0.43342979657E+01
 0.53055224278E+01 0.64110141251E+01 0.76218323956E+01 0.88944270815E+01 0.10169732716E+02
 0.11375051650E+02 0.12429632200E+02 0.13253622189E+02 0.13778877303E+02 0.13959385834E+02
 0.13778877303E+02 0.13253622189E+02 0.12429632200E+02 0.11375051650E+02 0.10169732716E+02
 0.88944270815E+01 0.76218323956E+01 0.64110141251E+01 0.53055224278E+01 0.43342979657E+01
 0.35139604286E+01 0.28515430641E+01 0.23476585867E+01 0.20007149509E+01 0.18125910252E+01
 0.17950038167E+01 0.19745501144E+01 0.23949844589E+01 0.31185882039E+01 0.42321741737E+01
 0.58630548075E+01 0.82042048736E+01 0.11538897335E+02 0.16249466396E+02 0.22797575850E+02
 0.31674244126E+02 0.43329262374E+02 0.58089899897E+02 0.76064351857E+02 0.97012337272E+02
 0.12018144045E+03 0.14416198484E+03 0.16687069486E+03 0.18577330112E+03 0.19836604514E+03
 0.19782008841E+03 0.19355663968E+03 0.18141001008E+03 0.16312915200E+03 0.14109678588E+03
 0.11775680334E+03 0.95147849050E+02 0.74669207119E+02 0.57077489763E+02 0.42619264088E+02
 0.31192393308E+02 0.22478014761E+02 0.16038756776E+02 0.11398580500E+02 0.81100175345E+01
 0.58014281132E+01 0.41961916988E+01 0.31051950675E+01 0.24038233382E+01 0.20078366652E+01
 0.18577461535E+01 0.19126691053E+01 0.21486301198E+01 0.25562700144E+01 0.31364624062E+01
 0.38948515551E+01 0.48363460653E+01 0.59597854831E+01 0.72527005171E+01 0.86862668997E+01
 0.10211105316E+02 0.11755483321E+02 0.13227873175E+02 0.14524805210E+02 0.15543108755E+02
 0.16194314200E+02 0.16418465976E+02 0.16194314200E+02 0.15543108755E+02 0.14524805210E+02
 0.13227873175E+02 0.11755483321E+02 0.10211105316E+02 0.86862668997E+01 0.72527005171E+01
 0.59597854831E+01 0.48363460653E+01 0.38948515551E+01 0.31364624062E+01 0.25562700144E+01
 0.21486301198E+01 0.19126691053E+01 0.18577461535E+01 0.20078366652E+01 0.24038233382E+01
 0.31051950675E+01 0.41961916988E+01 0.58014281132E+01 0.81100175345E+01 0.11398580500E+02
 0.16038756776E+02 0.22478014761E+02 0.31192393308E+02 0.42619264088E+02 0.57077489763E+02
 0.74669207119E+02 0.95147849050E+02 0.11775680334E+03 0.14109678588E+03 0.16312915200E+03
 0.18141001008E+03 0.19355663968E+03 0.18968620858E+03 0.18567192011E+03 0.17421217662E+03
 0.15690341203E+03 0.13595101034E+03 0.11365794317E+03 0.91983062268E+02 0.72296431407E+02
 0.55352254645E+02 0.41404255169E+02 0.30361549688E+02 0.21921538384E+02 0.15668610206E+02
 0.11151233228E+02 0.79445350868E+01 0.56939853391E+01 0.41339481298E+01 0.30819691245E+01
 0.24181628836E+01 0.20627134496E+01 0.19608377766E+01 0.20765232709E+01 0.23905591550E+01
 0.28985044931E+01 0.36073462495E+01 0.45310805770E+01 0.56849317106E+01 0.70778354678E+01
 0.87037151578E+01 0.10532758127E+02 0.12504327414E+02 0.14523957317E+02 0.16467120225E+02
 0.18190772379E+02 0.19551045003E+02 0.20423866621E+02 0.20724805621E+02 0.20423866621E+02
 0.19551045003E+02 0.18190772379E+02 0.16467120225E+02 0.14523957317E+02 0.12504327414E+02
 0.10532758127E+02 0.87037151578E+01 0.70778354678E+01 0.56849317106E+01 0.45310805770E+01
 0.36073462495E+01 0.28985044931E+01 0.23905591550E+01 0.20765232709E+01 0.19608377766E+01
 0.20627134496E+01 0.24181628836E+01 0.30819691245E+01 0.41339481298E+01 0.56939853391E+01
 0.79445350868E+01 0.11151233228E+02 0.15668610206E+02 0.21921538384E+02 0.30361549688E+02
 0.41404255169E+02 0.55352254645E+02 0.72296431407E+02 0.91983062268E+02 0.11365794317E+03
 0.13595101034E+03 0.15690341203E+03 0.17421217662E+03 0.18567192011E+03 0.17861153230E+03
 0.17490828024E+03 0.16431509266E+03 0.14825722702E+03 0.12873130202E+03 0.10785959841E+03
 0.87482086382E+02 0.68910338421E+02 0.52881105599E+02 0.39653041995E+02 0.29152442794E+02
 0.21102317134E+02 0.15118460323E+02 0.10782359102E+02 0.76987464327E+01 0.55357544295E+01
 0.40429516374E+01 0.30476407360E+01 0.24370177577E+01 0.21377080668E+01 0.21015959630E+01
 0.22996749873E+01 0.27202027367E+01 0.33674183045E+01 0.42594457144E+01 0.54245273643E+01
 0.68940089593E+01 0.86913495532E+01 0.10818558111E+02 0.13242652797E+02 0.15885004640E+02
 0.18616990159E+02 0.21265361349E+02 0.23628559371E+02 0.25501921992E+02 0.26707610619E+02