   8   8   0   0
  0.3927744E+02  0.8228600E-09  0.4227310E-09  0.9033230E-09  0.5000000E-15
  1.000000000000000E-004
  CAR 
 Br                                      
     11.16185016    -18.18582094  301     -0.86458089      1.00000000
    -18.186  0.0000E+00  0.0000E+00
    -18.088  0.0000E+00  0.0000E+00
    -17.990  0.0000E+00  0.0000E+00
    -17.892  0.0000E+00  0.0000E+00
    -17.795  0.0000E+00  0.0000E+00
    -17.697  0.0000E+00  0.0000E+00
    -17.599  0.0000E+00  0.0000E+00
    -17.501  0.0000E+00  0.0000E+00
    -17.403  0.0000E+00  0.0000E+00
    -17.305  0.0000E+00  0.0000E+00
    -17.208  0.0000E+00  0.0000E+00
    -17.110  0.1838E-13  0.1798E-14
    -17.012  0.5545E-06  0.5424E-07
    -16.914  0.1725E-01  0.1687E-02
    -16.816  0.2165E+01  0.2135E+00
    -16.718  0.9723E+01  0.1165E+01
    -16.621  0.1351E+02  0.2486E+01
    -16.523  0.2115E+02  0.4555E+01
    -16.425  0.2638E+02  0.7136E+01
    -16.327  0.8696E+01  0.7986E+01
    -16.229  0.1400E+00  0.8000E+01
    -16.131  0.9274E-05  0.8000E+01
    -16.034  0.7237E-12  0.8000E+01
    -15.936  0.0000E+00  0.8000E+01
    -15.838  0.0000E+00  0.8000E+01
    -15.740  0.0000E+00  0.8000E+01
    -15.642  0.0000E+00  0.8000E+01
    -15.545  0.0000E+00  0.8000E+01
    -15.447  0.0000E+00  0.8000E+01
    -15.349  0.0000E+00  0.8000E+01
    -15.251  0.0000E+00  0.8000E+01
    -15.153  0.0000E+00  0.8000E+01
    -15.055  0.0000E+00  0.8000E+01
    -14.958  0.0000E+00  0.8000E+01
    -14.860  0.2660E-16  0.8000E+01
    -14.762  0.5982E-08  0.8000E+01
    -14.664  0.1049E-02  0.8000E+01
    -14.566  0.4903E+00  0.8048E+01
    -14.468  0.4575E+01  0.8496E+01
    -14.371  0.7551E+01  0.9234E+01
    -14.273  0.8937E+01  0.1011E+02
    -14.175  0.1243E+02  0.1132E+02
    -14.077  0.1679E+02  0.1297E+02
    -13.979  0.1012E+02  0.1396E+02
    -13.881  0.7897E+01  0.1473E+02
    -13.784  0.7211E+01  0.1544E+02
    -13.686  0.5015E+01  0.1593E+02
    -13.588  0.7502E+00  0.1600E+02
    -13.490  0.1773E-02  0.1600E+02
    -13.392  0.8672E-08  0.1600E+02
    -13.295  0.2217E-16  0.1600E+02
    -13.197  0.0000E+00  0.1600E+02
    -13.099  0.0000E+00  0.1600E+02
    -13.001  0.0000E+00  0.1600E+02
    -12.903  0.0000E+00  0.1600E+02
    -12.805  0.0000E+00  0.1600E+02
    -12.708  0.0000E+00  0.1600E+02
    -12.610  0.0000E+00  0.1600E+02
    -12.512  0.0000E+00  0.1600E+02
    -12.414  0.0000E+00  0.1600E+02
    -12.316  0.0000E+00  0.1600E+02
    -12.218  0.0000E+00  0.1600E+02
    -12.121  0.0000E+00  0.1600E+02
    -12.023  0.0000E+00  0.1600E+02
    -11.925  0.0000E+00  0.1600E+02
    -11.827  0.0000E+00  0.1600E+02
    -11.729  0.0000E+00  0.1600E+02
    -11.632  0.0000E+00  0.1600E+02
    -11.534  0.0000E+00  0.1600E+02
    -11.436  0.0000E+00  0.1600E+02
    -11.338  0.0000E+00  0.1600E+02
    -11.240  0.0000E+00  0.1600E+02
    -11.142  0.0000E+00  0.1600E+02
    -11.045  0.0000E+00  0.1600E+02
    -10.947  0.0000E+00  0.1600E+02
    -10.849  0.0000E+00  0.1600E+02
    -10.751  0.0000E+00  0.1600E+02
    -10.653  0.0000E+00  0.1600E+02
    -10.555  0.0000E+00  0.1600E+02
    -10.458  0.0000E+00  0.1600E+02
    -10.360  0.0000E+00  0.1600E+02
    -10.262  0.0000E+00  0.1600E+02
    -10.164  0.0000E+00  0.1600E+02
    -10.066  0.0000E+00  0.1600E+02
     -9.968  0.0000E+00  0.1600E+02
     -9.871  0.0000E+00  0.1600E+02
     -9.773  0.0000E+00  0.1600E+02
     -9.675  0.0000E+00  0.1600E+02
     -9.577  0.0000E+00  0.1600E+02
     -9.479  0.0000E+00  0.1600E+02
     -9.382  0.0000E+00  0.1600E+02
     -9.284  0.0000E+00  0.1600E+02
     -9.186  0.0000E+00  0.1600E+02
     -9.088  0.0000E+00  0.1600E+02
     -8.990  0.0000E+00  0.1600E+02
     -8.892  0.0000E+00  0.1600E+02
     -8.795  0.0000E+00  0.1600E+02
     -8.697  0.0000E+00  0.1600E+02
     -8.599  0.0000E+00  0.1600E+02
     -8.501  0.0000E+00  0.1600E+02
     -8.403  0.0000E+00  0.1600E+02
     -8.305  0.0000E+00  0.1600E+02
     -8.208  0.0000E+00  0.1600E+02
     -8.110  0.0000E+00  0.1600E+02
     -8.012  0.0000E+00  0.1600E+02
     -7.914  0.0000E+00  0.1600E+02
     -7.816  0.0000E+00  0.1600E+02
     -7.718  0.0000E+00  0.1600E+02
     -7.621  0.0000E+00  0.1600E+02
     -7.523  0.0000E+00  0.1600E+02
     -7.425  0.0000E+00  0.1600E+02
     -7.327  0.0000E+00  0.1600E+02
     -7.229  0.0000E+00  0.1600E+02
     -7.132  0.0000E+00  0.1600E+02
     -7.034  0.0000E+00  0.1600E+02
     -6.936  0.0000E+00  0.1600E+02
     -6.838  0.0000E+00  0.1600E+02
     -6.740  0.0000E+00  0.1600E+02
     -6.642  0.0000E+00  0.1600E+02
     -6.545  0.0000E+00  0.1600E+02
     -6.447  0.8350E-13  0.1600E+02
     -6.349  0.1466E-05  0.1600E+02
     -6.251  0.2616E-01  0.1600E+02
     -6.153  0.2391E+01  0.1624E+02
     -6.055  0.9617E+01  0.1718E+02
     -5.958  0.1043E+02  0.1820E+02
     -5.860  0.9435E+01  0.1912E+02
     -5.762  0.1015E+02  0.2011E+02
     -5.664  0.9911E+01  0.2108E+02
     -5.566  0.6529E+01  0.2172E+02
     -5.468  0.3382E+01  0.2205E+02
     -5.371  0.3219E+01  0.2237E+02
     -5.273  0.5858E+01  0.2294E+02
     -5.175  0.1735E+01  0.2311E+02
     -5.077  0.2190E+01  0.2333E+02
     -4.979  0.2477E+01  0.2357E+02
     -4.882  0.2524E+01  0.2381E+02
     -4.784  0.1460E+01  0.2396E+02
     -4.686  0.4309E+00  0.2400E+02
     -4.588  0.6482E-02  0.2400E+02
     -4.490  0.8922E-04  0.2400E+02
     -4.392  0.1643E+00  0.2402E+02
     -4.295  0.1906E+01  0.2420E+02
     -4.197  0.5977E+01  0.2479E+02
     -4.099  0.6318E+01  0.2541E+02
     -4.001  0.6584E+01  0.2605E+02
     -3.903  0.1005E+02  0.2703E+02
     -3.805  0.1179E+02  0.2819E+02
     -3.708  0.1247E+02  0.2941E+02
     -3.610  0.1113E+02  0.3050E+02
     -3.512  0.1412E+02  0.3188E+02
     -3.414  0.1718E+02  0.3356E+02
     -3.316  0.2388E+02  0.3589E+02
     -3.219  0.1822E+02  0.3768E+02
     -3.121  0.1046E+02  0.3870E+02
     -3.023  0.8011E+01  0.3948E+02
     -2.925  0.3712E+01  0.3985E+02
     -2.827  0.1524E+01  0.3999E+02
     -2.729  0.5549E-01  0.4000E+02
     -2.632  0.1530E-04  0.4000E+02
     -2.534  0.1273E-01  0.4000E+02
     -2.436  0.3576E+00  0.4004E+02
     -2.338  0.3487E+01  0.4038E+02
     -2.240  0.1115E+02  0.4147E+02
     -2.142  0.1597E+02  0.4303E+02
     -2.045  0.9060E+01  0.4392E+02
     -1.947  0.8803E+01  0.4478E+02
     -1.849  0.1144E+02  0.4590E+02
     -1.751  0.1545E+02  0.4741E+02
     -1.653  0.1838E+02  0.4921E+02
     -1.555  0.2267E+02  0.5142E+02
     -1.458  0.2192E+02  0.5357E+02
     -1.360  0.1524E+02  0.5506E+02
     -1.262  0.6117E+01  0.5566E+02
     -1.164  0.3021E+01  0.5595E+02
     -1.066  0.4656E+00  0.5600E+02
     -0.969  0.3885E-02  0.5600E+02
     -0.871  0.1023E-06  0.5600E+02
     -0.773  0.2407E-14  0.5600E+02
     -0.675  0.0000E+00  0.5600E+02
     -0.577  0.0000E+00  0.5600E+02
     -0.479  0.0000E+00  0.5600E+02
     -0.382  0.0000E+00  0.5600E+02
     -0.284  0.0000E+00  0.5600E+02
     -0.186  0.1649E-11  0.5600E+02
     -0.088  0.7367E-05  0.5600E+02
      0.010  0.3493E-01  0.5600E+02
      0.108  0.1156E+01  0.5612E+02
      0.205  0.3427E+01  0.5645E+02
      0.303  0.2888E+01  0.5673E+02
      0.401  0.2429E+01  0.5697E+02
      0.499  0.4118E+01  0.5737E+02
      0.597  0.6767E+01  0.5804E+02
      0.695  0.8802E+01  0.5890E+02
      0.792  0.9255E+01  0.5980E+02
      0.890  0.7369E+01  0.6052E+02
      0.988  0.8729E+01  0.6138E+02
      1.086  0.7823E+01  0.6214E+02
      1.184  0.1285E+02  0.6340E+02
      1.281  0.5961E+01  0.6398E+02
      1.379  0.1716E+00  0.6400E+02
      1.477  0.1356E-03  0.6400E+02
      1.575  0.1886E-09  0.6400E+02
      1.673  0.0000E+00  0.6400E+02
      1.771  0.0000E+00  0.6400E+02
      1.868  0.0000E+00  0.6400E+02
      1.966  0.0000E+00  0.6400E+02
      2.064  0.0000E+00  0.6400E+02
      2.162  0.0000E+00  0.6400E+02
      2.260  0.0000E+00  0.6400E+02
      2.358  0.0000E+00  0.6400E+02
      2.455  0.0000E+00  0.6400E+02
      2.553  0.0000E+00  0.6400E+02
      2.651  0.0000E+00  0.6400E+02
      2.749  0.0000E+00  0.6400E+02
      2.847  0.0000E+00  0.6400E+02
      2.945  0.0000E+00  0.6400E+02
      3.042  0.0000E+00  0.6400E+02
      3.140  0.0000E+00  0.6400E+02
      3.238  0.0000E+00  0.6400E+02
      3.336  0.0000E+00  0.6400E+02
      3.434  0.0000E+00  0.6400E+02
      3.531  0.0000E+00  0.6400E+02
      3.629  0.0000E+00  0.6400E+02
      3.727  0.0000E+00  0.6400E+02
      3.825  0.0000E+00  0.6400E+02
      3.923  0.2217E-17  0.6400E+02
      4.021  0.5405E-09  0.6400E+02
      4.118  0.1055E-03  0.6400E+02
      4.216  0.2569E-01  0.6400E+02
      4.314  0.1382E+00  0.6402E+02
      4.412  0.2706E+00  0.6404E+02
      4.510  0.4433E+00  0.6409E+02
      4.608  0.7402E+00  0.6416E+02
      4.705  0.6842E+00  0.6423E+02
      4.803  0.7340E+00  0.6430E+02
      4.901  0.8398E+00  0.6438E+02
      4.999  0.9789E+00  0.6447E+02
      5.097  0.1644E+01  0.6464E+02
      5.194  0.1732E+01  0.6481E+02
      5.292  0.2090E+01  0.6501E+02
      5.390  0.2148E+01  0.6522E+02
      5.488  0.1468E+01  0.6536E+02
      5.586  0.2042E+01  0.6556E+02
      5.684  0.1897E+01  0.6575E+02
      5.781  0.3809E+01  0.6612E+02
      5.879  0.4905E+01  0.6660E+02
      5.977  0.5180E+01  0.6711E+02
      6.075  0.7044E+01  0.6780E+02
      6.173  0.5691E+01  0.6835E+02
      6.271  0.5030E+01  0.6885E+02
      6.368  0.5246E+01  0.6936E+02
      6.466  0.4794E+01  0.6983E+02
      6.564  0.5982E+01  0.7041E+02
      6.662  0.5908E+01  0.7099E+02
      6.760  0.6367E+01  0.7161E+02
      6.858  0.8847E+01  0.7248E+02
      6.955  0.1038E+02  0.7349E+02
      7.053  0.9038E+01  0.7438E+02
      7.151  0.8219E+01  0.7518E+02
      7.249  0.8165E+01  0.7598E+02
      7.347  0.9445E+01  0.7691E+02
      7.444  0.8677E+01  0.7775E+02
      7.542  0.8043E+01  0.7854E+02
      7.640  0.8514E+01  0.7937E+02
      7.738  0.9488E+01  0.8030E+02
      7.836  0.1252E+02  0.8153E+02
      7.934  0.1307E+02  0.8281E+02
      8.031  0.9709E+01  0.8376E+02
      8.129  0.7670E+01  0.8451E+02
      8.227  0.7673E+01  0.8526E+02
      8.325  0.9860E+01  0.8622E+02
      8.423  0.7804E+01  0.8698E+02
      8.521  0.9463E+01  0.8791E+02
      8.618  0.9983E+01  0.8889E+02
      8.716  0.8539E+01  0.8972E+02
      8.814  0.8705E+01  0.9057E+02
      8.912  0.7270E+01  0.9128E+02
      9.010  0.6406E+01  0.9191E+02
      9.108  0.6763E+01  0.9257E+02
      9.205  0.7533E+01  0.9331E+02
      9.303  0.6385E+01  0.9393E+02
      9.401  0.6582E+01  0.9458E+02
      9.499  0.5599E+01  0.9513E+02
      9.597  0.4932E+01  0.9561E+02
      9.694  0.2933E+01  0.9590E+02
      9.792  0.6111E+00  0.9596E+02
      9.890  0.4508E+00  0.9600E+02
      9.988  0.8784E-02  0.9600E+02
     10.086  0.4993E-06  0.9600E+02
     10.184  0.2405E-13  0.9600E+02
     10.281  0.0000E+00  0.9600E+02
     10.379  0.0000E+00  0.9600E+02
     10.477  0.0000E+00  0.9600E+02
     10.575  0.0000E+00  0.9600E+02
     10.673  0.0000E+00  0.9600E+02
     10.771  0.0000E+00  0.9600E+02
     10.868  0.0000E+00  0.9600E+02
     10.966  0.0000E+00  0.9600E+02
     11.064  0.0000E+00  0.9600E+02
     11.162  0.0000E+00  0.9600E+02
