 DBCSR| CPU Multiplication driver                                           BLAS (U)
 DBCSR| Multrec recursion limit                                              512 (U)
 DBCSR| Multiplication stack size                                           1000 (D)
 DBCSR| Maximum elements for images                                    UNLIMITED (U)
 DBCSR| Multiplicative factor virtual images                                   1 (U)
 DBCSR| Use multiplication densification                                       T (D)
 DBCSR| Multiplication size stacks                                             3 (U)
 DBCSR| Use memory pool for CPU allocation                                     F (U)
 DBCSR| Number of 3D layers                                               SINGLE (U)
 DBCSR| Use MPI memory allocation                                              F (U)
 DBCSR| Use RMA algorithm                                                      F (U)
 DBCSR| Use Communication thread                                               T (U)
 DBCSR| Communication thread load                                             45 (D)
 DBCSR| MPI: My process id                                                     0
 DBCSR| MPI: Number of processes                                               8
 DBCSR| OMP: Current number of threads                                        12
 DBCSR| OMP: Max number of threads                                            12
 DBCSR| Split modifier for TAS multiplication algorithm                  1.0E+00 (U)


  **** **** ******  **  PROGRAM STARTED AT               2025-08-20 15:59:40.272
 ***** ** ***  *** **   PROGRAM STARTED ON                          i01r10c05s02
 **    ****   ******    PROGRAM STARTED BY                               di38fab
 ***** **    ** ** **   PROGRAM PROCESS ID                               1482820
  **** **  *******  **  PROGRAM STARTED IN /hppfs/scratch/04/di38fab/09_GTH/Delt
                                           a_Set/P/SZV-MOLOPT-GTH/8x8x8

 CP2K| version string:                 CP2K version 2025.1 (Development Version)
 CP2K| source code revision number:                                  git:3130539
 CP2K| cp2kflags: omp libint fftw3 libxc parallel scalapack max_contr=4         
 CP2K| is freely available from                            https://www.cp2k.org/
 CP2K| Program compiled at                         Tue Jun  3 16:14:32 CEST 2025
 CP2K| Program compiled on                                               login01
 CP2K| Program compiled for                                        Supermuc-foss
 CP2K| Data directory path                  /hppfs/work/pn36zo/di38fab/cp2k/data
 CP2K| Input file name                                                    GW.inp

 GLOBAL| Force Environment number                                              1
 GLOBAL| Basis set file name            /hppfs/scratch/04/di38fab/09_GTH/BASIS_A
 GLOBAL| Potential file name            /hppfs/work/pn36zo/di38fab/cp2k/data/GTH
 GLOBAL| MM Potential file name                                     MM_POTENTIAL
 GLOBAL| Coordinate file name                                              P.cif
 GLOBAL| Method name                                                        CP2K
 GLOBAL| Project name                                                       WSe2
 GLOBAL| Run type                                                         ENERGY
 GLOBAL| FFT library                                                       FFTW3
 GLOBAL| Diagonalization library                                       ScaLAPACK
 GLOBAL| Cholesky decomposition library                                ScaLAPACK
 GLOBAL| DGEMM library                                                      BLAS
 GLOBAL| Orthonormality check for eigenvectors                          DISABLED
 GLOBAL| Matrix multiplication library                                 ScaLAPACK
 GLOBAL| All-to-all communication in single precision                          F
 GLOBAL| FFTs using library dependent lengths                                  F
 GLOBAL| Grid backend                                                       AUTO
 GLOBAL| Global print level                                               MEDIUM
 GLOBAL| MPI I/O enabled                                                       T
 GLOBAL| Total number of message passing processes                             8
 GLOBAL| Number of threads for this process                                   12
 GLOBAL| This output is from process                                           0
 GLOBAL| OpenMP stack size per thread (OMP_STACKSIZE)                        64M
 GLOBAL| CPU model name             Intel(R) Xeon(R) Platinum 8174 CPU @ 3.10GHz

 MEMORY| system memory details [Kb]
 MEMORY|                        rank 0           min           max       average
 MEMORY| MemTotal             98436664      98436660      98436664      98436662
 MEMORY| MemFree              84692468      84642508      84692468      84667488
 MEMORY| Buffers                     0             0             0             0
 MEMORY| Cached                2447256       2362408       2447256       2404832
 MEMORY| Slab                  1301768       1301768       1310380       1306074
 MEMORY| SReclaimable           281216        281216        287704        284460
 MEMORY| MemLikelyFree        87420940      87292620      87420940      87356780


 *** Fundamental physical constants (SI units) ***

 *** Literature: B. J. Mohr and B. N. Taylor,
 ***             CODATA recommended values of the fundamental physical
 ***             constants: 2006, Web Version 5.1
 ***             http://physics.nist.gov/constants

 Speed of light in vacuum [m/s]                             2.99792458000000E+08
 Magnetic constant or permeability of vacuum [N/A**2]       1.25663706143592E-06
 Electric constant or permittivity of vacuum [F/m]          8.85418781762039E-12
 Planck constant (h) [J*s]                                  6.62606896000000E-34
 Planck constant (h-bar) [J*s]                              1.05457162825177E-34
 Elementary charge [C]                                      1.60217648700000E-19
 Electron mass [kg]                                         9.10938215000000E-31
 Electron g factor [ ]                                     -2.00231930436220E+00
 Proton mass [kg]                                           1.67262163700000E-27
 Fine-structure constant                                    7.29735253760000E-03
 Rydberg constant [1/m]                                     1.09737315685270E+07
 Avogadro constant [1/mol]                                  6.02214179000000E+23
 Boltzmann constant [J/K]                                   1.38065040000000E-23
 Atomic mass unit [kg]                                      1.66053878200000E-27
 Bohr radius [m]                                            5.29177208590000E-11

 *** Conversion factors ***

 [u] -> [a.u.]                                              1.82288848426455E+03
 [Angstrom] -> [Bohr] = [a.u.]                              1.88972613288564E+00
 [a.u.] = [Bohr] -> [Angstrom]                              5.29177208590000E-01
 [a.u.] -> [s]                                              2.41888432650478E-17
 [a.u.] -> [fs]                                             2.41888432650478E-02
 [a.u.] -> [J]                                              4.35974393937059E-18
 [a.u.] -> [N]                                              8.23872205491840E-08
 [a.u.] -> [K]                                              3.15774647902944E+05
 [a.u.] -> [kJ/mol]                                         2.62549961709828E+03
 [a.u.] -> [kcal/mol]                                       6.27509468713739E+02
 [a.u.] -> [Pa]                                             2.94210107994716E+13
 [a.u.] -> [bar]                                            2.94210107994716E+08
 [a.u.] -> [atm]                                            2.90362800883016E+08
 [a.u.] -> [eV]                                             2.72113838565563E+01
 [a.u.] -> [Hz]                                             6.57968392072181E+15
 [a.u.] -> [1/cm] (wave numbers)                            2.19474631370540E+05
 [a.u./Bohr**2] -> [1/cm]                                   5.14048714338585E+03
 

 CELL_TOP| Volume [angstrom^3]:                                       171.034074
 CELL_TOP| Vector a [angstrom     3.305     0.000     0.000   |a| =     3.304660
 CELL_TOP| Vector b [angstrom     0.000    11.317     0.000   |b| =    11.316940
 CELL_TOP| Vector c [angstrom     0.000     0.000     4.573   |c| =     4.573270
 CELL_TOP| Angle (b,c), alpha [degree]:                                90.000000
 CELL_TOP| Angle (a,c), beta  [degree]:                                90.000000
 CELL_TOP| Angle (a,b), gamma [degree]:                                90.000000
 CELL_TOP| Numerically orthorhombic:                                         YES
 CELL_TOP| Periodicity                                                       XYZ

 CELL_CIF| Volume [angstrom^3]:                                       171.034074
 CELL_CIF| Vector a [angstrom     3.305     0.000     0.000   |a| =     3.304660
 CELL_CIF| Vector b [angstrom     0.000    11.317     0.000   |b| =    11.316940
 CELL_CIF| Vector c [angstrom     0.000     0.000     4.573   |c| =     4.573270
 CELL_CIF| Angle (b,c), alpha [degree]:                                90.000000
 CELL_CIF| Angle (a,c), beta  [degree]:                                90.000000
 CELL_CIF| Angle (a,b), gamma [degree]:                                90.000000
 CELL_CIF| Numerically orthorhombic:                                         YES
 CELL_CIF| Periodicity                                                       XYZ

 GENERATE|  Preliminary Number of Bonds generated:                             0
 GENERATE|  Achieved consistency in connectivity generation.

 CELL| Volume [angstrom^3]:                                           171.034074
 CELL| Vector a [angstrom]:       3.305     0.000     0.000   |a| =     3.304660
 CELL| Vector b [angstrom]:       0.000    11.317     0.000   |b| =    11.316940
 CELL| Vector c [angstrom]:       0.000     0.000     4.573   |c| =     4.573270
 CELL| Angle (b,c), alpha [degree]:                                    90.000000
 CELL| Angle (a,c), beta  [degree]:                                    90.000000
 CELL| Angle (a,b), gamma [degree]:                                    90.000000
 CELL| Numerically orthorhombic:                                             YES
 CELL| Periodicity                                                           XYZ

 CELL_REF| Volume [angstrom^3]:                                       171.034074
 CELL_REF| Vector a [angstrom     3.305     0.000     0.000   |a| =     3.304660
 CELL_REF| Vector b [angstrom     0.000    11.317     0.000   |b| =    11.316940
 CELL_REF| Vector c [angstrom     0.000     0.000     4.573   |c| =     4.573270
 CELL_REF| Angle (b,c), alpha [degree]:                                90.000000
 CELL_REF| Angle (a,c), beta  [degree]:                                90.000000
 CELL_REF| Angle (a,b), gamma [degree]:                                90.000000
 CELL_REF| Numerically orthorhombic:                                         YES
 CELL_REF| Periodicity                                                       XYZ

 *** WARNING in cryssym.F:180 :: Symmetry library SPGLIB not available ***


 *******************************************************************************
                                    Kpoints
 *******************************************************************************
 BRILLOUIN| K-point scheme                                        Monkhorst-Pack
 BRILLOUIN| K-Point grid                                             8    8    8
 BRILLOUIN| Accuracy in Symmetry determination                      0.100000E-05
 BRILLOUIN| K-Point point group symmetrization                               OFF
 BRILLOUIN| Wavefunction type                                            COMPLEX
 BRILLOUIN| List of Kpoints [2 Pi/Bohr]                                      256
 BRILLOUIN| Number           Weight            X              Y              Z
 BRILLOUIN|     1           0.00391       -0.43750       -0.43750       -0.43750
 BRILLOUIN|     2           0.00391       -0.43750       -0.43750       -0.31250
 BRILLOUIN|     3           0.00391       -0.43750       -0.43750       -0.18750
 BRILLOUIN|     4           0.00391       -0.43750       -0.43750       -0.06250
 BRILLOUIN|     5           0.00391       -0.43750       -0.43750        0.06250
 BRILLOUIN|     6           0.00391       -0.43750       -0.43750        0.18750
 BRILLOUIN|     7           0.00391       -0.43750       -0.43750        0.31250
 BRILLOUIN|     8           0.00391       -0.43750       -0.43750        0.43750
 BRILLOUIN|     9           0.00391       -0.43750       -0.31250       -0.43750
 BRILLOUIN|    10           0.00391       -0.43750       -0.31250       -0.31250
 BRILLOUIN|    11           0.00391       -0.43750       -0.31250       -0.18750
 BRILLOUIN|    12           0.00391       -0.43750       -0.31250       -0.06250
 BRILLOUIN|    13           0.00391       -0.43750       -0.31250        0.06250
 BRILLOUIN|    14           0.00391       -0.43750       -0.31250        0.18750
 BRILLOUIN|    15           0.00391       -0.43750       -0.31250        0.31250
 BRILLOUIN|    16           0.00391       -0.43750       -0.31250        0.43750
 BRILLOUIN|    17           0.00391       -0.43750       -0.18750       -0.43750
 BRILLOUIN|    18           0.00391       -0.43750       -0.18750       -0.31250
 BRILLOUIN|    19           0.00391       -0.43750       -0.18750       -0.18750
 BRILLOUIN|    20           0.00391       -0.43750       -0.18750       -0.06250
 BRILLOUIN|    21           0.00391       -0.43750       -0.18750        0.06250
 BRILLOUIN|    22           0.00391       -0.43750       -0.18750        0.18750
 BRILLOUIN|    23           0.00391       -0.43750       -0.18750        0.31250
 BRILLOUIN|    24           0.00391       -0.43750       -0.18750        0.43750
 BRILLOUIN|    25           0.00391       -0.43750       -0.06250       -0.43750
 BRILLOUIN|    26           0.00391       -0.43750       -0.06250       -0.31250
 BRILLOUIN|    27           0.00391       -0.43750       -0.06250       -0.18750
 BRILLOUIN|    28           0.00391       -0.43750       -0.06250       -0.06250
 BRILLOUIN|    29           0.00391       -0.43750       -0.06250        0.06250
 BRILLOUIN|    30           0.00391       -0.43750       -0.06250        0.18750
 BRILLOUIN|    31           0.00391       -0.43750       -0.06250        0.31250
 BRILLOUIN|    32           0.00391       -0.43750       -0.06250        0.43750
 BRILLOUIN|    33           0.00391       -0.43750        0.06250       -0.43750
 BRILLOUIN|    34           0.00391       -0.43750        0.06250       -0.31250
 BRILLOUIN|    35           0.00391       -0.43750        0.06250       -0.18750
 BRILLOUIN|    36           0.00391       -0.43750        0.06250       -0.06250
 BRILLOUIN|    37           0.00391       -0.43750        0.06250        0.06250
 BRILLOUIN|    38           0.00391       -0.43750        0.06250        0.18750
 BRILLOUIN|    39           0.00391       -0.43750        0.06250        0.31250
 BRILLOUIN|    40           0.00391       -0.43750        0.06250        0.43750
 BRILLOUIN|    41           0.00391       -0.43750        0.18750       -0.43750
 BRILLOUIN|    42           0.00391       -0.43750        0.18750       -0.31250
 BRILLOUIN|    43           0.00391       -0.43750        0.18750       -0.18750
 BRILLOUIN|    44           0.00391       -0.43750        0.18750       -0.06250
 BRILLOUIN|    45           0.00391       -0.43750        0.18750        0.06250
 BRILLOUIN|    46           0.00391       -0.43750        0.18750        0.18750
 BRILLOUIN|    47           0.00391       -0.43750        0.18750        0.31250
 BRILLOUIN|    48           0.00391       -0.43750        0.18750        0.43750
 BRILLOUIN|    49           0.00391       -0.43750        0.31250       -0.43750
 BRILLOUIN|    50           0.00391       -0.43750        0.31250       -0.31250
 BRILLOUIN|    51           0.00391       -0.43750        0.31250       -0.18750
 BRILLOUIN|    52           0.00391       -0.43750        0.31250       -0.06250
 BRILLOUIN|    53           0.00391       -0.43750        0.31250        0.06250
 BRILLOUIN|    54           0.00391       -0.43750        0.31250        0.18750
 BRILLOUIN|    55           0.00391       -0.43750        0.31250        0.31250
 BRILLOUIN|    56           0.00391       -0.43750        0.31250        0.43750
 BRILLOUIN|    57           0.00391       -0.43750        0.43750       -0.43750
 BRILLOUIN|    58           0.00391       -0.43750        0.43750       -0.31250
 BRILLOUIN|    59           0.00391       -0.43750        0.43750       -0.18750
 BRILLOUIN|    60           0.00391       -0.43750        0.43750       -0.06250
 BRILLOUIN|    61           0.00391       -0.43750        0.43750        0.06250
 BRILLOUIN|    62           0.00391       -0.43750        0.43750        0.18750
 BRILLOUIN|    63           0.00391       -0.43750        0.43750        0.31250
 BRILLOUIN|    64           0.00391       -0.43750        0.43750        0.43750
 BRILLOUIN|    65           0.00391       -0.31250       -0.43750       -0.43750
 BRILLOUIN|    66           0.00391       -0.31250       -0.43750       -0.31250
 BRILLOUIN|    67           0.00391       -0.31250       -0.43750       -0.18750
 BRILLOUIN|    68           0.00391       -0.31250       -0.43750       -0.06250
 BRILLOUIN|    69           0.00391       -0.31250       -0.43750        0.06250
 BRILLOUIN|    70           0.00391       -0.31250       -0.43750        0.18750
 BRILLOUIN|    71           0.00391       -0.31250       -0.43750        0.31250
 BRILLOUIN|    72           0.00391       -0.31250       -0.43750        0.43750
 BRILLOUIN|    73           0.00391       -0.31250       -0.31250       -0.43750
 BRILLOUIN|    74           0.00391       -0.31250       -0.31250       -0.31250
 BRILLOUIN|    75           0.00391       -0.31250       -0.31250       -0.18750
 BRILLOUIN|    76           0.00391       -0.31250       -0.31250       -0.06250
 BRILLOUIN|    77           0.00391       -0.31250       -0.31250        0.06250
 BRILLOUIN|    78           0.00391       -0.31250       -0.31250        0.18750
 BRILLOUIN|    79           0.00391       -0.31250       -0.31250        0.31250
 BRILLOUIN|    80           0.00391       -0.31250       -0.31250        0.43750
 BRILLOUIN|    81           0.00391       -0.31250       -0.18750       -0.43750
 BRILLOUIN|    82           0.00391       -0.31250       -0.18750       -0.31250
 BRILLOUIN|    83           0.00391       -0.31250       -0.18750       -0.18750
 BRILLOUIN|    84           0.00391       -0.31250       -0.18750       -0.06250
 BRILLOUIN|    85           0.00391       -0.31250       -0.18750        0.06250
 BRILLOUIN|    86           0.00391       -0.31250       -0.18750        0.18750
 BRILLOUIN|    87           0.00391       -0.31250       -0.18750        0.31250
 BRILLOUIN|    88           0.00391       -0.31250       -0.18750        0.43750
 BRILLOUIN|    89           0.00391       -0.31250       -0.06250       -0.43750
 BRILLOUIN|    90           0.00391       -0.31250       -0.06250       -0.31250
 BRILLOUIN|    91           0.00391       -0.31250       -0.06250       -0.18750
 BRILLOUIN|    92           0.00391       -0.31250       -0.06250       -0.06250
 BRILLOUIN|    93           0.00391       -0.31250       -0.06250        0.06250
 BRILLOUIN|    94           0.00391       -0.31250       -0.06250        0.18750
 BRILLOUIN|    95           0.00391       -0.31250       -0.06250        0.31250
 BRILLOUIN|    96           0.00391       -0.31250       -0.06250        0.43750
 BRILLOUIN|    97           0.00391       -0.31250        0.06250       -0.43750
 BRILLOUIN|    98           0.00391       -0.31250        0.06250       -0.31250
 BRILLOUIN|    99           0.00391       -0.31250        0.06250       -0.18750
 BRILLOUIN|   100           0.00391       -0.31250        0.06250       -0.06250
 BRILLOUIN|   101           0.00391       -0.31250        0.06250        0.06250
 BRILLOUIN|   102           0.00391       -0.31250        0.06250        0.18750
 BRILLOUIN|   103           0.00391       -0.31250        0.06250        0.31250
 BRILLOUIN|   104           0.00391       -0.31250        0.06250        0.43750
 BRILLOUIN|   105           0.00391       -0.31250        0.18750       -0.43750
 BRILLOUIN|   106           0.00391       -0.31250        0.18750       -0.31250
 BRILLOUIN|   107           0.00391       -0.31250        0.18750       -0.18750
 BRILLOUIN|   108           0.00391       -0.31250        0.18750       -0.06250
 BRILLOUIN|   109           0.00391       -0.31250        0.18750        0.06250
 BRILLOUIN|   110           0.00391       -0.31250        0.18750        0.18750
 BRILLOUIN|   111           0.00391       -0.31250        0.18750        0.31250
 BRILLOUIN|   112           0.00391       -0.31250        0.18750        0.43750
 BRILLOUIN|   113           0.00391       -0.31250        0.31250       -0.43750
 BRILLOUIN|   114           0.00391       -0.31250        0.31250       -0.31250
 BRILLOUIN|   115           0.00391       -0.31250        0.31250       -0.18750
 BRILLOUIN|   116           0.00391       -0.31250        0.31250       -0.06250
 BRILLOUIN|   117           0.00391       -0.31250        0.31250        0.06250
 BRILLOUIN|   118           0.00391       -0.31250        0.31250        0.18750
 BRILLOUIN|   119           0.00391       -0.31250        0.31250        0.31250
 BRILLOUIN|   120           0.00391       -0.31250        0.31250        0.43750
 BRILLOUIN|   121           0.00391       -0.31250        0.43750       -0.43750
 BRILLOUIN|   122           0.00391       -0.31250        0.43750       -0.31250
 BRILLOUIN|   123           0.00391       -0.31250        0.43750       -0.18750
 BRILLOUIN|   124           0.00391       -0.31250        0.43750       -0.06250
 BRILLOUIN|   125           0.00391       -0.31250        0.43750        0.06250
 BRILLOUIN|   126           0.00391       -0.31250        0.43750        0.18750
 BRILLOUIN|   127           0.00391       -0.31250        0.43750        0.31250
 BRILLOUIN|   128           0.00391       -0.31250        0.43750        0.43750
 BRILLOUIN|   129           0.00391       -0.18750       -0.43750       -0.43750
 BRILLOUIN|   130           0.00391       -0.18750       -0.43750       -0.31250
 BRILLOUIN|   131           0.00391       -0.18750       -0.43750       -0.18750
 BRILLOUIN|   132           0.00391       -0.18750       -0.43750       -0.06250
 BRILLOUIN|   133           0.00391       -0.18750       -0.43750        0.06250
 BRILLOUIN|   134           0.00391       -0.18750       -0.43750        0.18750
 BRILLOUIN|   135           0.00391       -0.18750       -0.43750        0.31250
 BRILLOUIN|   136           0.00391       -0.18750       -0.43750        0.43750
 BRILLOUIN|   137           0.00391       -0.18750       -0.31250       -0.43750
 BRILLOUIN|   138           0.00391       -0.18750       -0.31250       -0.31250
 BRILLOUIN|   139           0.00391       -0.18750       -0.31250       -0.18750
 BRILLOUIN|   140           0.00391       -0.18750       -0.31250       -0.06250
 BRILLOUIN|   141           0.00391       -0.18750       -0.31250        0.06250
 BRILLOUIN|   142           0.00391       -0.18750       -0.31250        0.18750
 BRILLOUIN|   143           0.00391       -0.18750       -0.31250        0.31250
 BRILLOUIN|   144           0.00391       -0.18750       -0.31250        0.43750
 BRILLOUIN|   145           0.00391       -0.18750       -0.18750       -0.43750
 BRILLOUIN|   146           0.00391       -0.18750       -0.18750       -0.31250
 BRILLOUIN|   147           0.00391       -0.18750       -0.18750       -0.18750
 BRILLOUIN|   148           0.00391       -0.18750       -0.18750       -0.06250
 BRILLOUIN|   149           0.00391       -0.18750       -0.18750        0.06250
 BRILLOUIN|   150           0.00391       -0.18750       -0.18750        0.18750
 BRILLOUIN|   151           0.00391       -0.18750       -0.18750        0.31250
 BRILLOUIN|   152           0.00391       -0.18750       -0.18750        0.43750
 BRILLOUIN|   153           0.00391       -0.18750       -0.06250       -0.43750
 BRILLOUIN|   154           0.00391       -0.18750       -0.06250       -0.31250
 BRILLOUIN|   155           0.00391       -0.18750       -0.06250       -0.18750
 BRILLOUIN|   156           0.00391       -0.18750       -0.06250       -0.06250
 BRILLOUIN|   157           0.00391       -0.18750       -0.06250        0.06250
 BRILLOUIN|   158           0.00391       -0.18750       -0.06250        0.18750
 BRILLOUIN|   159           0.00391       -0.18750       -0.06250        0.31250
 BRILLOUIN|   160           0.00391       -0.18750       -0.06250        0.43750
 BRILLOUIN|   161           0.00391       -0.18750        0.06250       -0.43750
 BRILLOUIN|   162           0.00391       -0.18750        0.06250       -0.31250
 BRILLOUIN|   163           0.00391       -0.18750        0.06250       -0.18750
 BRILLOUIN|   164           0.00391       -0.18750        0.06250       -0.06250
 BRILLOUIN|   165           0.00391       -0.18750        0.06250        0.06250
 BRILLOUIN|   166           0.00391       -0.18750        0.06250        0.18750
 BRILLOUIN|   167           0.00391       -0.18750        0.06250        0.31250
 BRILLOUIN|   168           0.00391       -0.18750        0.06250        0.43750
 BRILLOUIN|   169           0.00391       -0.18750        0.18750       -0.43750
 BRILLOUIN|   170           0.00391       -0.18750        0.18750       -0.31250
 BRILLOUIN|   171           0.00391       -0.18750        0.18750       -0.18750
 BRILLOUIN|   172           0.00391       -0.18750        0.18750       -0.06250
 BRILLOUIN|   173           0.00391       -0.18750        0.18750        0.06250
 BRILLOUIN|   174           0.00391       -0.18750        0.18750        0.18750
 BRILLOUIN|   175           0.00391       -0.18750        0.18750        0.31250
 BRILLOUIN|   176           0.00391       -0.18750        0.18750        0.43750
 BRILLOUIN|   177           0.00391       -0.18750        0.31250       -0.43750
 BRILLOUIN|   178           0.00391       -0.18750        0.31250       -0.31250
 BRILLOUIN|   179           0.00391       -0.18750        0.31250       -0.18750
 BRILLOUIN|   180           0.00391       -0.18750        0.31250       -0.06250
 BRILLOUIN|   181           0.00391       -0.18750        0.31250        0.06250
 BRILLOUIN|   182           0.00391       -0.18750        0.31250        0.18750
 BRILLOUIN|   183           0.00391       -0.18750        0.31250        0.31250
 BRILLOUIN|   184           0.00391       -0.18750        0.31250        0.43750
 BRILLOUIN|   185           0.00391       -0.18750        0.43750       -0.43750
 BRILLOUIN|   186           0.00391       -0.18750        0.43750       -0.31250
 BRILLOUIN|   187           0.00391       -0.18750        0.43750       -0.18750
 BRILLOUIN|   188           0.00391       -0.18750        0.43750       -0.06250
 BRILLOUIN|   189           0.00391       -0.18750        0.43750        0.06250
 BRILLOUIN|   190           0.00391       -0.18750        0.43750        0.18750
 BRILLOUIN|   191           0.00391       -0.18750        0.43750        0.31250
 BRILLOUIN|   192           0.00391       -0.18750        0.43750        0.43750
 BRILLOUIN|   193           0.00391       -0.06250       -0.43750       -0.43750
 BRILLOUIN|   194           0.00391       -0.06250       -0.43750       -0.31250
 BRILLOUIN|   195           0.00391       -0.06250       -0.43750       -0.18750
 BRILLOUIN|   196           0.00391       -0.06250       -0.43750       -0.06250
 BRILLOUIN|   197           0.00391       -0.06250       -0.43750        0.06250
 BRILLOUIN|   198           0.00391       -0.06250       -0.43750        0.18750
 BRILLOUIN|   199           0.00391       -0.06250       -0.43750        0.31250
 BRILLOUIN|   200           0.00391       -0.06250       -0.43750        0.43750
 BRILLOUIN|   201           0.00391       -0.06250       -0.31250       -0.43750
 BRILLOUIN|   202           0.00391       -0.06250       -0.31250       -0.31250
 BRILLOUIN|   203           0.00391       -0.06250       -0.31250       -0.18750
 BRILLOUIN|   204           0.00391       -0.06250       -0.31250       -0.06250
 BRILLOUIN|   205           0.00391       -0.06250       -0.31250        0.06250
 BRILLOUIN|   206           0.00391       -0.06250       -0.31250        0.18750
 BRILLOUIN|   207           0.00391       -0.06250       -0.31250        0.31250
 BRILLOUIN|   208           0.00391       -0.06250       -0.31250        0.43750
 BRILLOUIN|   209           0.00391       -0.06250       -0.18750       -0.43750
 BRILLOUIN|   210           0.00391       -0.06250       -0.18750       -0.31250
 BRILLOUIN|   211           0.00391       -0.06250       -0.18750       -0.18750
 BRILLOUIN|   212           0.00391       -0.06250       -0.18750       -0.06250
 BRILLOUIN|   213           0.00391       -0.06250       -0.18750        0.06250
 BRILLOUIN|   214           0.00391       -0.06250       -0.18750        0.18750
 BRILLOUIN|   215           0.00391       -0.06250       -0.18750        0.31250
 BRILLOUIN|   216           0.00391       -0.06250       -0.18750        0.43750
 BRILLOUIN|   217           0.00391       -0.06250       -0.06250       -0.43750
 BRILLOUIN|   218           0.00391       -0.06250       -0.06250       -0.31250
 BRILLOUIN|   219           0.00391       -0.06250       -0.06250       -0.18750
 BRILLOUIN|   220           0.00391       -0.06250       -0.06250       -0.06250
 BRILLOUIN|   221           0.00391       -0.06250       -0.06250        0.06250
 BRILLOUIN|   222           0.00391       -0.06250       -0.06250        0.18750
 BRILLOUIN|   223           0.00391       -0.06250       -0.06250        0.31250
 BRILLOUIN|   224           0.00391       -0.06250       -0.06250        0.43750
 BRILLOUIN|   225           0.00391       -0.06250        0.06250       -0.43750
 BRILLOUIN|   226           0.00391       -0.06250        0.06250       -0.31250
 BRILLOUIN|   227           0.00391       -0.06250        0.06250       -0.18750
 BRILLOUIN|   228           0.00391       -0.06250        0.06250       -0.06250
 BRILLOUIN|   229           0.00391       -0.06250        0.06250        0.06250
 BRILLOUIN|   230           0.00391       -0.06250        0.06250        0.18750
 BRILLOUIN|   231           0.00391       -0.06250        0.06250        0.31250
 BRILLOUIN|   232           0.00391       -0.06250        0.06250        0.43750
 BRILLOUIN|   233           0.00391       -0.06250        0.18750       -0.43750
 BRILLOUIN|   234           0.00391       -0.06250        0.18750       -0.31250
 BRILLOUIN|   235           0.00391       -0.06250        0.18750       -0.18750
 BRILLOUIN|   236           0.00391       -0.06250        0.18750       -0.06250
 BRILLOUIN|   237           0.00391       -0.06250        0.18750        0.06250
 BRILLOUIN|   238           0.00391       -0.06250        0.18750        0.18750
 BRILLOUIN|   239           0.00391       -0.06250        0.18750        0.31250
 BRILLOUIN|   240           0.00391       -0.06250        0.18750        0.43750
 BRILLOUIN|   241           0.00391       -0.06250        0.31250       -0.43750
 BRILLOUIN|   242           0.00391       -0.06250        0.31250       -0.31250
 BRILLOUIN|   243           0.00391       -0.06250        0.31250       -0.18750
 BRILLOUIN|   244           0.00391       -0.06250        0.31250       -0.06250
 BRILLOUIN|   245           0.00391       -0.06250        0.31250        0.06250
 BRILLOUIN|   246           0.00391       -0.06250        0.31250        0.18750
 BRILLOUIN|   247           0.00391       -0.06250        0.31250        0.31250
 BRILLOUIN|   248           0.00391       -0.06250        0.31250        0.43750
 BRILLOUIN|   249           0.00391       -0.06250        0.43750       -0.43750
 BRILLOUIN|   250           0.00391       -0.06250        0.43750       -0.31250
 BRILLOUIN|   251           0.00391       -0.06250        0.43750       -0.18750
 BRILLOUIN|   252           0.00391       -0.06250        0.43750       -0.06250
 BRILLOUIN|   253           0.00391       -0.06250        0.43750        0.06250
 BRILLOUIN|   254           0.00391       -0.06250        0.43750        0.18750
 BRILLOUIN|   255           0.00391       -0.06250        0.43750        0.31250
 BRILLOUIN|   256           0.00391       -0.06250        0.43750        0.43750
 *******************************************************************************

 *******************************************************************************
 *******************************************************************************
 **                                                                           **
 **     #####                         ##              ##                      **
 **    ##   ##            ##          ##              ##                      **
 **   ##     ##                       ##            ######                    **
 **   ##     ##  ##   ##  ##   #####  ##  ##   ####   ##    #####    #####    **
 **   ##     ##  ##   ##  ##  ##      ## ##   ##      ##   ##   ##  ##   ##   **
 **   ##  ## ##  ##   ##  ##  ##      ####     ###    ##   ######   ######    **
 **    ##  ###   ##   ##  ##  ##      ## ##      ##   ##   ##       ##        **
 **     #######   #####   ##   #####  ##  ##  ####    ##    #####   ##        **
 **           ##                                                    ##        **
 **                                                                           **
 **                                                ... make the atoms dance   **
 **                                                                           **
 **            Copyright (C) by CP2K developers group (2000-2025)             **
 **                      J. Chem. Phys. 152, 194103 (2020)                    **
 **                                                                           **
 *******************************************************************************

 DFT| Spin restricted Kohn-Sham (RKS) calculation                            RKS
 DFT| Multiplicity                                                             1
 DFT| Number of spin states                                                    1
 DFT| Charge                                                                   0
 DFT| Self-interaction correction (SIC)                                       NO
 DFT| Cutoffs: density                                              1.000000E-10
 DFT|          gradient                                             1.000000E-10
 DFT|          tau                                                  1.000000E-10
 DFT|          cutoff_smoothing_range                               0.000000E+00
 DFT| XC density smoothing                                                  NONE
 DFT| XC derivatives                                                          PW

 FUNCTIONAL| PBE:
 FUNCTIONAL| J.P.Perdew, K.Burke, M.Ernzerhof, Phys. Rev. Letter, vol. 77, n 18,
 FUNCTIONAL|  pp. 3865-3868, (1996) {spin unpolarized}                          


 QS| Method:                                                                 GPW
 QS| Density plane wave grid type                        NON-SPHERICAL FULLSPACE
 QS| Number of grid levels:                                                    4
 QS| Density cutoff [a.u.]:                                                500.0
 QS| Multi grid cutoff [a.u.]: 1) grid level                               500.0
 QS|                           2) grid level                               166.7
 QS|                           3) grid level                                55.6
 QS|                           4) grid level                                18.5
 QS| Grid level progression factor:                                          3.0
 QS| Relative density cutoff [a.u.]:                                        50.0
 QS| Interaction thresholds: eps_pgf_orb:                                1.0E-16
 QS|                         eps_filter_matrix:                          0.0E+00
 QS|                         eps_core_charge:                            1.0E-18
 QS|                         eps_rho_gspace:                             1.0E-16
 QS|                         eps_rho_rspace:                             1.0E-16
 QS|                         eps_gvg_rspace:                             1.0E-08
 QS|                         eps_ppl:                                    1.0E-02
 QS|                         eps_ppnl:                                   1.0E-10


 ATOMIC KIND INFORMATION

  1. Atomic kind: P                                     Number of atoms:       8

     Orbital Basis Set                                         SZV-MOLOPT-GTH-q5

       Number of orbital shell sets:                                           1
       Number of orbital shells:                                               2
       Number of primitive Cartesian functions:                                6
       Number of Cartesian basis functions:                                    4
       Number of spherical basis functions:                                    4
       Norm type:                                                              2

       Normalised Cartesian orbitals:

                        Set   Shell   Orbital            Exponent    Coefficient

                          1       1    2s                3.338153       0.070371
                                                         1.833920      -0.349206
                                                         0.688532      -0.062221
                                                         0.372377       0.229985
                                                         0.166131       0.092364
                                                         0.075778       0.009125

                          1       2    3px               3.338153      -0.086704
                                                         1.833920      -0.124680
                                                         0.688532       0.120237
                                                         0.372377       0.175425
                                                         0.166131       0.058965
                                                         0.075778       0.011013
                          1       2    3py               3.338153      -0.086704
                                                         1.833920      -0.124680
                                                         0.688532       0.120237
                                                         0.372377       0.175425
                                                         0.166131       0.058965
                                                         0.075778       0.011013
                          1       2    3pz               3.338153      -0.086704
                                                         1.833920      -0.124680
                                                         0.688532       0.120237
                                                         0.372377       0.175425
                                                         0.166131       0.058965
                                                         0.075778       0.011013

       Atomic covalent radius [Angstrom]:                                  1.060

       Atomic van der Waals radius [Angstrom]:                             1.800

     GTH Potential information for                                    GTH-PBE-q5

       Description:                       Goedecker-Teter-Hutter pseudopotential
                                           Goedecker et al., PRB 54, 1703 (1996)
                                          Hartwigsen et al., PRB 58, 3641 (1998)
                                                      Krack, TCA 114, 145 (2005)

       Gaussian exponent of the core charge distribution:               2.704164
       Electronic configuration (s p d ...):                               2   3

       Parameters of the local part of the GTH pseudopotential:

                          rloc        C1          C2          C3          C4
                        0.430000   -5.875943

       Parameters of the non-local part of the GTH (SOC) pseudopotential:

                   l      r(l)      h(i,j,l)
                                    k(i,j,l)
                   0    0.396377   11.008862   -3.470356
                                   -3.470356    4.480210
                   1    0.448298    3.056064    0.000000
                                    0.000000    0.000000
                                    0.026069   -0.021185
                                   -0.021185    0.025066


 MOLECULE KIND INFORMATION


 All atoms are their own molecule, skipping detailed information


 TOTAL NUMBERS AND MAXIMUM NUMBERS

  Total number of            - Atomic kinds:                                   1
                             - Atoms:                                          8
                             - Shell sets:                                     8
                             - Shells:                                        16
                             - Primitive Cartesian functions:                 48
                             - Cartesian basis functions:                     32
                             - Spherical basis functions:                     32

  Maximum angular momentum of- Orbital basis functions:                        1
                             - Local part of the GTH pseudopotential:          0
                             - Non-local part of the GTH pseudopotential:      3


 MODULE QUICKSTEP: ATOMIC COORDINATES IN ANGSTROM

   Atom Kind Element         X             Y             Z       Z(eff)     Mass
      1    1 P    15      0.000000      1.058926      0.398743   5.0000  30.9738
      2    1 P    15      0.000000     10.258014      4.174527   5.0000  30.9738
      3    1 P    15      0.000000      4.599544      2.685378   5.0000  30.9738
      4    1 P    15      0.000000      6.717396      1.887892   5.0000  30.9738
      5    1 P    15      1.652330      6.717396      0.398743   5.0000  30.9738
      6    1 P    15      1.652330      4.599544      4.174527   5.0000  30.9738
      7    1 P    15      1.652330     10.258014      2.685378   5.0000  30.9738
      8    1 P    15      1.652330      1.058926      1.887892   5.0000  30.9738



 SCF PARAMETERS         Density guess:                                   RESTART
                        --------------------------------------------------------
                        max_scf:                                             500
                        max_scf_history:                                       0
                        max_diis:                                              4
                        --------------------------------------------------------
                        eps_scf:                                        1.00E-09
                        eps_scf_history:                                0.00E+00
                        eps_diis:                                       1.00E-01
                        eps_eigval:                                     1.00E-05
                        --------------------------------------------------------
                        level_shift [a.u.]:                             0.000000
                        added MOs                                        12    0
                        --------------------------------------------------------
                        Mixing method:                            BROYDEN_MIXING
                                                charge density mixing in g-space
                        --------------------------------------------------------
                        No outer SCF

 PW_GRID| Information for grid number                                          1
 PW_GRID| Grid distributed over                                     8 processors
 PW_GRID| Real space group dimensions                                     8    1
 PW_GRID| the grid is blocked:                                                NO
 PW_GRID| Cutoff [a.u.]                                                    500.0
 PW_GRID| spherical cutoff:                                                   NO
 PW_GRID|   Bounds   1            -32      31                Points:          64
 PW_GRID|   Bounds   2           -108     107                Points:         216
 PW_GRID|   Bounds   3            -45      44                Points:          90
 PW_GRID| Volume element (a.u.^3)  0.9277E-03     Volume (a.u.^3)      1154.1952
 PW_GRID| Grid span                                                    FULLSPACE
 PW_GRID|   Distribution                         Average         Max         Min
 PW_GRID|   G-Vectors                           155520.0      155520      155520
 PW_GRID|   G-Rays                                2430.0        2430        2430
 PW_GRID|   Real Space Points                   155520.0      155520      155520

 PW_GRID| Information for grid number                                          2
 PW_GRID| Number of the reference grid                                         1
 PW_GRID| Grid distributed over                                     8 processors
 PW_GRID| Real space group dimensions                                     8    1
 PW_GRID| the grid is blocked:                                                NO
 PW_GRID| Cutoff [a.u.]                                                    166.7
 PW_GRID| spherical cutoff:                                                   NO
 PW_GRID|   Bounds   1            -20      19                Points:          40
 PW_GRID|   Bounds   2            -62      62                Points:         125
 PW_GRID|   Bounds   3            -27      26                Points:          54
 PW_GRID| Volume element (a.u.^3)  0.4275E-02     Volume (a.u.^3)      1154.1952
 PW_GRID| Grid span                                                    FULLSPACE
 PW_GRID|   Distribution                         Average         Max         Min
 PW_GRID|   G-Vectors                            33750.0       33880       33600
 PW_GRID|   G-Rays                                 843.8         847         840
 PW_GRID|   Real Space Points                    33750.0       33750       33750

 PW_GRID| Information for grid number                                          3
 PW_GRID| Number of the reference grid                                         1
 PW_GRID| Grid distributed over                                     8 processors
 PW_GRID| Real space group dimensions                                     8    1
 PW_GRID| the grid is blocked:                                                NO
 PW_GRID| Cutoff [a.u.]                                                     55.6
 PW_GRID| spherical cutoff:                                                   NO
 PW_GRID|   Bounds   1            -12      11                Points:          24
 PW_GRID|   Bounds   2            -36      35                Points:          72
 PW_GRID|   Bounds   3            -15      14                Points:          30
 PW_GRID| Volume element (a.u.^3)  0.2226E-01     Volume (a.u.^3)      1154.1952
 PW_GRID| Grid span                                                    FULLSPACE
 PW_GRID|   Distribution                         Average         Max         Min
 PW_GRID|   G-Vectors                             6480.0        6528        6408
 PW_GRID|   G-Rays                                 270.0         272         267
 PW_GRID|   Real Space Points                     6480.0        6480        6480

 PW_GRID| Information for grid number                                          4
 PW_GRID| Number of the reference grid                                         1
 PW_GRID| Grid distributed over                                     8 processors
 PW_GRID| Real space group dimensions                                     8    1
 PW_GRID| the grid is blocked:                                                NO
 PW_GRID| Cutoff [a.u.]                                                     18.5
 PW_GRID| spherical cutoff:                                                   NO
 PW_GRID|   Bounds   1             -7       7                Points:          15
 PW_GRID|   Bounds   2            -22      22                Points:          45
 PW_GRID|   Bounds   3             -9       8                Points:          18
 PW_GRID| Volume element (a.u.^3)  0.9500E-01     Volume (a.u.^3)      1154.1952
 PW_GRID| Grid span                                                    FULLSPACE
 PW_GRID|   Distribution                         Average         Max         Min
 PW_GRID|   G-Vectors                             1518.8        1545        1500
 PW_GRID|   G-Rays                                 101.2         103         100
 PW_GRID|   Real Space Points                     1518.8        1620         810

 POISSON| Solver                                                        PERIODIC
 POISSON| Periodicity                                                        XYZ

 RS_GRID| Information for grid number                                          1
 RS_GRID|   Bounds   1            -32      31                Points:          64
 RS_GRID|   Bounds   2           -108     107                Points:         216
 RS_GRID|   Bounds   3            -45      44                Points:          90
 RS_GRID| Real space fully replicated
 RS_GRID| Group size                                                           1

 RS_GRID| Information for grid number                                          2
 RS_GRID|   Bounds   1            -20      19                Points:          40
 RS_GRID|   Bounds   2            -62      62                Points:         125
 RS_GRID|   Bounds   3            -27      26                Points:          54
 RS_GRID| Real space fully replicated
 RS_GRID| Group size                                                           1

 RS_GRID| Information for grid number                                          3
 RS_GRID|   Bounds   1            -12      11                Points:          24
 RS_GRID|   Bounds   2            -36      35                Points:          72
 RS_GRID|   Bounds   3            -15      14                Points:          30
 RS_GRID| Real space fully replicated
 RS_GRID| Group size                                                           1

 RS_GRID| Information for grid number                                          4
 RS_GRID|   Bounds   1             -7       7                Points:          15
 RS_GRID|   Bounds   2            -22      22                Points:          45
 RS_GRID|   Bounds   3             -9       8                Points:          18
 RS_GRID| Real space fully replicated
 RS_GRID| Group size                                                           1

 Number of electrons:                                                         40
 Number of occupied orbitals:                                                 20
 Number of molecular orbitals:                                                32

 Number of orbital functions:                                                 32
 Number of independent orbital functions:                                     32

 Extrapolation method: initial_guess

 *** WARNING in qs_initial_guess.F:306 :: User requested to restart the    ***
 *** wavefunction from the file named: WSe2-RESTART.kp. This file does not ***
 *** exist. Please check the existence of the file or change properly the  ***
 *** value of the keyword WFN_RESTART_FILE_NAME. Calculation continues     ***
 *** using ATOMIC GUESS.                                                   ***


 Atomic guess: The first density matrix is obtained in terms of atomic orbitals
               and electronic configurations assigned to each atomic kind

 Guess for atomic kind: P

 Electronic structure
    Total number of core electrons                                         10.00
    Total number of valence electrons                                       5.00
    Total number of electrons                                              15.00
    Multiplicity                                                   not specified
    S   [  2.00  2.00] 2.00
    P   [  6.00] 3.00


 *******************************************************************************
                  Iteration          Convergence                     Energy [au]
 *******************************************************************************
                          1         0.00000                      -6.283441743623

 Energy components [Hartree]           Total Energy ::           -6.283441743623
                                        Band Energy ::           -1.786698390614
                                     Kinetic Energy ::            2.623419518536
                                   Potential Energy ::           -8.906861262159
                                      Virial (-V/T) ::            3.395134174777
                                        Core Energy ::          -10.222916021888
                                          XC Energy ::           -1.521663287855
                                     Coulomb Energy ::            5.461137566120
                       Total Pseudopotential Energy ::          -12.901234056033
                       Local Pseudopotential Energy ::          -14.305988920834
                    Nonlocal Pseudopotential Energy ::            1.404754864800
                                        Confinement ::            0.548985156094

 Orbital energies  State     L     Occupation   Energy[a.u.]          Energy[eV]

                       1     0          2.000      -0.547699          -14.903644

                       1     1          3.000      -0.230434           -6.270416


 Total Electron Density at R=0:                                         0.000184
 Re-scaling the density matrix to get the right number of electrons
                  # Electrons              Trace(P)               Scaling factor
                           40                40.000                        1.000


 SCF WAVEFUNCTION OPTIMIZATION

  Step     Update method      Time    Convergence         Total energy    Change
  ------------------------------------------------------------------------------
     1 NoMix/Diag. 0.50E-01    1.6     0.67171009       -52.7121510710 -5.27E+01
     2 Broy./Diag. 0.50E-01    1.7     0.00237268       -53.2118153262 -5.00E-01
     3 Broy./Diag. 0.50E-01    1.7     0.08343938       -52.7719029211  4.40E-01
     4 Broy./Diag. 0.50E-01    1.7     0.00043761       -52.6291420799  1.43E-01
     5 Broy./Diag. 0.50E-01    1.7     0.04587476       -52.5434501352  8.57E-02
     6 Broy./Diag. 0.50E-01    1.7     0.00039713       -52.4579428364  8.55E-02
     7 Broy./Diag. 0.50E-01    1.7     0.01835183       -52.4009244490  5.70E-02
     8 Broy./Diag. 0.50E-01    1.7     0.00082264       -52.3632350786  3.77E-02
     9 Broy./Diag. 0.50E-01    1.7     0.00494694       -52.2756516895  8.76E-02
    10 Broy./Diag. 0.50E-01    1.7     0.00172777       -52.2361537489  3.95E-02
    11 Broy./Diag. 0.50E-01    1.7     0.00025226       -52.2351419807  1.01E-03
    12 Broy./Diag. 0.50E-01    1.7     0.00177863       -52.2224475165  1.27E-02
    13 Broy./Diag. 0.50E-01    1.7     0.00002969       -52.2221631001  2.84E-04
    14 Broy./Diag. 0.50E-01    1.7     0.00032499       -52.2366840960 -1.45E-02
    15 Broy./Diag. 0.50E-01    1.7     0.00000427       -52.2371435219 -4.59E-04
    16 Broy./Diag. 0.50E-01    1.7     0.00006098       -52.2403480967 -3.20E-03
    17 Broy./Diag. 0.50E-01    1.7     0.00000216       -52.2405653501 -2.17E-04
    18 Broy./Diag. 0.50E-01    1.7     0.00002993       -52.2408518985 -2.87E-04
    19 Broy./Diag. 0.50E-01    1.7     0.00000342       -52.2408197636  3.21E-05
    20 Broy./Diag. 0.50E-01    1.7     0.00000350       -52.2408911110 -7.13E-05
    21 Broy./Diag. 0.50E-01    1.7     0.00000625       -52.2409486566 -5.75E-05
    22 Broy./Diag. 0.50E-01    1.7     0.00000724       -52.2410430039 -9.43E-05
    23 Broy./Diag. 0.50E-01    1.7     0.00000740       -52.2411642443 -1.21E-04
    24 Broy./Diag. 0.50E-01    1.7     0.00000275       -52.2411983962 -3.42E-05
    25 Broy./Diag. 0.50E-01    1.7     0.00000123       -52.2411751199  2.33E-05
    26 Broy./Diag. 0.50E-01    1.7     0.00000035       -52.2411849826 -9.86E-06
    27 Broy./Diag. 0.50E-01    1.7     0.00000083       -52.2412445360 -5.96E-05
    28 Broy./Diag. 0.50E-01    1.7     0.00000089       -52.2412662735 -2.17E-05
    29 Broy./Diag. 0.50E-01    1.7     0.00000148       -52.2412993012 -3.30E-05
    30 Broy./Diag. 0.50E-01    1.7     0.00000021       -52.2413088795 -9.58E-06
    31 Broy./Diag. 0.50E-01    1.7     0.00000117       -52.2413230858 -1.42E-05
    32 Broy./Diag. 0.50E-01    1.7     0.00000111       -52.2413247615 -1.68E-06
    33 Broy./Diag. 0.50E-01    1.7     0.00000027       -52.2413237456  1.02E-06
    34 Broy./Diag. 0.50E-01    1.7     0.00000057       -52.2413283132 -4.57E-06
    35 Broy./Diag. 0.50E-01    1.7     0.00000023       -52.2413358975 -7.58E-06
    36 Broy./Diag. 0.50E-01    1.7     0.00000017       -52.2413410498 -5.15E-06
    37 Broy./Diag. 0.50E-01    1.7     0.00000016       -52.2413417501 -7.00E-07
    38 Broy./Diag. 0.50E-01    1.7     0.00000003       -52.2413424415 -6.91E-07
    39 Broy./Diag. 0.50E-01    1.7     0.00000007       -52.2413451499 -2.71E-06
    40 Broy./Diag. 0.50E-01    1.7     0.00000009       -52.2413470610 -1.91E-06
    41 Broy./Diag. 0.50E-01    1.7     0.00000041       -52.2413544277 -7.37E-06
    42 Broy./Diag. 0.50E-01    1.7     0.00000010       -52.2413566003 -2.17E-06
    43 Broy./Diag. 0.50E-01    1.7     0.00000004       -52.2413578258 -1.23E-06
    44 Broy./Diag. 0.50E-01    1.7     0.00000006       -52.2413587351 -9.09E-07
    45 Broy./Diag. 0.50E-01    1.7     0.00000004       -52.2413586952  3.99E-08
    46 Broy./Diag. 0.50E-01    1.8     0.00000009       -52.2413587938 -9.86E-08
    47 Broy./Diag. 0.50E-01    1.7     0.00000002       -52.2413590350 -2.41E-07
    48 Broy./Diag. 0.50E-01    1.7     0.00000001       -52.2413596016 -5.67E-07
    49 Broy./Diag. 0.50E-01    1.7     0.00000004       -52.2413608422 -1.24E-06
    50 Broy./Diag. 0.50E-01    1.7     9.2802E-09       -52.2413610510 -2.09E-07
    51 Broy./Diag. 0.50E-01    1.7     0.00000002       -52.2413611282 -7.71E-08
    52 Broy./Diag. 0.50E-01    1.7     4.9925E-09       -52.2413611535 -2.53E-08
    53 Broy./Diag. 0.50E-01    1.7     0.00000002       -52.2413615706 -4.17E-07
    54 Broy./Diag. 0.50E-01    1.7     0.00000001       -52.2413617708 -2.00E-07
    55 Broy./Diag. 0.50E-01    1.7     7.3511E-09       -52.2413619154 -1.45E-07
    56 Broy./Diag. 0.50E-01    1.7     9.3320E-09       -52.2413620627 -1.47E-07
    57 Broy./Diag. 0.50E-01    1.7     2.1779E-09       -52.2413621171 -5.44E-08
    58 Broy./Diag. 0.50E-01    1.7     1.3382E-09       -52.2413621600 -4.28E-08
    59 Broy./Diag. 0.50E-01    1.7     5.9848E-10       -52.2413621702 -1.02E-08

  *** SCF run converged in    59 steps ***


  Electronic density on regular grids:        -40.0000000000        0.0000000000
  Core density on regular grids:               40.0000000000        0.0000000000
  Total charge density on r-space grids:        0.0000000000
  Total charge density g-space grids:           0.0000000000

  Overlap energy of the core charge distribution:               0.00000000027443
  Self energy of the core charge distribution:               -131.20687989482707
  Core Hamiltonian energy:                                     29.62923741932238
  Hartree energy:                                              62.89728750097916
  Exchange-correlation energy:                                -13.56100719591679

  Total energy:                                               -52.24136217016787

 !-----------------------------------------------------------------------------!
                     Mulliken Population Analysis

 #  Atom  Element  Kind  Atomic population                           Net charge
       1     P        1          5.000000                              0.000000
       2     P        1          5.000000                              0.000000
       3     P        1          5.000000                              0.000000
       4     P        1          5.000000                              0.000000
       5     P        1          5.000000                             -0.000000
       6     P        1          5.000000                             -0.000000
       7     P        1          5.000000                             -0.000000
       8     P        1          5.000000                             -0.000000
 # Total charge                             40.000000                 -0.000000

 !-----------------------------------------------------------------------------!

 !-----------------------------------------------------------------------------!
                           Hirshfeld Charges

  #Atom  Element  Kind  Ref Charge     Population                    Net charge
      1       P      1       5.000          5.000                         0.000
      2       P      1       5.000          5.000                         0.000
      3       P      1       5.000          5.000                         0.000
      4       P      1       5.000          5.000                         0.000
      5       P      1       5.000          5.000                        -0.000
      6       P      1       5.000          5.000                        -0.000
      7       P      1       5.000          5.000                        -0.000
      8       P      1       5.000          5.000                        -0.000

  Total Charge                                                           -0.000
 !-----------------------------------------------------------------------------!

 KPOINTS| Band Structure Calculation
 KPOINTS| Number of k-point sets                                               1
 KPOINTS| Number of added MOs/bands                                           -1
 KPOINTS| Number of k-points in set    1                                     148
 KPOINTS| In units of b-vector [2pi/Bohr]
 KPOINTS| Special point     1 not specifi     0.000000     0.000000     0.000000
 KPOINTS| Special point     2 not specifi    -0.500000     0.500000     0.000000
 KPOINTS| Special point     3 not specifi    -0.271317     0.728683     0.000000
 KPOINTS| Special point     4 not specifi     0.000000     0.000000     0.000000
 KPOINTS| Time for k-point line                                            0.686

 ENERGY| Total FORCE_EVAL ( QS ) energy [hartree]            -52.241362170167875

 -------------------------------------------------------------------------------
 -                                                                             -
 -                                DBCSR STATISTICS                             -
 -                                                                             -
 -------------------------------------------------------------------------------
 COUNTER                                    TOTAL       BLAS       SMM       ACC
 flops inhomo. stacks                           0       0.0%      0.0%      0.0%
 flops total                         0.000000E+00       0.0%      0.0%      0.0%
 flops max/rank                      0.000000E+00       0.0%      0.0%      0.0%
 matmuls inhomo. stacks                         0       0.0%      0.0%      0.0%
 matmuls total                                  0       0.0%      0.0%      0.0%
 number of processed stacks                     0       0.0%      0.0%      0.0%
 average stack size                                     0.0       0.0       0.0
 marketing flops                     0.000000E+00
 -------------------------------------------------------------------------------
 -                                                                             -
 -                      DBCSR MESSAGE PASSING PERFORMANCE                      -
 -                                                                             -
 -------------------------------------------------------------------------------
 ROUTINE             CALLS      AVE VOLUME [Bytes]
 MP_Bcast                1                     12.
 MP_Allreduce           19                     21.
 MP_Alltoall       1268140                    743.
 -------------------------------------------------------------------------------

 -------------------------------------------------------------------------------
 -                                                                             -
 -                                DBM STATISTICS                               -
 -                                                                             -
 -------------------------------------------------------------------------------
    M  x    N  x    K                                          COUNT     PERCENT
 -------------------------------------------------------------------------------

 -------------------------------------------------------------------------------
 -                                                                             -
 -                                GRID STATISTICS                              -
 -                                                                             -
 -------------------------------------------------------------------------------
 LP    KERNEL             BACKEND                              COUNT     PERCENT
 2     collocate ortho    CPU                                2086800      50.42%
 2     integrate ortho    CPU                                2052020      49.58%
 0     collocate general  CPU                                     16       0.00%
 0     integrate general  CPU                                      8       0.00%
 -------------------------------------------------------------------------------

 MEMORY| Estimated peak process memory [MiB]                                 453

 -------------------------------------------------------------------------------
 ----                             MULTIGRID INFO                            ----
 -------------------------------------------------------------------------------
 count for grid        1:           8292          cutoff [a.u.]          500.00
 count for grid        2:           9356          cutoff [a.u.]          166.67
 count for grid        3:          25300          cutoff [a.u.]           55.56
 count for grid        4:          27380          cutoff [a.u.]           18.52
 total gridlevel count  :          70328

 -------------------------------------------------------------------------------
 -                                                                             -
 -                         MESSAGE PASSING PERFORMANCE                         -
 -                                                                             -
 -------------------------------------------------------------------------------

 ROUTINE             CALLS      AVE VOLUME [Bytes]
 MP_Group                6
 MP_Bcast           548499                  10528.
 MP_Allreduce        97541                     52.
 MP_Sync                 4
 MP_Alltoall          1067                6922080.
 MP_SendRecv          1694                 401760.
 MP_ISendRecv         1659                 398324.
 MP_Wait            377999
 MP_comm_split           4
 MP_ISend           399884                    245.
 MP_IRecv           639104                    156.
 -------------------------------------------------------------------------------


 -------------------------------------------------------------------------------
 -                                                                             -
 -                           R E F E R E N C E S                               -
 -                                                                             -
 -------------------------------------------------------------------------------
 
 CP2K version 2025.1 (Development Version), the CP2K developers group (2025).
 CP2K is freely available from https://www.cp2k.org/ .
 
 T. D. Kuehne, M. Iannuzzi, M. Del Ben, V. V. Rybkin, P. Seewald, F. Stein, T. 
 Laino, R. Z. Khaliullin, O. Schuett, F. Schiffmann, D. Golze, J. Wilhelm, S. 
 Chulkov, M. H. Bani-Hashemian, V. Weber, U. Borstnik, M. Taillefumier, A. S. 
 Jakobovits, A. Lazzaro, H. Pabst, T. Mueller, R. Schade, M. Guidon, S. 
 Andermatt, N. Holmberg, G. K. Schenter, A. Hehn, A. Bussy, F. Belleflamme, G. 
 Tabacchi, A. Gloess, M. Lass, I. Bethune, C. J. Mundy, C. Plessl, M. Watkins, 
 J. VandeVondele, M. Krack, J. Hutter.
 J. Chem. Phys. 152, 194103 (2020).
 CP2K: An electronic structure and molecular dynamics software package - 
 Quickstep: Efficient and accurate electronic structure calculations.
 https://doi.org/10.1063/5.0007045

 O. Schuett, P. Messmer, J. Hutter, J. VandeVondele.
 Electronic Structure Calculations on Graphics Processing Units, 173-190 (2016).
 GPU-Accelerated Sparse Matrix-Matrix Multiplication for Linear Scaling Density 
 Functional Theory.
 https://doi.org/10.1002/9781118670712.ch8

 J. Hutter, M. Iannuzzi, F. Schiffmann, J. VandeVondele.
 WIREs Comput Mol Sci. 4, 15-25 (2014).
 CP2K: atomistic simulations of condensed matter systems.
 https://doi.org/10.1002/wcms.1159

 U. Borstnik, J. VandeVondele, V. Weber, J. Hutter.
 Parallel Comput. 40, 47-58 (2014).
 Sparse matrix multiplication: The distributed block-compressed sparse row 
 library.
 https://doi.org/10.1016/j.parco.2014.03.012

 J. VandeVondele, J. Hutter.
 J. Chem. Phys. 127, 114105 (2007).
 Gaussian basis sets for accurate calculations on molecular systems in gas and 
 condensed phases.
 https://doi.org/10.1063/1.2770708

 J. VandeVondele, M. Krack, F. Mohamed, M. Parrinello, T. Chassaing, J. Hutter.
 Comput. Phys. Commun. 167, 103-128 (2005).
 QUICKSTEP: Fast and accurate density functional calculations using a mixed 
 Gaussian and plane waves approach.
 https://doi.org/10.1016/j.cpc.2004.12.014

 M. Krack.
 Theor. Chem. Acc. 114, 145-152 (2005).
 Pseudopotentials for H to Kr optimized for gradient-corrected 
 exchange-correlation functionals.
 https://doi.org/10.1007/s00214-005-0655-y

 M. Frigo, S. G. Johnson.
 Proc. IEEE 93, 216-231 (2005).
 The design and implementation of FFTW3.
 https://doi.org/10.1109/JPROC.2004.840301

 C. Hartwigsen, S. Goedecker, J. Hutter.
 Phys. Rev. B 58, 3641-3662 (1998).
 Relativistic separable dual-space Gaussian pseudopotentials from H to Rn.
 https://doi.org/10.1103/PhysRevB.58.3641

 G. Lippert, J. Hutter, M. Parrinello.
 Mol. Phys. 92, 477-487 (1997).
 A hybrid Gaussian and plane wave density functional scheme.
 https://doi.org/10.1080/002689797170220

 S. Goedecker, M. Teter, J. Hutter.
 Phys. Rev. B 54, 1703-1710 (1996).
 Separable dual-space Gaussian pseudopotentials.
 https://doi.org/10.1103/PhysRevB.54.1703

 J. P. Perdew, K. Burke, M. Ernzerhof.
 Phys. Rev. Lett. 77, 3865-3868 (1996).
 Generalized gradient approximation made simple.
 https://doi.org/10.1103/PhysRevLett.77.3865


 -------------------------------------------------------------------------------
 -                                                                             -
 -                                T I M I N G                                  -
 -                                                                             -
 -------------------------------------------------------------------------------
 SUBROUTINE                       CALLS  ASD         SELF TIME        TOTAL TIME
                                MAXIMUM       AVERAGE  MAXIMUM  AVERAGE  MAXIMUM
 CP2K                                 1  1.0    0.011    0.015  102.988  102.988
 qs_energies                          1  2.0    0.004    0.018  101.724  101.731
 scf_env_do_scf                       1  3.0    0.000    0.000  100.466  100.466
 scf_env_do_scf_inner_loop           59  4.0    0.030    0.032  100.466  100.466
 do_general_diag_kp                  60  6.0    0.340    0.366   86.619   87.670
 qs_scf_new_mos_kp                   59  5.0    0.000    0.001   85.958   87.012
 dbcsr_complete_redistribute      92845  8.3    3.102    3.316   27.344   30.336
 copy_dbcsr_to_fm                 62637  6.9    0.661    0.738   29.070   29.637
 rskp_transform                   30504  7.0   19.953   22.994   19.953   22.994
 dbcsr_desymmetrize_deep         123645  7.5    1.968    2.088   15.506   22.870
 kpoint_density_transform            59  7.0    0.127    0.136   22.155   22.163
 mp_alltoall_i22                 216490  8.8    7.733   18.424    7.733   18.424
 copy_fm_to_dbcsr                 30208  8.0    0.180    0.189   10.074   13.055
 transform_dmat                   15104  8.0    9.405   10.558    9.405   10.558
 dbcsr_finalize                  225890  8.7    1.068    1.178    7.253    8.018
 qs_ks_update_qs_env                 59  5.0    0.000    0.000    6.924    7.446
 cp_fm_start_copy_general         91216  7.3    1.051    1.639    6.902    7.015
 rebuild_ks_matrix                   59  6.0    0.000    0.000    6.048    6.570
 qs_ks_build_kohn_sham_matrix        59  7.0    0.057    0.058    6.047    6.570
 mp_alltoall_d11v                649470  9.4    5.957    6.284    5.957    6.284
 mp_cart_sub                     125276  8.9    5.160    5.174    5.160    5.174
 dbcsr_merge_all                  92845 10.3    2.549    3.084    3.900    4.500
 qs_rho_update_rho_low               60  5.0    0.000    0.000    4.177    4.188
 calculate_rho_elec                  60  6.0    0.071    0.072    4.176    4.188
 sum_up_and_integrate                59  8.0    0.001    0.001    3.648    4.172
 integrate_v_rspace                  59  9.0    0.047    0.070    3.644    4.169
 hybrid_alltoall_any             123645  8.5    0.471    0.504    3.858    4.084
 mp_alltoall_i11v                402180  9.0    3.877    3.911    3.877    3.911
 grid_integrate_task_list            59 10.0    2.687    3.188    2.687    3.188
 grid_collocate_task_list            60  7.0    2.640    3.017    2.640    3.017
 mp_cart_create                   62644  8.9    2.937    3.006    2.937    3.006
 mp_allgather_i                  182432  8.3    2.678    2.893    2.678    2.893
 mp_bcast_iv                     365028  8.3    2.146    2.442    2.146    2.442
 fft_wrap_pw1pw2                   1067 10.0    0.010    0.012    2.394    2.414
 fft_wrap_pw1pw2_500                710 11.3    0.178    0.179    2.223    2.250
 density_rs2pw                       60  7.0    0.002    0.002    1.459    2.237
 dbcsr_create_new                377627  8.3    1.575    1.717    1.879    2.036
 dbcsr_work_create               216490  8.8    1.341    1.384    1.900    1.957
 fft3d_ps                          1067 12.0    0.853    0.876    1.887    1.911
 transfer_rs2pw                     242  8.0    0.003    0.003    1.040    1.873
 dbcsr_copy                       94825  7.3    0.413    0.448    1.593    1.783
 qs_vxc_create                       59  8.0    0.001    0.001    1.755    1.758
 xc_vxc_pw_create                    59  9.0    0.072    0.072    1.754    1.757
 transfer_rs2pw_500                  62  9.0    0.287    0.292    0.899    1.740
 gspace_mixing                       58  5.0    0.064    0.065    1.630    1.630
 dbcsr_work_destroy_all          216490  9.8    1.015    1.046    1.525    1.556
 dbcsr_iterator_start            683984  9.0    1.304    1.320    1.508    1.529
 mp_sendrecv_dv                    1694 10.0    0.690    1.519    0.690    1.519
 copy_dbcsr_to_fm_bc              62637  7.9    0.605    0.654    1.324    1.363
 copy_fm_to_dbcsr_bc              30208  9.0    0.390    0.413    1.285    1.363
 broyden_mixing                      58  6.0    1.334    1.345    1.356    1.360
 dbcsr_data_new                 2324356  9.7    0.989    1.269    0.989    1.269
 dbcsr_copy_into_existing         30751  9.9    0.897    1.049    1.076    1.231
 xc_pw_derive                       354 11.0    0.001    0.001    1.120    1.127
 create_qs_kind_set                   1  2.0    0.000    0.000    1.101    1.101
 read_qs_kind                         1  3.0    0.661    0.667    1.101    1.101
 write_kpoints_restart               59  5.0    0.006    0.009    1.099    1.099
 dbcsr_data_release             3255630 10.2    1.076    1.092    1.076    1.092
 tree_to_linear_d                 92845 11.3    0.941    1.011    0.941    1.011
 dbcsr_iterator_stop             683984  9.0    0.841    0.846    0.989    0.994
 xc_rho_set_and_dset_create          59 10.0    0.043    0.044    0.952    0.958
 dbcsr_destroy                   313553  8.3    0.513    0.532    0.896    0.945
 mp_alltoall_z22v                  1067 14.0    0.896    0.931    0.896    0.931
 potential_pw2rs                     59 10.0    0.006    0.006    0.910    0.925
 evaluate_core_matrix_traces         59  6.0    0.000    0.000    0.876    0.876
 calculate_ptrace_kp                118  7.0    0.047    0.049    0.875    0.876
 dbcsr_dot                        64075  8.0    0.298    0.316    0.829    0.830
 cp_cfm_geeig                      1925  6.9    0.011    0.012    0.775    0.789
 mp_waitall_1                    377999  8.3    0.431    0.751    0.431    0.751
 mp_bcast_im                     182432  8.3    0.657    0.749    0.657    0.749
 xc_pw_divergence                    59 10.0    0.001    0.001    0.720    0.724
 quick_finalize                  123645  9.5    0.392    0.406    0.677    0.700
 transfer_pw2rs                     237 11.0    0.002    0.002    0.640    0.641
 cp_cfm_heevd                      1925  7.9    0.002    0.002    0.609    0.617
 cp_cfm_heevd_base                 1925  8.9    0.607    0.615    0.607    0.615
 x_to_yz                            590 13.2    0.078    0.081    0.586    0.611
 mp_comm_free                    187957  8.9    0.452    0.507    0.452    0.507
 parser_read_line                144147  4.0    0.048    0.050    0.497    0.500
 self_consistency_check              59  5.0    0.045    0.048    0.483    0.495
 transfer_pw2rs_500                  60 11.9    0.285    0.296    0.476    0.483
 yz_to_x                            477 12.9    0.053    0.064    0.440    0.465
 parser_read_line_low               163  5.2    0.052    0.226    0.449    0.452
 mp_sum_d                         64969  8.9    0.382    0.431    0.382    0.431
 broadcast_input_information        163  6.2    0.106    0.110    0.396    0.426
 cp_sm_mix                        32037  6.0    0.115    0.124    0.394    0.408
 cp_fm_write_unformatted           1629  6.0    0.304    0.336    0.307    0.346
 dbcsr_sort_indices              250855 10.9    0.284    0.346    0.284    0.346
 xc_functional_eval                  59 11.0    0.001    0.001    0.314    0.317
 pbe_lda_eval                        59 12.0    0.313    0.316    0.313    0.316
 qs_energies_init_hamiltonians        1  3.0    0.000    0.000    0.294    0.294
 dbcsr_set                       221422  7.9    0.204    0.211    0.277    0.285
 cp_dbcsr_alloc_block_from_nbl     4157  5.2    0.233    0.260    0.248    0.276
 cp_fm_finish_copy_general        37908  7.8    0.178    0.194    0.226    0.244
 mp_max_d                         32039  7.0    0.205    0.233    0.205    0.233
 dbcsr_iterator_seek             683984 10.0    0.204    0.218    0.204    0.218
 build_core_hamiltonian_matrix        1  4.0    0.002    0.002    0.187    0.213
 kpoint_density_matrices             59  7.0    0.017    0.018    0.209    0.212
 merge_index                      92845 11.3    0.180    0.202    0.180    0.202
 mp_bcast_i_src                     652  7.2    0.167    0.201    0.167    0.201
 dbcsr_make_index_exist          377627  9.3    0.192    0.199    0.192    0.199
 parallel_gemm_fm                  7552  8.0    0.007    0.007    0.189    0.192
 parallel_gemm_fm_gemm             7552  9.0    0.007    0.007    0.182    0.185
 dbcsr_reserve_all_blocks         30208 10.0    0.047    0.053    0.166    0.178
 cp_fm_gemm                        7552 10.0    0.175    0.178    0.175    0.178
 mp_irecv_iv                     364864  8.3    0.022    0.175    0.022    0.175
 pw_scatter_p                       590 12.2    0.172    0.175    0.172    0.175
 init_scf_run                         1  3.0    0.000    0.000    0.132    0.151
 scf_env_initial_rho_setup            1  4.0    0.000    0.000    0.132    0.151
 dbcsr_switch_data_area          123645 10.5    0.111    0.116    0.145    0.151
 mp_isend_dv                      91808  8.3    0.128    0.140    0.128    0.140
 dbcsr_reserve_blocks             34365 10.4    0.101    0.107    0.133    0.139
 pw_poisson_solve                    59  8.0    0.001    0.001    0.135    0.136
 qs_env_update_s_mstruct              1  4.0    0.000    0.000    0.096    0.135
 transfer_pw2rs_170                  59 12.0    0.060    0.064    0.123    0.132
 mp_isendrecv_dv                   1659 13.0    0.052    0.130    0.052    0.130
 mp_bcast_am_src                    163  7.2    0.111    0.116    0.122    0.127
 mp_isend_iv                     205384  8.3    0.032    0.124    0.032    0.124
 transfer_rs2pw_170                  60  9.0    0.048    0.049    0.106    0.113
 fft_wrap_pw1pw2_170                119 10.5    0.008    0.009    0.109    0.113
 cp_fm_cleanup_copy_general       64784  7.0    0.071    0.073    0.109    0.111
 calculate_rho_core                   1  5.0    0.002    0.002    0.051    0.102
 pw_integral_ab_c1d_c1d_gs           59  9.0    0.091    0.093    0.094    0.096
 dbcsr_distribution_new           92847  8.6    0.075    0.089    0.075    0.089
 dbcsr_get_data_size_used        216490  9.8    0.083    0.087    0.083    0.087
 mp_irecv_im2                    182432  8.3    0.011    0.087    0.011    0.087
 cp_cfm_triangular_multiply        5775  7.9    0.081    0.084    0.081    0.084
 pw_gather_p                        477 11.9    0.080    0.083    0.080    0.083
 mixing_allocate                      1  3.0    0.003    0.003    0.073    0.080
 dbcsr_zero                      221422  8.9    0.073    0.075    0.073    0.075
 dbcsr_make_dbcsr_index          250855 10.9    0.072    0.074    0.072    0.074
 kpoint_set_mo_occupation            59  7.0    0.025    0.025    0.051    0.067
 qs_init_subsys                       1  2.0    0.001    0.002    0.062    0.063
 topology_control                     1  2.0    0.000    0.000    0.062    0.062
 pw_copy_from_array                 590 12.2    0.042    0.061    0.042    0.061
 qs_env_setup                         1  3.0    0.000    0.000    0.060    0.060
 qs_env_rebuild_pw_env                2  3.5    0.000    0.000    0.059    0.060
 pw_env_rebuild                       1  5.0    0.000    0.001    0.059    0.059
 mp_isend_im2                    102692  8.3    0.014    0.057    0.014    0.057
 mp_irecv_dv                      91808  8.3    0.052    0.055    0.052    0.055
 pw_grid_setup                        4  6.0    0.000    0.000    0.052    0.053
 pw_grid_setup_internal               4  7.0    0.001    0.002    0.052    0.053
 build_core_ppnl                      1  5.0    0.036    0.052    0.036    0.052
 pw_copy                            885 10.5    0.046    0.048    0.046    0.048
 dbcsr_data_copy_aa2              92845 11.3    0.045    0.047    0.045    0.047
 pw_derive                          531 11.3    0.043    0.045    0.043    0.045
 read_cell_cif                        2  4.5    0.002    0.005    0.043    0.043
 build_overlap_matrix_low             1  5.0    0.005    0.005    0.039    0.043
 mp_sum_dm3                          59  8.0    0.027    0.042    0.027    0.042
 build_kinetic_matrix_low             1  5.0    0.004    0.005    0.038    0.042
 qs_env_rebuild_rho                   1  5.0    0.000    0.000    0.036    0.040
 qs_rho_rebuild                       1  6.0    0.001    0.001    0.036    0.040
 coordinate_control                   1  3.0    0.000    0.001    0.037    0.038
 coordinate_control_READ_COORDI       1  4.0    0.000    0.000    0.037    0.037
 read_coordinate_cif                  1  5.0    0.002    0.002    0.037    0.037
 fft_wrap_pw1pw2_60                 119 10.5    0.002    0.002    0.036    0.037
 scf_post_calculation_gpw             1  3.0    0.000    0.000    0.037    0.037
 write_available_results              1  4.0    0.000    0.000    0.037    0.037
 write_mo_free_results                1  5.0    0.002    0.002    0.037    0.037
 pw_grid_sort                         4  8.0    0.023    0.024    0.035    0.036
 cp_cfm_cholesky_decompose         1925  7.9    0.034    0.035    0.034    0.035
 cp_cfm_triangular_invert          1925  7.9    0.031    0.031    0.031    0.031
 transfer_pw2rs_60                   59 12.0    0.012    0.012    0.028    0.030
 calculate_first_density_matrix       1  5.0    0.000    0.001    0.011    0.030
 mp_bcast_b_src                      60  6.0    0.010    0.029    0.010    0.029
 mp_sum_dv                          354  3.7    0.016    0.029    0.016    0.029
 pw_poisson_set                      60  8.9    0.001    0.001    0.028    0.028
 build_core_ppl                       1  5.0    0.017    0.026    0.017    0.026
 mixing_init                          1  5.0    0.025    0.026    0.026    0.026
 mp_sum_dm                           58  7.0    0.013    0.026    0.013    0.026
 transfer_rs2pw_60                   60  9.0    0.008    0.009    0.023    0.024
 mp_comm_size                     65681  9.0    0.017    0.020    0.017    0.020
 calculate_ecore_overlap              1  4.0    0.000    0.000    0.006    0.019
 pw_axpy                            594  9.3    0.018    0.019    0.018    0.019
 mp_comm_rank                     65681  9.0    0.016    0.018    0.016    0.018
 fft_wrap_pw1pw2_20                 119 10.5    0.001    0.001    0.016    0.017
 hirshfeld_integration                1  6.0    0.008    0.008    0.016    0.016
 calculate_hirshfeld_normalizat       1  6.0    0.007    0.007    0.015    0.016
 restraint_control                    1  2.0    0.000    0.000    0.008    0.015
 mp_sum_i                             4  2.8    0.008    0.015    0.008    0.015
 pw_copy_to_array                   477 11.9    0.014    0.015    0.014    0.015
 mp_sum_iv                           24  5.3    0.004    0.014    0.004    0.014
 qs_scf_ensure_work_matrices          1  3.0    0.000    0.000    0.004    0.014
 pw_zero                            296 10.4    0.011    0.014    0.011    0.014
 transfer_pw2rs_20                   59 12.0    0.005    0.005    0.011    0.013
 cp_cfm_scale_and_add_fm           7700  6.9    0.012    0.012    0.012    0.012
 sort_shells                          4  9.0    0.012    0.012    0.012    0.012
 qs_create_task_list                  1  5.0    0.000    0.000    0.010    0.011
 generate_qs_task_list                1  6.0    0.006    0.007    0.010    0.011
 mp_recv_dv                        4887  7.0    0.001    0.010    0.001    0.010
 cp_cfm_to_cfm_columns             1925  7.9    0.010    0.010    0.010    0.010
 -------------------------------------------------------------------------------

 The number of warnings for this run is : 2
 
 -------------------------------------------------------------------------------
  **** **** ******  **  PROGRAM ENDED AT                 2025-08-20 16:01:23.590
 ***** ** ***  *** **   PROGRAM RAN ON                              i01r10c05s02
 **    ****   ******    PROGRAM RAN BY                                   di38fab
 ***** **    ** ** **   PROGRAM PROCESS ID                               1482820
  **** **  *******  **  PROGRAM STOPPED IN /hppfs/scratch/04/di38fab/09_GTH/Delt
                                           a_Set/P/SZV-MOLOPT-GTH/8x8x8
