Cs                                      
   1.00000000000000     
     6.161530    0.000000    0.000000
     0.000000    6.161530    0.000000
     0.000000    0.000000    6.161530
   Cs
     2
Direct
  0.000000  0.000000  0.000000
  0.500000  0.500000  0.500000
 
   56   56   56
 -287.99     -249.93     -147.19     -9.7464      125.23      226.27      276.75      277.00      240.15      184.93    
  129.22      85.440      55.336      35.641      23.084      15.158      10.179      7.0840      5.1885      4.0444    
  3.3606      2.9523      2.7055      2.5538      2.4623      2.4100      2.3804      2.3633      2.3572      2.3633    
  2.3804      2.4100      2.4623      2.5538      2.7055      2.9523      3.3606      4.0444      5.1885      7.0840    
  10.179      15.158      23.084      35.641      55.336      85.440      129.22      184.93      240.15      277.00    
  276.75      226.27      125.23     -9.7464     -147.19     -249.93     -249.93     -213.82     -116.51      13.285    
  140.00      233.64      278.56      275.41      237.05      181.72      126.70      83.804      54.337      35.048    
  22.736      14.954      10.060      7.0150      5.1493      4.0226      3.3485      2.9456      2.7018      2.5518    
  2.4613      2.4095      2.3802      2.3633      2.3573      2.3633      2.3802      2.4095      2.4613      2.5518    
  2.7018      2.9456      3.3485      4.0226      5.1493      7.0150      10.060      14.954      22.736      35.048    
  54.337      83.804      126.70      181.72      237.05      275.41      278.56      233.64      140.00      13.285    
 -116.51     -213.82     -147.19     -116.51     -34.178      74.556      178.59      252.04      281.91      269.68    
  227.53      172.22      119.39      79.100      51.464      33.340      21.731      14.362      9.7139      6.8147    
  5.0353      3.9589      3.3132      2.9259      2.6907      2.5460      2.4586      2.4083      2.3797      2.3632    
  2.3574      2.3632      2.3797      2.4083      2.4586      2.5460      2.6907      2.9259      3.3132      3.9589    
  5.0353      6.8147      9.7139      14.362      21.731      33.340      51.464      79.100      119.39      172.22    
  227.53      269.68      281.91      252.04      178.59      74.556     -34.178     -116.51     -9.7464      13.285    
  74.556      153.79      226.27      271.97      281.55      257.59      211.21      156.97      108.14      71.901    
  47.062      30.713      20.176      13.443      9.1739      6.5015      4.8568      3.8588      3.2574      2.8946    
  2.6733      2.5368      2.4542      2.4064      2.3790      2.3632      2.3577      2.3632      2.3790      2.4064    
  2.4542      2.5368      2.6733      2.8946      3.2574      3.8588      4.8568      6.5015      9.1739      13.443    
  20.176      30.713      47.062      71.901      108.14      156.97      211.21      257.59      281.55      271.97    
  226.27      153.79      74.556      13.285      125.23      140.00      178.59      226.27      265.45      282.41    
  271.78      237.12      188.24      137.16      94.247      63.035      41.625      27.447      18.226      12.283    
  8.4890      6.1029      4.6288      3.7303      3.1855      2.8541      2.6506      2.5249      2.4486      2.4041    
  2.3782      2.3634      2.3583      2.3634      2.3782      2.4041      2.4486      2.5249      2.6506      2.8541    
  3.1855      3.7303      4.6288      6.1029      8.4890      12.283      18.226      27.447      41.625      63.035    
  94.247      137.16      188.24      237.12      271.78      282.41      265.45      226.27      178.59      140.00    
  226.27      233.64      252.04      271.97      282.41      275.47      249.23      207.96      160.01      114.81    
  79.164      53.421      35.697      23.851      16.058      10.982      7.7163      5.6513      4.3695      3.5833    
  3.1025      2.8071      2.6243      2.5111      2.4423      2.4016      2.3776      2.3639      2.3592      2.3639    
  2.3776      2.4016      2.4423      2.5111      2.6243      2.8071      3.1025      3.5833      4.3695      5.6513    
  7.7163      10.982      16.058      23.851      35.697      53.421      79.164      114.81      160.01      207.96    
  249.23      275.47      282.41      271.97      252.04      233.64      276.75      278.56      281.91      281.55    
  271.78      249.23      214.56      172.31      129.34      92.468      64.269      43.905      29.778      20.216    
  13.840      9.6384      6.9130      5.1796      4.0970      3.4276      3.0137      2.7565      2.5960      2.4963    
  2.4355      2.3990      2.3770      2.3645      2.3603      2.3645      2.3770      2.3990      2.4355      2.4963    
  2.5960      2.7565      3.0137      3.4276      4.0970      5.1796      6.9130      9.6384      13.840      20.216    
  29.778      43.905      64.269      92.468      129.34      172.31      214.56      249.23      271.78      281.55    
  281.91      278.56      277.00      275.41      269.68      257.59      237.12      207.96      172.31      134.55    
  100.02      71.985      50.636      35.137      24.254      16.774      11.711      8.3366      6.1298      4.7171    
  3.8280      3.2723      2.9243      2.7052      2.5673      2.4813      2.4286      2.3964      2.3766      2.3653    
  2.3615      2.3653      2.3766      2.3964      2.4286      2.4813      2.5673      2.7052      2.9243      3.2723    
  3.8280      4.7171      6.1298      8.3366      11.711      16.774      24.254      35.137      50.636      71.985    
  100.02      134.55      172.31      207.96      237.12      257.59      269.68      275.41      240.15      237.05    
  227.53      211.21      188.24      160.01      129.34      100.02      74.786      54.453      38.915      27.510    
  19.372      13.683      9.7746      7.1414      5.4061      4.2868      3.5752      3.1247      2.8382      2.6555    
  2.5395      2.4669      2.4219      2.3939      2.3763      2.3661      2.3627      2.3661      2.3763      2.3939    
  2.4219      2.4669      2.5395      2.6555      2.8382      3.1247      3.5752      4.2868      5.4061      7.1414    
  9.7746      13.683      19.372      27.510      38.915      54.453      74.786      100.02      129.34      160.01    
  188.24      211.21      227.53      237.05      184.93      181.72      172.22      156.97      137.16      114.81    
  92.468      71.985      54.453      40.282      29.339      21.177      15.246      11.028      8.0919      6.0944    
  4.7676      3.9038      3.3476      2.9899      2.7587      2.6094      2.5138      2.4534      2.4155      2.3914    
  2.3759      2.3669      2.3639      2.3669      2.3759      2.3914      2.4155      2.4534      2.5138      2.6094    
  2.7587      2.9899      3.3476      3.9038      4.7676      6.0944      8.0919      11.028      15.246      21.177    
  29.339      40.282      54.453      71.985      92.468      114.81      137.16      156.97      172.22      181.72    
  129.22      126.70      119.39      108.14      94.247      79.164      64.269      50.636      38.915      29.339    
  21.825      16.115      11.889      8.8379      6.6892      5.2148      4.2267      3.5756      3.1497      2.8709    
  2.6878      2.5681      2.4907      2.4413      2.4097      2.3891      2.3757      2.3678      2.3652      2.3678    
  2.3757      2.3891      2.4097      2.4413      2.4907      2.5681      2.6878      2.8709      3.1497      3.5756    
  4.2267      5.2148      6.6892      8.8379      11.889      16.115      21.825      29.339      38.915      50.636    
  64.269      79.164      94.247      108.14      119.39      126.70      85.440      83.804      79.100      71.901    
  63.035      53.421      43.905      35.137      27.510      21.177      16.115      12.197      9.2496      7.0950    
  5.5635      4.5030      3.7842      3.3032      2.9827      2.7689      2.6265      2.5322      2.4706      2.4305    
  2.4043      2.3868      2.3754      2.3687      2.3665      2.3687      2.3754      2.3868      2.4043      2.4305    
  2.4706      2.5322      2.6265      2.7689      2.9827      3.3032      3.7842      4.5030      5.5635      7.0950    
  9.2496      12.197      16.115      21.177      27.510      35.137      43.905      53.421      63.035      71.901    
  79.100      83.804      55.336      54.337      51.464      47.062      41.625      35.697      29.778      24.254    
  19.372      15.246      11.889      9.2496      7.2394      5.7552      4.6905      3.9452      3.4325      3.0829    
  2.8452      2.6838      2.5749      2.5019      2.4534      2.4211      2.3993      2.3846      2.3750      2.3695    
  2.3677      2.3695      2.3750      2.3846      2.3993      2.4211      2.4534      2.5019      2.5749      2.6838    
  2.8452      3.0829      3.4325      3.9452      4.6905      5.7552      7.2394      9.2496      11.889      15.246    
  19.372      24.254      29.778      35.697      41.625      47.062      51.464      54.337      35.641      35.048    
  33.340      30.713      27.447      23.851      20.216      16.774      13.683      11.028      8.8379      7.0950    
  5.7552      4.7570      4.0334      3.5194      3.1591      2.9081      2.7342      2.6143      2.5324      2.4768    
  2.4389      2.4128      2.3946      2.3822      2.3743      2.3699      2.3685      2.3699      2.3743      2.3822    
  2.3946      2.4128      2.4389      2.4768      2.5324      2.6143      2.7342      2.9081      3.1591      3.5194    
  4.0334      4.7570      5.7552      7.0950      8.8379      11.028      13.683      16.774      20.216      23.851    
  27.447      30.713      33.340      35.048      23.084      22.736      21.731      20.176      18.226      16.058    
  13.840      11.711      9.7746      8.0919      6.6892      5.5635      4.6905      4.0334      3.5501      3.2005    
  2.9500      2.7718      2.6463      2.5587      2.4982      2.4561      2.4265      2.4053      2.3902      2.3798    
  2.3733      2.3699      2.3689      2.3699      2.3733      2.3798      2.3902      2.4053      2.4265      2.4561    
  2.4982      2.5587      2.6463      2.7718      2.9500      3.2005      3.5501      4.0334      4.6905      5.5635    
  6.6892      8.0919      9.7746      11.711      13.840      16.058      18.226      20.176      21.731      22.736    
  15.158      14.954      14.362      13.443      12.283      10.982      9.6384      8.3366      7.1414      6.0944    
  5.2148      4.5030      3.9452      3.5194      3.2005      2.9646      2.7920      2.6671      2.5779      2.5149    
  2.4707      2.4391      2.4159      2.3986      2.3860      2.3773      2.3720      2.3693      2.3685      2.3693    
  2.3720      2.3773      2.3860      2.3986      2.4159      2.4391      2.4707      2.5149      2.5779      2.6671    
  2.7920      2.9646      3.2005      3.5194      3.9452      4.5030      5.2148      6.0944      7.1414      8.3366    
  9.6384      10.982      12.283      13.443      14.362      14.954      10.179      10.060      9.7139      9.1739    
  8.4890      7.7163      6.9130      6.1298      5.4061      4.7676      4.2267      3.7842      3.4325      3.1591    
  2.9500      2.7920      2.6743      2.5879      2.5255      2.4808      2.4486      2.4248      2.4066      2.3925    
  2.3820      2.3748      2.3705      2.3683      2.3677      2.3683      2.3705      2.3748      2.3820      2.3925    
  2.4066      2.4248      2.4486      2.4808      2.5255      2.5879      2.6743      2.7920      2.9500      3.1591    
  3.4325      3.7842      4.2267      4.7676      5.4061      6.1298      6.9130      7.7163      8.4890      9.1739    
  9.7139      10.060      7.0840      7.0150      6.8147      6.5015      6.1029      5.6513      5.1796      4.7171    
  4.2868      3.9038      3.5756      3.3032      3.0829      2.9081      2.7718      2.6671      2.5879      2.5290    
  2.4858      2.4543      2.4307      2.4127      2.3983      2.3870      2.3785      2.3725      2.3689      2.3671    
  2.3665      2.3671      2.3689      2.3725      2.3785      2.3870      2.3983      2.4127      2.4307      2.4543    
  2.4858      2.5290      2.5879      2.6671      2.7718      2.9081      3.0829      3.3032      3.5756      3.9038    
  4.2868      4.7171      5.1796      5.6513      6.1029      6.5015      6.8147      7.0150      5.1885      5.1493    
  5.0353      4.8568      4.6288      4.3695      4.0970      3.8280      3.5752      3.3476      3.1497      2.9827    
  2.8452      2.7342      2.6463      2.5779      2.5255      2.4858      2.4561      2.4335      2.4161      2.4022    
  2.3910      2.3821      2.3753      2.3705      2.3674      2.3657      2.3652      2.3657      2.3674      2.3705    
  2.3753      2.3821      2.3910      2.4022      2.4161      2.4335      2.4561      2.4858      2.5255      2.5779    
  2.6463      2.7342      2.8452      2.9827      3.1497      3.3476      3.5752      3.8280      4.0970      4.3695    
  4.6288      4.8568      5.0353      5.1493      4.0444      4.0226      3.9589      3.8588      3.7303      3.5833    
  3.4276      3.2723      3.1247      2.9899      2.8709      2.7689      2.6838      2.6143      2.5587      2.5149    
  2.4808      2.4543      2.4335      2.4171      2.4039      2.3933      2.3847      2.3779      2.3726      2.3687    
  2.3660      2.3644      2.3639      2.3644      2.3660      2.3687      2.3726      2.3779      2.3847      2.3933    
  2.4039      2.4171      2.4335      2.4543      2.4808      2.5149      2.5587      2.6143      2.6838      2.7689    
  2.8709      2.9899      3.1247      3.2723      3.4276      3.5833      3.7303      3.8588      3.9589      4.0226    
  3.3606      3.3485      3.3132      3.2574      3.1855      3.1025      3.0137      2.9243      2.8382      2.7587    
  2.6878      2.6265      2.5749      2.5324      2.4982      2.4707      2.4486      2.4307      2.4161      2.4039    
  2.3939      2.3858      2.3793      2.3742      2.3702      2.3670      2.3647      2.3632      2.3627      2.3632    
  2.3647      2.3670      2.3702      2.3742      2.3793      2.3858      2.3939      2.4039      2.4161      2.4307    
  2.4486      2.4707      2.4982      2.5324      2.5749      2.6265      2.6878      2.7587      2.8382      2.9243    
  3.0137      3.1025      3.1855      3.2574      3.3132      3.3485      2.9523      2.9456      2.9259      2.8946    
  2.8541      2.8071      2.7565      2.7052      2.6555      2.6094      2.5681      2.5322      2.5019      2.4768    
  2.4561      2.4391      2.4248      2.4127      2.4022      2.3933      2.3858      2.3797      2.3749      2.3711    
  2.3679      2.3653      2.3633      2.3619      2.3615      2.3619      2.3633      2.3653      2.3679      2.3711    
  2.3749      2.3797      2.3858      2.3933      2.4022      2.4127      2.4248      2.4391      2.4561      2.4768    
  2.5019      2.5322      2.5681      2.6094      2.6555      2.7052      2.7565      2.8071      2.8541      2.8946    
  2.9259      2.9456      2.7055      2.7018      2.6907      2.6733      2.6506      2.6243      2.5960      2.5673    
  2.5395      2.5138      2.4907      2.4706      2.4534      2.4389      2.4265      2.4159      2.4066      2.3983    
  2.3910      2.3847      2.3793      2.3749      2.3713      2.3684      2.3658      2.3636      2.3619      2.3607    
  2.3603      2.3607      2.3619      2.3636      2.3658      2.3684      2.3713      2.3749      2.3793      2.3847    
  2.3910      2.3983      2.4066      2.4159      2.4265      2.4389      2.4534      2.4706      2.4907      2.5138    
  2.5395      2.5673      2.5960      2.6243      2.6506      2.6733      2.6907      2.7018      2.5538      2.5518    
  2.5460      2.5368      2.5249      2.5111      2.4963      2.4813      2.4669      2.4534      2.4413      2.4305    
  2.4211      2.4128      2.4053      2.3986      2.3925      2.3870      2.3821      2.3779      2.3742      2.3711    
  2.3684      2.3660      2.3638      2.3620      2.3605      2.3595      2.3592      2.3595      2.3605      2.3620    
  2.3638      2.3660      2.3684      2.3711      2.3742      2.3779      2.3821      2.3870      2.3925      2.3986    
  2.4053      2.4128      2.4211      2.4305      2.4413      2.4534      2.4669      2.4813      2.4963      2.5111    
  2.5249      2.5368      2.5460      2.5518      2.4623      2.4613      2.4586      2.4542      2.4486      2.4423    
  2.4355      2.4286      2.4219      2.4155      2.4097      2.4043      2.3993      2.3946      2.3902      2.3860    
  2.3820      2.3785      2.3753      2.3726      2.3702      2.3679      2.3658      2.3638      2.3620      2.3605    
  2.3593      2.3586      2.3583      2.3586      2.3593      2.3605      2.3620      2.3638      2.3658      2.3679    
  2.3702      2.3726      2.3753      2.3785      2.3820      2.3860      2.3902      2.3946      2.3993      2.4043    
  2.4097      2.4155      2.4219      2.4286      2.4355      2.4423      2.4486      2.4542      2.4586      2.4613    
  2.4100      2.4095      2.4083      2.4064      2.4041      2.4016      2.3990      2.3964      2.3939      2.3914    
  2.3891      2.3868      2.3846      2.3822      2.3798      2.3773      2.3748      2.3725      2.3705      2.3687    
  2.3670      2.3653      2.3636      2.3620      2.3605      2.3592      2.3584      2.3579      2.3577      2.3579    
  2.3584      2.3592      2.3605      2.3620      2.3636      2.3653      2.3670      2.3687      2.3705      2.3725    
  2.3748      2.3773      2.3798      2.3822      2.3846      2.3868      2.3891      2.3914      2.3939      2.3964    
  2.3990      2.4016      2.4041      2.4064      2.4083      2.4095      2.3804      2.3802      2.3797      2.3790    
  2.3782      2.3776      2.3770      2.3766      2.3763      2.3759      2.3757      2.3754      2.3750      2.3743    
  2.3733      2.3720      2.3705      2.3689      2.3674      2.3660      2.3647      2.3633      2.3619      2.3605    
  2.3593      2.3584      2.3578      2.3575      2.3574      2.3575      2.3578      2.3584      2.3593      2.3605    
  2.3619      2.3633      2.3647      2.3660      2.3674      2.3689      2.3705      2.3720      2.3733      2.3743    
  2.3750      2.3754      2.3757      2.3759      2.3763      2.3766      2.3770      2.3776      2.3782      2.3790    
  2.3797      2.3802      2.3633      2.3633      2.3632      2.3632      2.3634      2.3639      2.3645      2.3653    
  2.3661      2.3669      2.3678      2.3687      2.3695      2.3699      2.3699      2.3693      2.3683      2.3671    
  2.3657      2.3644      2.3632      2.3619      2.3607      2.3595      2.3586      2.3579      2.3575      2.3573    
  2.3573      2.3573      2.3575      2.3579      2.3586      2.3595      2.3607      2.3619      2.3632      2.3644    
  2.3657      2.3671      2.3683      2.3693      2.3699      2.3699      2.3695      2.3687      2.3678      2.3669    
  2.3661      2.3653      2.3645      2.3639      2.3634      2.3632      2.3632      2.3633      2.3572      2.3573    
  2.3574      2.3577      2.3583      2.3592      2.3603      2.3615      2.3627      2.3639      2.3652      2.3665    
  2.3677      2.3685      2.3689      2.3685      2.3677      2.3665      2.3652      2.3639      2.3627      2.3615    
  2.3603      2.3592      2.3583      2.3577      2.3574      2.3573      2.3572      2.3573      2.3574      2.3577    
  2.3583      2.3592      2.3603      2.3615      2.3627      2.3639      2.3652      2.3665      2.3677      2.3685    
  2.3689      2.3685      2.3677      2.3665      2.3652      2.3639      2.3627      2.3615      2.3603      2.3592    
  2.3583      2.3577      2.3574      2.3573      2.3633      2.3633      2.3632      2.3632      2.3634      2.3639    
  2.3645      2.3653      2.3661      2.3669      2.3678      2.3687      2.3695      2.3699      2.3699      2.3693    
  2.3683      2.3671      2.3657      2.3644      2.3632      2.3619      2.3607      2.3595      2.3586      2.3579    
  2.3575      2.3573      2.3573      2.3573      2.3575      2.3579      2.3586      2.3595      2.3607      2.3619    
  2.3632      2.3644      2.3657      2.3671      2.3683      2.3693      2.3699      2.3699      2.3695      2.3687    
  2.3678      2.3669      2.3661      2.3653      2.3645      2.3639      2.3634      2.3632      2.3632      2.3633    
  2.3804      2.3802      2.3797      2.3790      2.3782      2.3776      2.3770      2.3766      2.3763      2.3759    
  2.3757      2.3754      2.3750      2.3743      2.3733      2.3720      2.3705      2.3689      2.3674      2.3660    
  2.3647      2.3633      2.3619      2.3605      2.3593      2.3584      2.3578      2.3575      2.3574      2.3575    
  2.3578      2.3584      2.3593      2.3605      2.3619      2.3633      2.3647      2.3660      2.3674      2.3689    
  2.3705      2.3720      2.3733      2.3743      2.3750      2.3754      2.3757      2.3759      2.3763      2.3766    
  2.3770      2.3776      2.3782      2.3790      2.3797      2.3802      2.4100      2.4095      2.4083      2.4064    
  2.4041      2.4016      2.3990      2.3964      2.3939      2.3914      2.3891      2.3868      2.3846      2.3822    
  2.3798      2.3773      2.3748      2.3725      2.3705      2.3687      2.3670      2.3653      2.3636      2.3620    
  2.3605      2.3592      2.3584      2.3579      2.3577      2.3579      2.3584      2.3592      2.3605      2.3620    
  2.3636      2.3653      2.3670      2.3687      2.3705      2.3725      2.3748      2.3773      2.3798      2.3822    
  2.3846      2.3868      2.3891      2.3914      2.3939      2.3964      2.3990      2.4016      2.4041      2.4064    
  2.4083      2.4095      2.4623      2.4613      2.4586      2.4542      2.4486      2.4423      2.4355      2.4286    
  2.4219      2.4155      2.4097      2.4043      2.3993      2.3946      2.3902      2.3860      2.3820      2.3785    
  2.3753      2.3726      2.3702      2.3679      2.3658      2.3638      2.3620      2.3605      2.3593      2.3586    
  2.3583      2.3586      2.3593      2.3605      2.3620      2.3638      2.3658      2.3679      2.3702      2.3726    
  2.3753      2.3785      2.3820      2.3860      2.3902      2.3946      2.3993      2.4043      2.4097      2.4155    
  2.4219      2.4286      2.4355      2.4423      2.4486      2.4542      2.4586      2.4613      2.5538      2.5518    
  2.5460      2.5368      2.5249      2.5111      2.4963      2.4813      2.4669      2.4534      2.4413      2.4305    
  2.4211      2.4128      2.4053      2.3986      2.3925      2.3870      2.3821      2.3779      2.3742      2.3711    
  2.3684      2.3660      2.3638      2.3620      2.3605      2.3595      2.3592      2.3595      2.3605      2.3620    
  2.3638      2.3660      2.3684      2.3711      2.3742      2.3779      2.3821      2.3870      2.3925      2.3986    
  2.4053      2.4128      2.4211      2.4305      2.4413      2.4534      2.4669      2.4813      2.4963      2.5111    
  2.5249      2.5368      2.5460      2.5518      2.7055      2.7018      2.6907      2.6733      2.6506      2.6243    
  2.5960      2.5673      2.5395      2.5138      2.4907      2.4706      2.4534      2.4389      2.4265      2.4159    
  2.4066      2.3983      2.3910      2.3847      2.3793      2.3749      2.3713      2.3684      2.3658      2.3636    
  2.3619      2.3607      2.3603      2.3607      2.3619      2.3636      2.3658      2.3684      2.3713      2.3749    
  2.3793      2.3847      2.3910      2.3983      2.4066      2.4159      2.4265      2.4389      2.4534      2.4706    
  2.4907      2.5138      2.5395      2.5673      2.5960      2.6243      2.6506      2.6733      2.6907      2.7018    
  2.9523      2.9456      2.9259      2.8946      2.8541      2.8071      2.7565      2.7052      2.6555      2.6094    
  2.5681      2.5322      2.5019      2.4768      2.4561      2.4391      2.4248      2.4127      2.4022      2.3933    
  2.3858      2.3797      2.3749      2.3711      2.3679      2.3653      2.3633      2.3619      2.3615      2.3619    
  2.3633      2.3653      2.3679      2.3711      2.3749      2.3797      2.3858      2.3933      2.4022      2.4127    
  2.4248      2.4391      2.4561      2.4768      2.5019      2.5322      2.5681      2.6094      2.6555      2.7052    
  2.7565      2.8071      2.8541      2.8946      2.9259      2.9456      3.3606      3.3485      3.3132      3.2574    
  3.1855      3.1025      3.0137      2.9243      2.8382      2.7587      2.6878      2.6265      2.5749      2.5324    
  2.4982      2.4707      2.4486      2.4307      2.4161      2.4039      2.3939      2.3858      2.3793      2.3742    
  2.3702      2.3670      2.3647      2.3632      2.3627      2.3632      2.3647      2.3670      2.3702      2.3742    
  2.3793      2.3858      2.3939      2.4039      2.4161      2.4307      2.4486      2.4707      2.4982      2.5324    
  2.5749      2.6265      2.6878      2.7587      2.8382      2.9243      3.0137      3.1025      3.1855      3.2574    
  3.3132      3.3485      4.0444      4.0226      3.9589      3.8588      3.7303      3.5833      3.4276      3.2723    
  3.1247      2.9899      2.8709      2.7689      2.6838      2.6143      2.5587      2.5149      2.4808      2.4543    
  2.4335      2.4171      2.4039      2.3933      2.3847      2.3779      2.3726      2.3687      2.3660      2.3644    
  2.3639      2.3644      2.3660      2.3687      2.3726      2.3779      2.3847      2.3933      2.4039      2.4171    
  2.4335      2.4543      2.4808      2.5149      2.5587      2.6143      2.6838      2.7689      2.8709      2.9899    
  3.1247      3.2723      3.4276      3.5833      3.7303      3.8588      3.9589      4.0226      5.1885      5.1493    
  5.0353      4.8568      4.6288      4.3695      4.0970      3.8280      3.5752      3.3476      3.1497      2.9827    
  2.8452      2.7342      2.6463      2.5779      2.5255      2.4858      2.4561      2.4335      2.4161      2.4022    
  2.3910      2.3821      2.3753      2.3705      2.3674      2.3657      2.3652      2.3657      2.3674      2.3705    
  2.3753      2.3821      2.3910      2.4022      2.4161      2.4335      2.4561      2.4858      2.5255      2.5779    
  2.6463      2.7342      2.8452      2.9827      3.1497      3.3476      3.5752      3.8280      4.0970      4.3695    
  4.6288      4.8568      5.0353      5.1493      7.0840      7.0150      6.8147      6.5015      6.1029      5.6513    
  5.1796      4.7171      4.2868      3.9038      3.5756      3.3032      3.0829      2.9081      2.7718      2.6671    
  2.5879      2.5290      2.4858      2.4543      2.4307      2.4127      2.3983      2.3870      2.3785      2.3725    
  2.3689      2.3671      2.3665      2.3671      2.3689      2.3725      2.3785      2.3870      2.3983      2.4127    
  2.4307      2.4543      2.4858      2.5290      2.5879      2.6671      2.7718      2.9081      3.0829      3.3032    
  3.5756      3.9038      4.2868      4.7171      5.1796      5.6513      6.1029      6.5015      6.8147      7.0150    
  10.179      10.060      9.7139      9.1739      8.4890      7.7163      6.9130      6.1298      5.4061      4.7676    
  4.2267      3.7842      3.4325      3.1591      2.9500      2.7920      2.6743      2.5879      2.5255      2.4808    
  2.4486      2.4248      2.4066      2.3925      2.3820      2.3748      2.3705      2.3683      2.3677      2.3683    
  2.3705      2.3748      2.3820      2.3925      2.4066      2.4248      2.4486      2.4808      2.5255      2.5879    
  2.6743      2.7920      2.9500      3.1591      3.4325      3.7842      4.2267      4.7676      5.4061      6.1298    
  6.9130      7.7163      8.4890      9.1739      9.7139      10.060      15.158      14.954      14.362      13.443    
  12.283      10.982      9.6384      8.3366      7.1414      6.0944      5.2148      4.5030      3.9452      3.5194    
  3.2005      2.9646      2.7920      2.6671      2.5779      2.5149      2.4707      2.4391      2.4159      2.3986    
  2.3860      2.3773      2.3720      2.3693      2.3685      2.3693      2.3720      2.3773      2.3860      2.3986    
  2.4159      2.4391      2.4707      2.5149      2.5779      2.6671      2.7920      2.9646      3.2005      3.5194    
  3.9452      4.5030      5.2148      6.0944      7.1414      8.3366      9.6384      10.982      12.283      13.443    
  14.362      14.954      23.084      22.736      21.731      20.176      18.226      16.058      13.840      11.711    
  9.7746      8.0919      6.6892      5.5635      4.6905      4.0334      3.5501      3.2005      2.9500      2.7718    
  2.6463      2.5587      2.4982      2.4561      2.4265      2.4053      2.3902      2.3798      2.3733      2.3699    
  2.3689      2.3699      2.3733      2.3798      2.3902      2.4053      2.4265      2.4561      2.4982      2.5587    
  2.6463      2.7718      2.9500      3.2005      3.5501      4.0334      4.6905      5.5635      6.6892      8.0919    
  9.7746      11.711      13.840      16.058      18.226      20.176      21.731      22.736      35.641      35.048    
  33.340      30.713      27.447      23.851      20.216      16.774      13.683      11.028      8.8379      7.0950    
  5.7552      4.7570      4.0334      3.5194      3.1591      2.9081      2.7342      2.6143      2.5324      2.4768    
  2.4389      2.4128      2.3946      2.3822      2.3743      2.3699      2.3685      2.3699      2.3743      2.3822    
  2.3946      2.4128      2.4389      2.4768      2.5324      2.6143      2.7342      2.9081      3.1591      3.5194    