Cs                                      
   1.00000000000000     
     6.161530    0.000000    0.000000
     0.000000    6.161530    0.000000
     0.000000    0.000000    6.161530
   Cs
     2
Direct
  0.000000  0.000000  0.000000
  0.500000  0.500000  0.500000
 
   56   56   56
 -.28799270301E+03 -.24992631972E+03 -.14719218451E+03 -.97463541058E+01 0.12522554932E+03
 0.22626594885E+03 0.27674677132E+03 0.27700203972E+03 0.24014524536E+03 0.18492978476E+03
 0.12922456331E+03 0.85439803691E+02 0.55335998061E+02 0.35640702817E+02 0.23084475106E+02
 0.15157597908E+02 0.10179338963E+02 0.70839885652E+01 0.51884518206E+01 0.40444496118E+01
 0.33605933438E+01 0.29523434041E+01 0.27055191321E+01 0.25538422991E+01 0.24622867365E+01
 0.24099779832E+01 0.23803829804E+01 0.23633164694E+01 0.23572493669E+01 0.23633164694E+01
 0.23803829804E+01 0.24099779832E+01 0.24622867365E+01 0.25538422991E+01 0.27055191321E+01
 0.29523434041E+01 0.33605933438E+01 0.40444496118E+01 0.51884518206E+01 0.70839885652E+01
 0.10179338963E+02 0.15157597908E+02 0.23084475106E+02 0.35640702817E+02 0.55335998061E+02
 0.85439803691E+02 0.12922456331E+03 0.18492978476E+03 0.24014524536E+03 0.27700203972E+03
 0.27674677132E+03 0.22626594885E+03 0.12522554932E+03 -.97463541058E+01 -.14719218451E+03
 -.24992631972E+03 -.24992631972E+03 -.21382302244E+03 -.11651343212E+03 0.13285456666E+02
 0.13999613439E+03 0.23364276655E+03 0.27856461367E+03 0.27540684789E+03 0.23704934747E+03
 0.18171704832E+03 0.12669656826E+03 0.83803690337E+02 0.54337002517E+02 0.35048081172E+02
 0.22736464299E+02 0.14953500332E+02 0.10060059882E+02 0.70150442991E+01 0.51492783676E+01
 0.40225829947E+01 0.33484938239E+01 0.29456007232E+01 0.27017575649E+01 0.25518499381E+01
 0.24613323337E+01 0.24095414861E+01 0.23801880394E+01 0.23632761327E+01 0.23572764717E+01
 0.23632761327E+01 0.23801880394E+01 0.24095414861E+01 0.24613323337E+01 0.25518499381E+01
 0.27017575649E+01 0.29456007232E+01 0.33484938239E+01 0.40225829947E+01 0.51492783676E+01
 0.70150442991E+01 0.10060059882E+02 0.14953500332E+02 0.22736464299E+02 0.35048081172E+02
 0.54337002517E+02 0.83803690337E+02 0.12669656826E+03 0.18171704832E+03 0.23704934747E+03
 0.27540684789E+03 0.27856461367E+03 0.23364276655E+03 0.13999613439E+03 0.13285456666E+02
 -.11651343212E+03 -.21382302244E+03 -.14719218451E+03 -.11651343212E+03 -.34178121288E+02
 0.74555794506E+02 0.17858596855E+03 0.25203974488E+03 0.28191227304E+03 0.26967639416E+03
 0.22753293777E+03 0.17221851753E+03 0.11938812083E+03 0.79099960386E+02 0.51463950124E+02
 0.33340423479E+02 0.21730961220E+02 0.14362303315E+02 0.97139076640E+01 0.68147192863E+01
 0.50353320368E+01 0.39588812946E+01 0.33131711482E+01 0.29258789074E+01 0.26907494441E+01
 0.25460270245E+01 0.24585576803E+01 0.24082967433E+01 0.23796618832E+01 0.23632049876E+01
 0.23574015745E+01 0.23632049876E+01 0.23796618832E+01 0.24082967433E+01 0.24585576803E+01
 0.25460270245E+01 0.26907494441E+01 0.29258789074E+01 0.33131711482E+01 0.39588812946E+01
 0.50353320368E+01 0.68147192863E+01 0.97139076640E+01 0.14362303315E+02 0.21730961220E+02
 0.33340423479E+02 0.51463950124E+02 0.79099960386E+02 0.11938812083E+03 0.17221851753E+03
 0.22753293777E+03 0.26967639416E+03 0.28191227304E+03 0.25203974488E+03 0.17858596855E+03
 0.74555794506E+02 -.34178121288E+02 -.11651343212E+03 -.97463541058E+01 0.13285456666E+02
 0.74555794506E+02 0.15378544964E+03 0.22627483836E+03 0.27196594267E+03 0.28155364927E+03
 0.25758694201E+03 0.21120924426E+03 0.15696985955E+03 0.10814123192E+03 0.71901469488E+02
 0.47061947910E+02 0.30713222030E+02 0.20175675000E+02 0.13443334137E+02 0.91739282704E+01
 0.65014857696E+01 0.48567794312E+01 0.38587571376E+01 0.32574214292E+01 0.28946386638E+01
 0.26732962619E+01 0.25368173064E+01 0.24542097701E+01 0.24064140064E+01 0.23789507316E+01
 0.23632204857E+01 0.23577237481E+01 0.23632204857E+01 0.23789507316E+01 0.24064140064E+01
 0.24542097701E+01 0.25368173064E+01 0.26732962619E+01 0.28946386638E+01 0.32574214292E+01
 0.38587571376E+01 0.48567794312E+01 0.65014857696E+01 0.91739282704E+01 0.13443334137E+02
 0.20175675000E+02 0.30713222030E+02 0.47061947910E+02 0.71901469488E+02 0.10814123192E+03
 0.15696985955E+03 0.21120924426E+03 0.25758694201E+03 0.28155364927E+03 0.27196594267E+03
 0.22627483836E+03 0.15378544964E+03 0.74555794506E+02 0.13285456666E+02 0.12522554932E+03
 0.13999613439E+03 0.17858596855E+03 0.22627483836E+03 0.26545230508E+03 0.28240991242E+03
 0.27177778811E+03 0.23711575371E+03 0.18824082720E+03 0.13715960774E+03 0.94247034977E+02
 0.63035079767E+02 0.41624698021E+02 0.27446538242E+02 0.18226299083E+02 0.12283420033E+02
 0.84890183091E+01 0.61028637831E+01 0.46288244246E+01 0.37303415122E+01 0.31854837426E+01
 0.28541241359E+01 0.26506389899E+01 0.25248994623E+01 0.24486446925E+01 0.24041097779E+01
 0.23782174052E+01 0.23634335072E+01 0.23583240918E+01 0.23634335072E+01 0.23782174052E+01
 0.24041097779E+01 0.24486446925E+01 0.25248994623E+01 0.26506389899E+01 0.28541241359E+01
 0.31854837426E+01 0.37303415122E+01 0.46288244246E+01 0.61028637831E+01 0.84890183091E+01
 0.12283420033E+02 0.18226299083E+02 0.27446538242E+02 0.41624698021E+02 0.63035079767E+02
 0.94247034977E+02 0.13715960774E+03 0.18824082720E+03 0.23711575371E+03 0.27177778811E+03
 0.28240991242E+03 0.26545230508E+03 0.22627483836E+03 0.17858596855E+03 0.13999613439E+03
 0.22626594885E+03 0.23364276655E+03 0.25203974488E+03 0.27196594267E+03 0.28240991242E+03
 0.27546725471E+03 0.24923060273E+03 0.20796096186E+03 0.16001006547E+03 0.11481109795E+03
 0.79163722827E+02 0.53420701990E+02 0.35696649992E+02 0.23851052475E+02 0.16058364804E+02
 0.10982381132E+02 0.77162830326E+01 0.56512832235E+01 0.43694676219E+01 0.35833213879E+01
 0.31024757201E+01 0.28070946113E+01 0.26243182691E+01 0.25111026684E+01 0.24422647005E+01
 0.24015832348E+01 0.23775726421E+01 0.23638834749E+01 0.23592052877E+01 0.23638834749E+01
 0.23775726421E+01 0.24015832348E+01 0.24422647005E+01 0.25111026684E+01 0.26243182691E+01
 0.28070946113E+01 0.31024757201E+01 0.35833213879E+01 0.43694676220E+01 0.56512832235E+01
 0.77162830326E+01 0.10982381132E+02 0.16058364804E+02 0.23851052475E+02 0.35696649992E+02
 0.53420701990E+02 0.79163722827E+02 0.11481109795E+03 0.16001006547E+03 0.20796096186E+03
 0.24923060273E+03 0.27546725471E+03 0.28240991242E+03 0.27196594267E+03 0.25203974488E+03
 0.23364276655E+03 0.27674677132E+03 0.27856461367E+03 0.28191227304E+03 0.28155364927E+03
 0.27177778811E+03 0.24923060273E+03 0.21456372376E+03 0.17231177781E+03 0.12933678623E+03
 0.92468162582E+02 0.64268893553E+02 0.43905357148E+02 0.29777510437E+02 0.20216366715E+02
 0.13839929341E+02 0.96384377492E+01 0.69130125893E+01 0.51795976338E+01 0.40970358540E+01
 0.34276422840E+01 0.30137464488E+01 0.27564989663E+01 0.25959957935E+01 0.24963048513E+01
 0.24354611352E+01 0.23989787968E+01 0.23770484013E+01 0.23645264570E+01 0.23602882938E+01
 0.23645264570E+01 0.23770484013E+01 0.23989787968E+01 0.24354611352E+01 0.24963048513E+01
 0.25959957935E+01 0.27564989663E+01 0.30137464488E+01 0.34276422840E+01 0.40970358540E+01
 0.51795976338E+01 0.69130125893E+01 0.96384377492E+01 0.13839929341E+02 0.20216366715E+02
 0.29777510437E+02 0.43905357148E+02 0.64268893553E+02 0.92468162582E+02 0.12933678623E+03
 0.17231177781E+03 0.21456372376E+03 0.24923060273E+03 0.27177778811E+03 0.28155364927E+03
 0.28191227304E+03 0.27856461367E+03 0.27700203972E+03 0.27540684789E+03 0.26967639416E+03
 0.25758694201E+03 0.23711575371E+03 0.20796096186E+03 0.17231177781E+03 0.13454739725E+03
 0.10002199793E+03 0.71985130130E+02 0.50636174550E+02 0.35137290035E+02 0.24254094692E+02
 0.16774334984E+02 0.11711325673E+02 0.83365750756E+01 0.61298453059E+01 0.47171131843E+01
 0.38279676383E+01 0.32723375578E+01 0.29242761598E+01 0.27051538266E+01 0.25672678046E+01
 0.24813314617E+01 0.24285752183E+01 0.23963852072E+01 0.23766215001E+01 0.23652799081E+01
 0.23614669894E+01 0.23652799081E+01 0.23766215001E+01 0.23963852072E+01 0.24285752183E+01
 0.24813314617E+01 0.25672678046E+01 0.27051538266E+01 0.29242761598E+01 0.32723375578E+01
 0.38279676383E+01 0.47171131843E+01 0.61298453059E+01 0.83365750756E+01 0.11711325673E+02
 0.16774334984E+02 0.24254094692E+02 0.35137290035E+02 0.50636174550E+02 0.71985130130E+02
 0.10002199793E+03 0.13454739725E+03 0.17231177781E+03 0.20796096186E+03 0.23711575371E+03
 0.25758694201E+03 0.26967639416E+03 0.27540684789E+03 0.24014524536E+03 0.23704934747E+03
 0.22753293777E+03 0.21120924426E+03 0.18824082720E+03 0.16001006547E+03 0.12933678623E+03
 0.10002199793E+03 0.74786302100E+02 0.54452934524E+02 0.38915295080E+02 0.27509947007E+02
 0.19372356479E+02 0.13682972480E+02 0.97746348139E+01 0.71413872582E+01 0.54061008696E+01
 0.42867700891E+01 0.35752401179E+01 0.31246968269E+01 0.28382326639E+01 0.26554854518E+01
 0.25395067837E+01 0.24668723952E+01 0.24218763473E+01 0.23938556466E+01 0.23762591526E+01
 0.23660842176E+01 0.23626758999E+01 0.23660842176E+01 0.23762591526E+01 0.23938556466E+01
 0.24218763473E+01 0.24668723952E+01 0.25395067837E+01 0.26554854518E+01 0.28382326639E+01
 0.31246968269E+01 0.35752401179E+01 0.42867700891E+01 0.54061008696E+01 0.71413872582E+01
 0.97746348139E+01 0.13682972480E+02 0.19372356479E+02 0.27509947007E+02 0.38915295080E+02
 0.54452934524E+02 0.74786302100E+02 0.10002199793E+03 0.12933678623E+03 0.16001006547E+03
 0.18824082720E+03 0.21120924426E+03 0.22753293777E+03 0.23704934747E+03 0.18492978476E+03
 0.18171704832E+03 0.17221851753E+03 0.15696985955E+03 0.13715960774E+03 0.11481109795E+03
 0.92468162582E+02 0.71985130130E+02 0.54452934524E+02 0.40281710111E+02 0.29338920396E+02
 0.21177219895E+02 0.15246383438E+02 0.11028461716E+02 0.80919107518E+01 0.60943785945E+01
 0.47675867900E+01 0.39037697429E+01 0.33476248557E+01 0.29898714140E+01 0.27587352388E+01
 0.26093689782E+01 0.25137562256E+01 0.24534279717E+01 0.24155497768E+01 0.23914223310E+01
 0.23759447566E+01 0.23669285757E+01 0.23639143445E+01 0.23669285757E+01 0.23759447566E+01
 0.23914223310E+01 0.24155497768E+01 0.24534279717E+01 0.25137562256E+01 0.26093689782E+01
 0.27587352388E+01 0.29898714140E+01 0.33476248557E+01 0.39037697429E+01 0.47675867900E+01
 0.60943785945E+01 0.80919107518E+01 0.11028461716E+02 0.15246383438E+02 0.21177219895E+02
 0.29338920396E+02 0.40281710111E+02 0.54452934524E+02 0.71985130130E+02 0.92468162582E+02
 0.11481109795E+03 0.13715960774E+03 0.15696985955E+03 0.17221851753E+03 0.18171704832E+03
 0.12922456331E+03 0.12669656826E+03 0.11938812083E+03 0.10814123192E+03 0.94247034977E+02
 0.79163722827E+02 0.64268893553E+02 0.50636174550E+02 0.38915295080E+02 0.29338920396E+02
 0.21825264947E+02 0.16115298856E+02 0.11889407601E+02 0.88378702007E+01 0.66892016716E+01
 0.52148070207E+01 0.42266757278E+01 0.35756066275E+01 0.31497415590E+01 0.28708859749E+01
 0.26878086432E+01 0.25680631553E+01 0.24906835556E+01 0.24412866210E+01 0.24096886488E+01
 0.23890917866E+01 0.23756637792E+01 0.23678184871E+01 0.23652039870E+01 0.23678184871E+01
 0.23756637792E+01 0.23890917866E+01 0.24096886488E+01 0.24412866210E+01 0.24906835556E+01
 0.25680631553E+01 0.26878086432E+01 0.28708859749E+01 0.31497415590E+01 0.35756066275E+01
 0.42266757278E+01 0.52148070207E+01 0.66892016716E+01 0.88378702007E+01 0.11889407601E+02
 0.16115298856E+02 0.21825264947E+02 0.29338920396E+02 0.38915295080E+02 0.50636174550E+02
 0.64268893553E+02 0.79163722827E+02 0.94247034977E+02 0.10814123192E+03 0.11938812083E+03
 0.12669656826E+03 0.85439803691E+02 0.83803690337E+02 0.79099960386E+02 0.71901469488E+02
 0.63035079767E+02 0.53420701990E+02 0.43905357148E+02 0.35137290035E+02 0.27509947007E+02
 0.21177219895E+02 0.16115298856E+02 0.12196612580E+02 0.92496003323E+01 0.70950344237E+01
 0.55634533864E+01 0.45029995865E+01 0.37841880058E+01 0.33032230780E+01 0.29827142591E+01
 0.27689343202E+01 0.26264662043E+01 0.25322161622E+01 0.24705824102E+01 0.24305329732E+01
 0.24042952812E+01 0.23868314003E+01 0.23753675832E+01 0.23687117880E+01 0.23665111720E+01
 0.23687117880E+01 0.23753675832E+01 0.23868314003E+01 0.24042952812E+01 0.24305329732E+01
 0.24705824102E+01 0.25322161622E+01 0.26264662043E+01 0.27689343202E+01 0.29827142591E+01
 0.33032230780E+01 0.37841880058E+01 0.45029995865E+01 0.55634533864E+01 0.70950344237E+01
 0.92496003323E+01 0.12196612580E+02 0.16115298856E+02 0.21177219895E+02 0.27509947007E+02
 0.35137290035E+02 0.43905357148E+02 0.53420701990E+02 0.63035079767E+02 0.71901469488E+02
 0.79099960386E+02 0.83803690337E+02 0.55335998061E+02 0.54337002517E+02 0.51463950124E+02
 0.47061947910E+02 0.41624698021E+02 0.35696649992E+02 0.29777510437E+02 0.24254094692E+02
 0.19372356479E+02 0.15246383438E+02 0.11889407601E+02 0.92496003323E+01 0.72393568898E+01
 0.57551588492E+01 0.46905119743E+01 0.39452424959E+01 0.34324855462E+01 0.30828643434E+01
 0.28451538286E+01 0.26838080193E+01 0.25748565953E+01 0.25019187427E+01 0.24534143047E+01
 0.24210848617E+01 0.23993020269E+01 0.23845713020E+01 0.23749551462E+01 0.23694793358E+01
 0.23676976517E+01 0.23694793358E+01 0.23749551462E+01 0.23845713020E+01 0.23993020269E+01
 0.24210848617E+01 0.24534143047E+01 0.25019187427E+01 0.25748565953E+01 0.26838080193E+01
 0.28451538286E+01 0.30828643434E+01 0.34324855462E+01 0.39452424959E+01 0.46905119743E+01
 0.57551588492E+01 0.72393568898E+01 0.92496003323E+01 0.11889407601E+02 0.15246383438E+02
 0.19372356479E+02 0.24254094692E+02 0.29777510437E+02 0.35696649992E+02 0.41624698021E+02
 0.47061947910E+02 0.51463950124E+02 0.54337002517E+02 0.35640702817E+02 0.35048081172E+02
 0.33340423479E+02 0.30713222030E+02 0.27446538242E+02 0.23851052475E+02 0.20216366715E+02
 0.16774334984E+02 0.13682972480E+02 0.11028461716E+02 0.88378702007E+01 0.70950344237E+01
 0.57551588492E+01 0.47570411616E+01 0.40333904117E+01 0.35194192321E+01 0.31590762051E+01
 0.29081442657E+01 0.27341854691E+01 0.26143319076E+01 0.25324356728E+01 0.24767963940E+01
 0.24388844125E+01 0.24127551552E+01 0.23946147660E+01 0.23822356237E+01 0.23743002555E+01
 0.23699313462E+01 0.23685466403E+01 0.23699313462E+01 0.23743002555E+01 0.23822356237E+01
 0.23946147660E+01 0.24127551552E+01 0.24388844125E+01 0.24767963940E+01 0.25324356728E+01
 0.26143319076E+01 0.27341854691E+01 0.29081442657E+01 0.31590762051E+01 0.35194192321E+01
 0.40333904117E+01 0.47570411616E+01 0.57551588492E+01 0.70950344237E+01 0.88378702007E+01
 0.11028461716E+02 0.13682972480E+02 0.16774334984E+02 0.20216366715E+02 0.23851052475E+02
 0.27446538242E+02 0.30713222030E+02 0.33340423479E+02 0.35048081172E+02 0.23084475106E+02
 0.22736464299E+02 0.21730961220E+02 0.20175675000E+02 0.18226299083E+02 0.16058364804E+02
 0.13839929341E+02 0.11711325673E+02 0.97746348139E+01 0.80919107518E+01 0.66892016716E+01
 0.55634533864E+01 0.46905119743E+01 0.40333904117E+01 0.35501470724E+01 0.32004624381E+01
 0.29499602320E+01 0.27718445443E+01 0.26462949397E+01 0.25587355016E+01 0.24981570476E+01
 0.24561436331E+01 0.24265459095E+01 0.24053263465E+01 0.23901657712E+01 0.23797915127E+01
 0.23733147917E+01 0.23699015898E+01 0.23688569430E+01 0.23699015898E+01 0.23733147917E+01
 0.23797915127E+01 0.23901657712E+01 0.24053263465E+01 0.24265459095E+01 0.24561436331E+01
 0.24981570476E+01 0.25587355016E+01 0.26462949397E+01 0.27718445443E+01 0.29499602320E+01
 0.32004624381E+01 0.35501470724E+01 0.40333904117E+01 0.46905119743E+01 0.55634533864E+01
 0.66892016716E+01 0.80919107518E+01 0.97746348139E+01 0.11711325673E+02 0.13839929341E+02
 0.16058364804E+02 0.18226299083E+02 0.20175675000E+02 0.21730961220E+02 0.22736464299E+02
 0.15157597908E+02 0.14953500332E+02 0.14362303315E+02 0.13443334137E+02 0.12283420033E+02
 0.10982381132E+02 0.96384377492E+01 0.83365750756E+01 0.71413872582E+01 0.60943785945E+01
 0.52148070207E+01 0.45029995865E+01 0.39452424959E+01 0.35194192321E+01 0.32004624381E+01
 0.29646475421E+01 0.27920492467E+01 0.26671031967E+01 0.25778727071E+01 0.25149436409E+01
 0.24706866876E+01 0.24390965918E+01 0.24159190134E+01 0.23986177652E+01 0.23859504497E+01
 0.23772837983E+01 0.23720062018E+01 0.23693362656E+01 0.23685466403E+01 0.23693362656E+01
 0.23720062018E+01 0.23772837983E+01 0.23859504497E+01 0.23986177652E+01 0.24159190134E+01
 0.24390965918E+01 0.24706866876E+01 0.25149436409E+01 0.25778727071E+01 0.26671031967E+01
 0.27920492467E+01 0.29646475421E+01 0.32004624381E+01 0.35194192321E+01 0.39452424959E+01
 0.45029995865E+01 0.52148070207E+01 0.60943785945E+01 0.71413872582E+01 0.83365750756E+01
 0.96384377492E+01 0.10982381132E+02 0.12283420033E+02 0.13443334137E+02 0.14362303315E+02
 0.14953500332E+02 0.10179338963E+02 0.10060059882E+02 0.97139076640E+01 0.91739282704E+01
 0.84890183091E+01 0.77162830326E+01 0.69130125893E+01 0.61298453059E+01 0.54061008696E+01
 0.47675867900E+01 0.42266757278E+01 0.37841880058E+01 0.34324855462E+01 0.31590762051E+01
 0.29499602320E+01 0.27920492467E+01 0.26743270142E+01 0.25878999525E+01 0.25254655780E+01
 0.24808019243E+01 0.24486308880E+01 0.24248182909E+01 0.24066004172E+01 0.23925251688E+01
 0.23820263397E+01 0.23748258060E+01 0.23704850659E+01 0.23683266675E+01 0.23676976517E+01
 0.23683266675E+01 0.23704850659E+01 0.23748258060E+01 0.23820263397E+01 0.23925251688E+01
 0.24066004172E+01 0.24248182909E+01 0.24486308880E+01 0.24808019243E+01 0.25254655780E+01
 0.25878999525E+01 0.26743270142E+01 0.27920492467E+01 0.29499602320E+01 0.31590762051E+01
 0.34324855462E+01 0.37841880058E+01 0.42266757278E+01 0.47675867900E+01 0.54061008696E+01
 0.61298453059E+01 0.69130125893E+01 0.77162830326E+01 0.84890183091E+01 0.91739282704E+01
 0.97139076640E+01 0.10060059882E+02 0.70839885652E+01 0.70150442991E+01 0.68147192863E+01
 0.65014857696E+01 0.61028637831E+01 0.56512832235E+01 0.51795976338E+01 0.47171131843E+01
 0.42867700891E+01 0.39037697429E+01 0.35756066275E+01 0.33032230780E+01 0.30828643434E+01
 0.29081442657E+01 0.27718445443E+01 0.26671031967E+01 0.25878999525E+01 0.25290219750E+01
 0.24858493591E+01 0.24542576308E+01 0.24307412953E+01 0.24126511055E+01 0.23983344112E+01
 0.23870223627E+01 0.23784732495E+01 0.23725440150E+01 0.23689107194E+01 0.23670613144E+01
 0.23665111720E+01 0.23670613144E+01 0.23689107194E+01 0.23725440150E+01 0.23784732495E+01
 0.23870223627E+01 0.23983344112E+01 0.24126511055E+01 0.24307412953E+01 0.24542576308E+01
 0.24858493591E+01 0.25290219750E+01 0.25878999525E+01 0.26671031967E+01 0.27718445443E+01
 0.29081442657E+01 0.30828643434E+01 0.33032230780E+01 0.35756066275E+01 0.39037697429E+01
 0.42867700891E+01 0.47171131843E+01 0.51795976338E+01 0.56512832235E+01 0.61028637831E+01
 0.65014857696E+01 0.68147192863E+01 0.70150442991E+01 0.51884518206E+01 0.51492783676E+01
 0.50353320368E+01 0.48567794312E+01 0.46288244246E+01 0.43694676219E+01 0.40970358540E+01
 0.38279676383E+01 0.35752401179E+01 0.33476248557E+01 0.31497415590E+01 0.29827142591E+01
 0.28451538286E+01 0.27341854691E+01 0.26462949397E+01 0.25778727071E+01 0.25254655780E+01
 0.24858493591E+01 0.24560645547E+01 0.24335040483E+01 0.24160504558E+01 0.24021906537E+01
 0.23910238852E+01 0.23821293877E+01 0.23753378666E+01 0.23705082183E+01 0.23674073459E+01
 0.23657283335E+01 0.23652039870E+01 0.23657283335E+01 0.23674073459E+01 0.23705082183E+01
 0.23753378666E+01 0.23821293877E+01 0.23910238852E+01 0.24021906537E+01 0.24160504558E+01
 0.24335040483E+01 0.24560645547E+01 0.24858493591E+01 0.25254655780E+01 0.25778727071E+01
 0.26462949397E+01 0.27341854691E+01 0.28451538286E+01 0.29827142591E+01 0.31497415590E+01
 0.33476248557E+01 0.35752401179E+01 0.38279676383E+01 0.40970358540E+01 0.43694676219E+01
 0.46288244246E+01 0.48567794312E+01 0.50353320368E+01 0.51492783676E+01 0.40444496118E+01
 0.40225829947E+01 0.39588812946E+01 0.38587571376E+01 0.37303415122E+01 0.35833213879E+01
 0.34276422840E+01 0.32723375578E+01 0.31246968269E+01 0.29898714140E+01 0.28708859749E+01
 0.27689343202E+01 0.26838080193E+01 0.26143319076E+01 0.25587355016E+01 0.25149436409E+01
 0.24808019243E+01 0.24542576308E+01 0.24335040483E+01 0.24170797859E+01 0.24039069097E+01
 0.23932597973E+01 0.23846787467E+01 0.23778648586E+01 0.23725971746E+01 0.23686934137E+01
 0.23660064950E+01 0.23644328432E+01 0.23639143445E+01 0.23644328432E+01 0.23660064950E+01
 0.23686934137E+01 0.23725971746E+01 0.23778648586E+01 0.23846787467E+01 0.23932597973E+01
 0.24039069097E+01 0.24170797859E+01 0.24335040483E+01 0.24542576308E+01 0.24808019243E+01
 0.25149436409E+01 0.25587355016E+01 0.26143319076E+01 0.26838080193E+01 0.27689343202E+01
 0.28708859749E+01 0.29898714140E+01 0.31246968269E+01 0.32723375578E+01 0.34276422840E+01
 0.35833213879E+01 0.37303415122E+01 0.38587571376E+01 0.39588812946E+01 0.40225829947E+01
 0.33605933438E+01 0.33484938239E+01 0.33131711482E+01 0.32574214292E+01 0.31854837426E+01
 0.31024757201E+01 0.30137464488E+01 0.29242761598E+01 0.28382326639E+01 0.27587352388E+01
 0.26878086432E+01 0.26264662043E+01 0.25748565953E+01 0.25324356728E+01 0.24981570476E+01
 0.24706866876E+01 0.24486308880E+01 0.24307412953E+01 0.24160504558E+01 0.24039069097E+01
 0.23939124796E+01 0.23858014627E+01 0.23793259054E+01 0.23742060139E+01 0.23701636819E+01
 0.23670009678E+01 0.23646550242E+01 0.23631817605E+01 0.23626758999E+01 0.23631817605E+01
 0.23646550242E+01 0.23670009678E+01 0.23701636819E+01 0.23742060139E+01 0.23793259054E+01
 0.23858014627E+01 0.23939124796E+01 0.24039069097E+01 0.24160504558E+01 0.24307412953E+01
 0.24486308880E+01 0.24706866876E+01 0.24981570476E+01 0.25324356728E+01 0.25748565953E+01
 0.26264662043E+01 0.26878086432E+01 0.27587352388E+01 0.28382326639E+01 0.29242761598E+01
 0.30137464488E+01 0.31024757201E+01 0.31854837426E+01 0.32574214292E+01 0.33131711482E+01
 0.33484938239E+01 0.29523434041E+01 0.29456007232E+01 0.29258789074E+01 0.28946386638E+01
 0.28541241359E+01 0.28070946113E+01 0.27564989663E+01 0.27051538266E+01 0.26554854518E+01
 0.26093689782E+01 0.25680631553E+01 0.25322161622E+01 0.25019187427E+01 0.24767963940E+01
 0.24561436331E+01 0.24390965918E+01 0.24248182909E+01 0.24126511055E+01 0.24021906537E+01
 0.23932597973E+01 0.23858014627E+01 0.23797463474E+01 0.23749256312E+01 0.23710758179E+01
 0.23679288931E+01 0.23653266626E+01 0.23632812271E+01 0.23619386660E+01 0.23614669894E+01
 0.23619386660E+01 0.23632812271E+01 0.23653266626E+01 0.23679288931E+01 0.23710758179E+01
 0.23749256312E+01 0.23797463474E+01 0.23858014627E+01 0.23932597973E+01 0.24021906537E+01
 0.24126511055E+01 0.24248182909E+01 0.24390965918E+01 0.24561436331E+01 0.24767963940E+01
 0.25019187427E+01 0.25322161622E+01 0.25680631553E+01 0.26093689782E+01 0.26554854518E+01
 0.27051538266E+01 0.27564989663E+01 0.28070946113E+01 0.28541241359E+01 0.28946386638E+01
 0.29258789074E+01 0.29456007232E+01 0.27055191321E+01 0.27017575649E+01 0.26907494441E+01
 0.26732962619E+01 0.26506389899E+01 0.26243182691E+01 0.25959957935E+01 0.25672678046E+01
 0.25395067837E+01 0.25137562256E+01 0.24906835556E+01 0.24705824102E+01 0.24534143047E+01
 0.24388844125E+01 0.24265459095E+01 0.24159190134E+01 0.24066004172E+01 0.23983344112E+01
 0.23910238852E+01 0.23846787467E+01 0.23793259054E+01 0.23749256312E+01 0.23713387017E+01
 0.23683628277E+01 0.23658180477E+01 0.23636315959E+01 0.23618708721E+01 0.23607011484E+01
 0.23602882938E+01 0.23607011484E+01 0.23618708721E+01 0.23636315959E+01 0.23658180477E+01
 0.23683628277E+01 0.23713387017E+01 0.23749256312E+01 0.23793259054E+01 0.23846787467E+01
 0.23910238852E+01 0.23983344112E+01 0.24066004172E+01 0.24159190134E+01 0.24265459095E+01
 0.24388844125E+01 0.24534143047E+01 0.24705824102E+01 0.24906835556E+01 0.25137562256E+01
 0.25395067837E+01 0.25672678046E+01 0.25959957935E+01 0.26243182691E+01 0.26506389899E+01
 0.26732962619E+01 0.26907494441E+01 0.27017575649E+01 0.25538422991E+01 0.25518499381E+01
 0.25460270245E+01 0.25368173064E+01 0.25248994623E+01 0.25111026684E+01 0.24963048513E+01
 0.24813314617E+01 0.24668723952E+01 0.24534279717E+01 0.24412866210E+01 0.24305329732E+01
 0.24210848617E+01 0.24127551552E+01 0.24053263465E+01 0.23986177652E+01 0.23925251688E+01
 0.23870223627E+01 0.23821293877E+01 0.23778648586E+01 0.23742060139E+01 0.23710758179E+01
 0.23683628277E+01 0.23659632440E+01 0.23638246488E+01 0.23619713574E+01 0.23604992855E+01
 0.23595398080E+01 0.23592052877E+01 0.23595398080E+01 0.23604992855E+01 0.23619713574E+01
 0.23638246488E+01 0.23659632440E+01 0.23683628277E+01 0.23710758179E+01 0.23742060139E+01
 0.23778648586E+01 0.23821293877E+01 0.23870223627E+01 0.23925251688E+01 0.23986177652E+01
 0.24053263465E+01 0.24127551552E+01 0.24210848617E+01 0.24305329732E+01 0.24412866210E+01
 0.24534279717E+01 0.24668723952E+01 0.24813314617E+01 0.24963048513E+01 0.25111026684E+01
 0.25248994623E+01 0.25368173064E+01 0.25460270245E+01 0.25518499381E+01 0.24622867365E+01
 0.24613323337E+01 0.24585576803E+01 0.24542097701E+01 0.24486446925E+01 0.24422647005E+01
 0.24354611352E+01 0.24285752183E+01 0.24218763473E+01 0.24155497768E+01 0.24096886488E+01
 0.24042952812E+01 0.23993020269E+01 0.23946147660E+01 0.23901657712E+01 0.23859504497E+01
 0.23820263397E+01 0.23784732495E+01 0.23753378666E+01 0.23725971746E+01 0.23701636819E+01
 0.23679288931E+01 0.23658180477E+01 0.23638246488E+01 0.23620090144E+01 0.23604681308E+01
 0.23592983670E+01 0.23585706406E+01 0.23583240918E+01 0.23585706406E+01 0.23592983670E+01
 0.23604681308E+01 0.23620090144E+01 0.23638246488E+01 0.23658180477E+01 0.23679288931E+01
 0.23701636819E+01 0.23725971746E+01 0.23753378666E+01 0.23784732495E+01 0.23820263397E+01
 0.23859504497E+01 0.23901657712E+01 0.23946147660E+01 0.23993020269E+01 0.24042952812E+01
 0.24096886488E+01 0.24155497768E+01 0.24218763473E+01 0.24285752183E+01 0.24354611352E+01
 0.24422647005E+01 0.24486446925E+01 0.24542097701E+01 0.24585576803E+01 0.24613323337E+01
 0.24099779832E+01 0.24095414861E+01 0.24082967433E+01 0.24064140064E+01 0.24041097779E+01
 0.24015832348E+01 0.23989787968E+01 0.23963852072E+01 0.23938556466E+01 0.23914223310E+01
 0.23890917866E+01 0.23868314003E+01 0.23845713020E+01 0.23822356237E+01 0.23797915127E+01
 0.23772837983E+01 0.23748258060E+01 0.23725440150E+01 0.23705082183E+01 0.23686934137E+01
 0.23670009678E+01 0.23653266626E+01 0.23636315959E+01 0.23619713574E+01 0.23604681308E+01
 0.23592476782E+01 0.23583838432E+01 0.23578847786E+01 0.23577237481E+01 0.23578847786E+01
 0.23583838432E+01 0.23592476782E+01 0.23604681308E+01 0.23619713574E+01 0.23636315959E+01
 0.23653266626E+01 0.23670009678E+01 0.23686934137E+01 0.23705082183E+01 0.23725440150E+01
 0.23748258060E+01 0.23772837983E+01 0.23797915127E+01 0.23822356237E+01 0.23845713020E+01
 0.23868314003E+01 0.23890917866E+01 0.23914223310E+01 0.23938556466E+01 0.23963852072E+01
 0.23989787968E+01 0.24015832348E+01 0.24041097779E+01 0.24064140064E+01 0.24082967433E+01
 0.24095414861E+01 0.23803829804E+01 0.23801880394E+01 0.23796618832E+01 0.23789507316E+01
 0.23782174052E+01 0.23775726421E+01 0.23770484013E+01 0.23766215001E+01 0.23762591526E+01
 0.23759447566E+01 0.23756637792E+01 0.23753675832E+01 0.23749551462E+01 0.23743002555E+01
 0.23733147917E+01 0.23720062018E+01 0.23704850659E+01 0.23689107194E+01 0.23674073459E+01
 0.23660064950E+01 0.23646550242E+01 0.23632812271E+01 0.23618708721E+01 0.23604992855E+01
 0.23592983670E+01 0.23583838432E+01 0.23577953650E+01 0.23574915963E+01 0.23574015745E+01
 0.23574915963E+01 0.23577953650E+01 0.23583838432E+01 0.23592983670E+01 0.23604992855E+01
 0.23618708721E+01 0.23632812271E+01 0.23646550242E+01 0.23660064950E+01 0.23674073459E+01
 0.23689107194E+01 0.23704850659E+01 0.23720062018E+01 0.23733147917E+01 0.23743002555E+01
 0.23749551462E+01 0.23753675832E+01 0.23756637792E+01 0.23759447566E+01 0.23762591526E+01
 0.23766215001E+01 0.23770484013E+01 0.23775726421E+01 0.23782174052E+01 0.23789507316E+01
 0.23796618832E+01 0.23801880394E+01 0.23633164694E+01 0.23632761327E+01 0.23632049876E+01
 0.23632204857E+01 0.23634335072E+01 0.23638834749E+01 0.23645264570E+01 0.23652799081E+01
 0.23660842176E+01 0.23669285757E+01 0.23678184871E+01 0.23687117880E+01 0.23694793358E+01
 0.23699313462E+01 0.23699015898E+01 0.23693362656E+01 0.23683266675E+01 0.23670613144E+01
 0.23657283335E+01 0.23644328432E+01 0.23631817605E+01 0.23619386660E+01 0.23607011484E+01
 0.23595398080E+01 0.23585706406E+01 0.23578847786E+01 0.23574915963E+01 0.23573198124E+01
 0.23572764717E+01 0.23573198124E+01 0.23574915963E+01 0.23578847786E+01 0.23585706406E+01
 0.23595398080E+01 0.23607011484E+01 0.23619386660E+01 0.23631817605E+01 0.23644328432E+01
 0.23657283335E+01 0.23670613144E+01 0.23683266675E+01 0.23693362656E+01 0.23699015898E+01
 0.23699313462E+01 0.23694793358E+01 0.23687117880E+01 0.23678184871E+01 0.23669285757E+01
 0.23660842176E+01 0.23652799081E+01 0.23645264570E+01 0.23638834749E+01 0.23634335072E+01
 0.23632204857E+01 0.23632049876E+01 0.23632761327E+01 0.23572493669E+01 0.23572764717E+01
 0.23574015745E+01 0.23577237481E+01 0.23583240918E+01 0.23592052877E+01 0.23602882938E+01
 0.23614669894E+01 0.23626758999E+01 0.23639143445E+01 0.23652039870E+01 0.23665111720E+01
 0.23676976517E+01 0.23685466403E+01 0.23688569430E+01 0.23685466403E+01 0.23676976517E+01
 0.23665111720E+01 0.23652039870E+01 0.23639143445E+01 0.23626758999E+01 0.23614669894E+01
 0.23602882938E+01 0.23592052877E+01 0.23583240918E+01 0.23577237481E+01 0.23574015745E+01
 0.23572764717E+01 0.23572493669E+01 0.23572764717E+01 0.23574015745E+01 0.23577237481E+01
 0.23583240918E+01 0.23592052877E+01 0.23602882938E+01 0.23614669894E+01 0.23626758999E+01
 0.23639143445E+01 0.23652039870E+01 0.23665111720E+01 0.23676976517E+01 0.23685466403E+01
 0.23688569430E+01 0.23685466403E+01 0.23676976517E+01 0.23665111720E+01 0.23652039870E+01
 0.23639143445E+01 0.23626758999E+01 0.23614669894E+01 0.23602882938E+01 0.23592052877E+01
 0.23583240918E+01 0.23577237481E+01 0.23574015745E+01 0.23572764717E+01 0.23633164694E+01
 0.23632761327E+01 0.23632049876E+01 0.23632204857E+01 0.23634335072E+01 0.23638834749E+01