   2   2   0   0
  0.1169596E+03  0.6161530E-09  0.6161530E-09  0.6161530E-09  0.5000000E-15
  1.000000000000000E-004
  CAR 
 Cs                                      
     17.25734122    -25.31073764  301      0.50248713      1.00000000
    -25.311  0.0000E+00  0.0000E+00
    -25.169  0.0000E+00  0.0000E+00
    -25.027  0.0000E+00  0.0000E+00
    -24.885  0.0000E+00  0.0000E+00
    -24.743  0.0000E+00  0.0000E+00
    -24.601  0.0000E+00  0.0000E+00
    -24.459  0.0000E+00  0.0000E+00
    -24.317  0.0000E+00  0.0000E+00
    -24.176  0.0000E+00  0.0000E+00
    -24.034  0.0000E+00  0.0000E+00
    -23.892  0.0000E+00  0.0000E+00
    -23.750  0.0000E+00  0.0000E+00
    -23.608  0.2465E-09  0.3498E-10
    -23.466  0.9232E-01  0.1310E-01
    -23.324  0.2531E+02  0.3605E+01
    -23.182  0.2786E+01  0.4000E+01
    -23.040  0.1673E-05  0.4000E+01
    -22.899  0.0000E+00  0.4000E+01
    -22.757  0.0000E+00  0.4000E+01
    -22.615  0.0000E+00  0.4000E+01
    -22.473  0.0000E+00  0.4000E+01
    -22.331  0.0000E+00  0.4000E+01
    -22.189  0.0000E+00  0.4000E+01
    -22.047  0.0000E+00  0.4000E+01
    -21.905  0.0000E+00  0.4000E+01
    -21.763  0.0000E+00  0.4000E+01
    -21.622  0.0000E+00  0.4000E+01
    -21.480  0.0000E+00  0.4000E+01
    -21.338  0.0000E+00  0.4000E+01
    -21.196  0.0000E+00  0.4000E+01
    -21.054  0.0000E+00  0.4000E+01
    -20.912  0.0000E+00  0.4000E+01
    -20.770  0.0000E+00  0.4000E+01
    -20.628  0.0000E+00  0.4000E+01
    -20.486  0.0000E+00  0.4000E+01
    -20.344  0.0000E+00  0.4000E+01
    -20.203  0.0000E+00  0.4000E+01
    -20.061  0.0000E+00  0.4000E+01
    -19.919  0.0000E+00  0.4000E+01
    -19.777  0.0000E+00  0.4000E+01
    -19.635  0.0000E+00  0.4000E+01
    -19.493  0.0000E+00  0.4000E+01
    -19.351  0.0000E+00  0.4000E+01
    -19.209  0.0000E+00  0.4000E+01
    -19.067  0.0000E+00  0.4000E+01
    -18.926  0.0000E+00  0.4000E+01
    -18.784  0.0000E+00  0.4000E+01
    -18.642  0.0000E+00  0.4000E+01
    -18.500  0.0000E+00  0.4000E+01
    -18.358  0.0000E+00  0.4000E+01
    -18.216  0.0000E+00  0.4000E+01
    -18.074  0.0000E+00  0.4000E+01
    -17.932  0.0000E+00  0.4000E+01
    -17.790  0.0000E+00  0.4000E+01
    -17.648  0.0000E+00  0.4000E+01
    -17.507  0.0000E+00  0.4000E+01
    -17.365  0.0000E+00  0.4000E+01
    -17.223  0.0000E+00  0.4000E+01
    -17.081  0.0000E+00  0.4000E+01
    -16.939  0.0000E+00  0.4000E+01
    -16.797  0.0000E+00  0.4000E+01
    -16.655  0.0000E+00  0.4000E+01
    -16.513  0.0000E+00  0.4000E+01
    -16.371  0.0000E+00  0.4000E+01
    -16.230  0.0000E+00  0.4000E+01
    -16.088  0.0000E+00  0.4000E+01
    -15.946  0.0000E+00  0.4000E+01
    -15.804  0.0000E+00  0.4000E+01
    -15.662  0.0000E+00  0.4000E+01
    -15.520  0.0000E+00  0.4000E+01
    -15.378  0.0000E+00  0.4000E+01
    -15.236  0.0000E+00  0.4000E+01
    -15.094  0.0000E+00  0.4000E+01
    -14.953  0.0000E+00  0.4000E+01
    -14.811  0.0000E+00  0.4000E+01
    -14.669  0.0000E+00  0.4000E+01
    -14.527  0.0000E+00  0.4000E+01
    -14.385  0.0000E+00  0.4000E+01
    -14.243  0.0000E+00  0.4000E+01
    -14.101  0.0000E+00  0.4000E+01
    -13.959  0.0000E+00  0.4000E+01
    -13.817  0.0000E+00  0.4000E+01
    -13.675  0.0000E+00  0.4000E+01
    -13.534  0.0000E+00  0.4000E+01
    -13.392  0.0000E+00  0.4000E+01
    -13.250  0.0000E+00  0.4000E+01
    -13.108  0.0000E+00  0.4000E+01
    -12.966  0.0000E+00  0.4000E+01
    -12.824  0.0000E+00  0.4000E+01
    -12.682  0.0000E+00  0.4000E+01
    -12.540  0.0000E+00  0.4000E+01
    -12.398  0.0000E+00  0.4000E+01
    -12.257  0.0000E+00  0.4000E+01
    -12.115  0.0000E+00  0.4000E+01
    -11.973  0.0000E+00  0.4000E+01
    -11.831  0.0000E+00  0.4000E+01
    -11.689  0.0000E+00  0.4000E+01
    -11.547  0.0000E+00  0.4000E+01
    -11.405  0.0000E+00  0.4000E+01
    -11.263  0.0000E+00  0.4000E+01
    -11.121  0.0000E+00  0.4000E+01
    -10.979  0.0000E+00  0.4000E+01
    -10.838  0.0000E+00  0.4000E+01
    -10.696  0.0000E+00  0.4000E+01
    -10.554  0.0000E+00  0.4000E+01
    -10.412  0.7600E-05  0.4000E+01
    -10.270  0.3417E+01  0.4485E+01
    -10.128  0.6734E+02  0.1404E+02
     -9.986  0.1382E+02  0.1600E+02
     -9.844  0.3590E-03  0.1600E+02
     -9.702  0.0000E+00  0.1600E+02
     -9.561  0.0000E+00  0.1600E+02
     -9.419  0.0000E+00  0.1600E+02
     -9.277  0.0000E+00  0.1600E+02
     -9.135  0.0000E+00  0.1600E+02
     -8.993  0.0000E+00  0.1600E+02
     -8.851  0.0000E+00  0.1600E+02
     -8.709  0.0000E+00  0.1600E+02
     -8.567  0.0000E+00  0.1600E+02
     -8.425  0.0000E+00  0.1600E+02
     -8.284  0.0000E+00  0.1600E+02
     -8.142  0.0000E+00  0.1600E+02
     -8.000  0.0000E+00  0.1600E+02
     -7.858  0.0000E+00  0.1600E+02
     -7.716  0.0000E+00  0.1600E+02
     -7.574  0.0000E+00  0.1600E+02
     -7.432  0.0000E+00  0.1600E+02
     -7.290  0.0000E+00  0.1600E+02
     -7.148  0.0000E+00  0.1600E+02
     -7.006  0.0000E+00  0.1600E+02
     -6.865  0.0000E+00  0.1600E+02
     -6.723  0.0000E+00  0.1600E+02
     -6.581  0.0000E+00  0.1600E+02
     -6.439  0.0000E+00  0.1600E+02
     -6.297  0.0000E+00  0.1600E+02
     -6.155  0.0000E+00  0.1600E+02
     -6.013  0.0000E+00  0.1600E+02
     -5.871  0.0000E+00  0.1600E+02
     -5.729  0.0000E+00  0.1600E+02
     -5.588  0.0000E+00  0.1600E+02
     -5.446  0.0000E+00  0.1600E+02
     -5.304  0.0000E+00  0.1600E+02
     -5.162  0.0000E+00  0.1600E+02
     -5.020  0.0000E+00  0.1600E+02
     -4.878  0.0000E+00  0.1600E+02
     -4.736  0.0000E+00  0.1600E+02
     -4.594  0.0000E+00  0.1600E+02
     -4.452  0.0000E+00  0.1600E+02
     -4.310  0.0000E+00  0.1600E+02
     -4.169  0.0000E+00  0.1600E+02
     -4.027  0.0000E+00  0.1600E+02
     -3.885  0.0000E+00  0.1600E+02
     -3.743  0.0000E+00  0.1600E+02
     -3.601  0.0000E+00  0.1600E+02
     -3.459  0.0000E+00  0.1600E+02
     -3.317  0.0000E+00  0.1600E+02
     -3.175  0.0000E+00  0.1600E+02
     -3.033  0.0000E+00  0.1600E+02
     -2.892  0.0000E+00  0.1600E+02
     -2.750  0.0000E+00  0.1600E+02
     -2.608  0.0000E+00  0.1600E+02
     -2.466  0.0000E+00  0.1600E+02
     -2.324  0.0000E+00  0.1600E+02
     -2.182  0.0000E+00  0.1600E+02
     -2.040  0.0000E+00  0.1600E+02
     -1.898  0.0000E+00  0.1600E+02
     -1.756  0.0000E+00  0.1600E+02
     -1.615  0.0000E+00  0.1600E+02
     -1.473  0.0000E+00  0.1600E+02
     -1.331  0.1068E-06  0.1600E+02
     -1.189  0.9245E-02  0.1600E+02
     -1.047  0.1999E+00  0.1603E+02
     -0.905  0.4691E+00  0.1610E+02
     -0.763  0.5540E+00  0.1617E+02
     -0.621  0.9746E+00  0.1631E+02
     -0.479  0.5601E+00  0.1639E+02
     -0.337  0.1369E+01  0.1659E+02
     -0.196  0.1040E+01  0.1673E+02
     -0.054  0.1671E+01  0.1697E+02
      0.088  0.8970E+00  0.1710E+02
      0.230  0.2431E+01  0.1744E+02
      0.372  0.1933E+01  0.1772E+02
      0.514  0.2272E+01  0.1804E+02
      0.656  0.2506E+01  0.1840E+02
      0.798  0.4050E+01  0.1897E+02
      0.940  0.1430E+01  0.1917E+02
      1.081  0.2865E+01  0.1958E+02
      1.223  0.2730E+01  0.1997E+02
      1.365  0.5257E+01  0.2071E+02
      1.507  0.7810E+01  0.2182E+02
      1.649  0.5149E+01  0.2255E+02
      1.791  0.4557E+01  0.2320E+02
      1.933  0.5615E+01  0.2400E+02
      2.075  0.4472E+01  0.2463E+02
      2.217  0.6941E+01  0.2561E+02
      2.359  0.4824E+01  0.2630E+02
      2.500  0.4266E+01  0.2690E+02
      2.642  0.3785E+01  0.2744E+02
      2.784  0.4146E+01  0.2803E+02
      2.926  0.2600E+01  0.2840E+02
      3.068  0.2542E+01  0.2876E+02
      3.210  0.5244E+01  0.2950E+02
      3.352  0.4582E+01  0.3015E+02
      3.494  0.4429E+01  0.3078E+02
      3.636  0.8880E+01  0.3204E+02
      3.777  0.7409E+01  0.3309E+02
      3.919  0.7923E+01  0.3422E+02
      4.061  0.7782E+01  0.3532E+02
      4.203  0.1214E+02  0.3704E+02
      4.345  0.6577E+01  0.3798E+02
      4.487  0.4951E+01  0.3868E+02
      4.629  0.1309E+01  0.3887E+02
      4.771  0.5008E+01  0.3958E+02
      4.913  0.2270E+01  0.3990E+02
      5.054  0.1936E+01  0.4017E+02
      5.196  0.4601E+01  0.4083E+02
      5.338  0.1159E+02  0.4247E+02
      5.480  0.8056E+01  0.4361E+02
      5.622  0.4769E+01  0.4429E+02
      5.764  0.5605E+01  0.4508E+02
      5.906  0.3188E+01  0.4554E+02
      6.048  0.7376E+01  0.4658E+02
      6.190  0.7755E+01  0.4768E+02
      6.332  0.8363E+01  0.4887E+02
      6.473  0.4060E+01  0.4945E+02
      6.615  0.5116E+01  0.5017E+02
      6.757  0.3125E+01  0.5062E+02
      6.899  0.5036E+01  0.5133E+02
      7.041  0.2367E+01  0.5167E+02
      7.183  0.2702E+01  0.5205E+02
      7.325  0.2660E+01  0.5243E+02
      7.467  0.2557E+01  0.5279E+02
      7.609  0.2115E+01  0.5309E+02
      7.750  0.3423E+01  0.5358E+02
      7.892  0.8996E+01  0.5485E+02
      8.034  0.8684E+01  0.5609E+02
      8.176  0.5807E+01  0.5691E+02
      8.318  0.3223E+01  0.5737E+02
      8.460  0.4669E+01  0.5803E+02
      8.602  0.9393E+01  0.5936E+02
      8.744  0.6173E+01  0.6024E+02
      8.886  0.3068E+01  0.6067E+02
      9.028  0.3739E+01  0.6120E+02
      9.169  0.7293E+01  0.6224E+02
      9.311  0.5065E+01  0.6296E+02
      9.453  0.8098E+01  0.6411E+02
      9.595  0.8130E+01  0.6526E+02
      9.737  0.3641E+01  0.6578E+02
      9.879  0.4883E+01  0.6647E+02
     10.021  0.3814E+01  0.6701E+02
     10.163  0.6888E+01  0.6799E+02
     10.305  0.4302E+01  0.6860E+02
     10.446  0.8080E+01  0.6974E+02
     10.588  0.7282E+01  0.7078E+02
     10.730  0.2545E+01  0.7114E+02
     10.872  0.5934E+01  0.7198E+02
     11.014  0.6508E+01  0.7290E+02
     11.156  0.6691E+01  0.7385E+02
     11.298  0.5849E+01  0.7468E+02
     11.440  0.4681E+01  0.7535E+02
     11.582  0.7517E+01  0.7641E+02
     11.723  0.7008E+01  0.7741E+02
     11.865  0.7173E+01  0.7843E+02
     12.007  0.8452E+01  0.7963E+02
     12.149  0.3582E+01  0.8013E+02
     12.291  0.6513E+01  0.8106E+02
     12.433  0.9219E+01  0.8237E+02
     12.575  0.4589E+01  0.8302E+02
     12.717  0.8517E+01  0.8423E+02
     12.859  0.9094E+01  0.8552E+02
     13.001  0.6299E+01  0.8641E+02
     13.142  0.4179E+01  0.8700E+02
     13.284  0.4490E+01  0.8764E+02
     13.426  0.8182E+01  0.8880E+02
     13.568  0.4850E+01  0.8949E+02
     13.710  0.5950E+01  0.9033E+02
     13.852  0.8958E+01  0.9161E+02
     13.994  0.3982E+01  0.9217E+02
     14.136  0.7523E+01  0.9324E+02
     14.278  0.5868E+01  0.9407E+02
     14.419  0.6172E+01  0.9495E+02
     14.561  0.2912E+01  0.9536E+02
     14.703  0.1404E+01  0.9556E+02
     14.845  0.1242E+01  0.9573E+02
     14.987  0.8037E-01  0.9575E+02
     15.129  0.8861E+00  0.9587E+02
     15.271  0.6473E+00  0.9596E+02
     15.413  0.2555E+00  0.9600E+02
     15.555  0.8800E-03  0.9600E+02
     15.697  0.4231E-11  0.9600E+02
     15.838  0.0000E+00  0.9600E+02
     15.980  0.0000E+00  0.9600E+02
     16.122  0.0000E+00  0.9600E+02
     16.264  0.0000E+00  0.9600E+02
     16.406  0.0000E+00  0.9600E+02
     16.548  0.0000E+00  0.9600E+02
     16.690  0.0000E+00  0.9600E+02
     16.832  0.0000E+00  0.9600E+02
     16.974  0.0000E+00  0.9600E+02
     17.115  0.0000E+00  0.9600E+02
     17.257  0.0000E+00  0.9600E+02
