       N       E                     dE             d eps       ncg     rms          rms(c)
DAV:   1    -0.170721039819E+01   -0.17072E+01   -0.18431E-06  2784   0.187E-03    0.603E-04
DAV:   2    -0.170721045732E+01   -0.59133E-07   -0.45208E-08  2160   0.444E-04
   1 F= -.17072105E+01 E0= -.17050707E+01  d E =-.427950E-02
       N       E                     dE             ncg
DAV:   1    -0.575377232137E+04   -0.10836E+05     3360
DAV:   2    -0.757169779955E+04   -0.18179E+04     5040
DAV:   3    -0.758450125094E+04   -0.12803E+02     3360
DAV:   4    -0.758453301917E+04   -0.31768E-01     6720
DAV:   5    -0.758453301937E+04   -0.20395E-06     3360
       N       E                     dE             ncg
DAV:   1    -0.570461227666E+04   -0.17084E+05     3360
DAV:   2    -0.746127160292E+04   -0.17567E+04     5040
DAV:   3    -0.747218141692E+04   -0.10910E+02     3360
DAV:   4    -0.747221171433E+04   -0.30297E-01     6720
DAV:   5    -0.747221171459E+04   -0.26729E-06     3360
       N       E                     dE             ncg
DAV:   1    -0.570735376981E+04   -0.13992E+05     3360
DAV:   2    -0.752186232007E+04   -0.18145E+04     5040
DAV:   3    -0.753475561960E+04   -0.12893E+02     3360
DAV:   4    -0.753478891318E+04   -0.33294E-01     6624
DAV:   5    -0.753478891364E+04   -0.46372E-06     3360
       N       E                     dE             ncg
DAV:   1    -0.576831114434E+04   -0.89154E+04     3360
DAV:   2    -0.758701785959E+04   -0.18187E+04     5040
DAV:   3    -0.760018275136E+04   -0.13165E+02     3360
DAV:   4    -0.760021465042E+04   -0.31899E-01     6720
DAV:   5    -0.760021465062E+04   -0.19988E-06     3408
       N       E                     dE             ncg
DAV:   1     0.768195399449E+03   -0.14854E+04      672
DAV:   2     0.405627543106E+03   -0.36257E+03     1008
DAV:   3     0.403167344840E+03   -0.24602E+01      672
DAV:   4     0.403161819965E+03   -0.55249E-02     1344
DAV:   5     0.403161819936E+03   -0.29161E-07      672
