<?xml version="1.0" encoding="ISO-8859-1"?>
<modeling>
 <generator>
  <i name="program" type="string">vasp </i>
  <i name="version" type="string">6.4.3  </i>
  <i name="subversion" type="string">19Mar24 (build Jun 26 2024 13:02:28) complex                          parallel </i>
  <i name="platform" type="string">LinuxIFC </i>
  <i name="date" type="string">2025 08 08 </i>
  <i name="time" type="string">19:07:01 </i>
 </generator>
 <incar>
  <i type="string" name="SYSTEM">Cs</i>
  <i type="int" name="IBRION">    -1</i>
  <i type="int" name="ISYM">     2</i>
  <i name="ENCUT">    286.41340000</i>
  <i type="int" name="ISMEAR">     0</i>
  <i name="SIGMA">      0.05000000</i>
  <i type="logical" name="LWAVE"> T  </i>
  <i type="logical" name="LCHARG"> T  </i>
 </incar>
 <primitive_cell>
  <structure name="primitive_cell" >
   <crystal>
    <varray name="basis" >
     <v>       3.08076500       3.08076500      -3.08076500 </v>
     <v>      -3.08076500       3.08076500       3.08076500 </v>
     <v>       3.08076500      -3.08076500       3.08076500 </v>
    </varray>
    <i name="volume">    116.95955478 </i>
    <varray name="rec_basis" >
     <v>       0.16229735       0.16229735      -0.00000000 </v>
     <v>      -0.00000000       0.16229735       0.16229735 </v>
     <v>       0.16229735      -0.00000000       0.16229735 </v>
    </varray>
   </crystal>
   <varray name="positions" >
    <v>       0.00000000       0.00000000       0.00000000 </v>
   </varray>
  </structure>
  <varray name="primitive_index" >
   <v type="int" >        1 </v>
  </varray>
 </primitive_cell>
 <kpoints>
  <generation param="Gamma">
   <v type="int" name="divisions">       8        8        8 </v>
   <v name="usershift">      0.00000000       0.00000000       0.00000000 </v>
   <v name="genvec1">      0.12500000      -0.00000000       0.00000000 </v>
   <v name="genvec2">      0.00000000       0.12500000       0.00000000 </v>
   <v name="genvec3">     -0.00000000      -0.00000000       0.12500000 </v>
   <v name="shift">      0.00000000       0.00000000       0.00000000 </v>
  </generation>
  <varray name="kpointlist" >
   <v>       0.00000000       0.00000000       0.00000000 </v>
   <v>       0.12500000      -0.00000000       0.00000000 </v>
   <v>       0.25000000      -0.00000000       0.00000000 </v>
   <v>       0.37500000      -0.00000000       0.00000000 </v>
   <v>       0.50000000      -0.00000000       0.00000000 </v>
   <v>       0.12500000       0.12500000       0.00000000 </v>
   <v>       0.25000000       0.12500000       0.00000000 </v>
   <v>       0.37500000       0.12500000       0.00000000 </v>
   <v>       0.50000000       0.12500000       0.00000000 </v>
   <v>       0.25000000       0.25000000       0.00000000 </v>
   <v>       0.37500000       0.25000000       0.00000000 </v>
   <v>       0.50000000       0.25000000       0.00000000 </v>
   <v>       0.37500000       0.37500000       0.00000000 </v>
   <v>       0.50000000       0.37500000       0.00000000 </v>
   <v>       0.50000000       0.50000000       0.00000000 </v>
   <v>       0.12500000       0.12500000       0.12500000 </v>
   <v>       0.25000000       0.12500000       0.12500000 </v>
   <v>       0.37500000       0.12500000       0.12500000 </v>
   <v>       0.50000000       0.12500000       0.12500000 </v>
   <v>       0.25000000       0.25000000       0.12500000 </v>
   <v>       0.37500000       0.25000000       0.12500000 </v>
   <v>       0.50000000       0.25000000       0.12500000 </v>
   <v>       0.37500000       0.37500000       0.12500000 </v>
   <v>       0.50000000       0.37500000       0.12500000 </v>
   <v>       0.50000000       0.50000000       0.12500000 </v>
   <v>       0.25000000       0.25000000       0.25000000 </v>
   <v>       0.37500000       0.25000000       0.25000000 </v>
   <v>       0.50000000       0.25000000       0.25000000 </v>
   <v>       0.37500000       0.37500000       0.25000000 </v>
   <v>       0.50000000       0.37500000       0.25000000 </v>
   <v>       0.50000000       0.50000000       0.25000000 </v>
   <v>       0.37500000       0.37500000       0.37500000 </v>
   <v>       0.50000000       0.37500000       0.37500000 </v>
   <v>       0.50000000       0.50000000       0.37500000 </v>
   <v>       0.50000000       0.50000000       0.50000000 </v>
  </varray>
  <varray name="weights" >
   <v>       0.00195312 </v>
   <v>       0.01171875 </v>
   <v>       0.01171875 </v>
   <v>       0.01171875 </v>
   <v>       0.00585938 </v>
   <v>       0.02343750 </v>
   <v>       0.04687500 </v>
   <v>       0.04687500 </v>
   <v>       0.02343750 </v>
   <v>       0.02343750 </v>
   <v>       0.04687500 </v>
   <v>       0.02343750 </v>
   <v>       0.02343750 </v>
   <v>       0.02343750 </v>
   <v>       0.00585938 </v>
   <v>       0.01562500 </v>
   <v>       0.04687500 </v>
   <v>       0.04687500 </v>
   <v>       0.02343750 </v>
   <v>       0.04687500 </v>
   <v>       0.09375000 </v>
   <v>       0.04687500 </v>
   <v>       0.04687500 </v>
   <v>       0.04687500 </v>
   <v>       0.01171875 </v>
   <v>       0.01562500 </v>
   <v>       0.04687500 </v>
   <v>       0.02343750 </v>
   <v>       0.04687500 </v>
   <v>       0.04687500 </v>
   <v>       0.01171875 </v>
   <v>       0.01562500 </v>
   <v>       0.02343750 </v>
   <v>       0.01171875 </v>
   <v>       0.00195312 </v>
  </varray>
 </kpoints>
 <parameters>
  <separator name="general" >
   <i type="string" name="SYSTEM">Cs</i>
   <i type="logical" name="LCOMPAT"> F  </i>
  </separator>
  <separator name="electronic" >
   <i type="string" name="PREC">normal</i>
   <i name="ENMAX">    286.41340000</i>
   <i name="ENAUG">    407.93300000</i>
   <i name="EDIFF">      0.00010000</i>
   <i type="int" name="IALGO">    38</i>
   <i type="int" name="IWAVPR">    10</i>
   <i type="int" name="NBANDS">    48</i>
   <i type="int" name="NBANDSLOW">    -1</i>
   <i type="int" name="NBANDSHIGH">    -1</i>
   <i name="NELECT">     18.00000000</i>
   <i type="int" name="TURBO">     0</i>
   <i type="int" name="IRESTART">     0</i>
   <i type="int" name="NREBOOT">     0</i>
   <i type="int" name="NMIN">     0</i>
   <i name="EREF">      0.00000000</i>
   <separator name="electronic smearing" >
    <i type="int" name="ISMEAR">     0</i>
    <i name="SIGMA">      0.05000000</i>
    <i name="KSPACING">      0.50000000</i>
    <i type="logical" name="KGAMMA"> T  </i>
    <i type="logical" name="KBLOWUP"> T  </i>
   </separator>
   <separator name="electronic projectors" >
    <i type="logical" name="LREAL"> F  </i>
    <v name="ROPT">      0.00000000</v>
    <i type="int" name="LMAXPAW">  -100</i>
    <i type="int" name="LMAXMIX">     2</i>
    <i type="logical" name="NLSPLINE"> F  </i>
   </separator>
   <separator name="electronic startup" >
    <i type="int" name="ISTART">     1</i>
    <i type="int" name="ICHARG">     0</i>
    <i type="int" name="INIWAV">     1</i>
   </separator>
   <separator name="electronic spin" >
    <i type="int" name="ISPIN">     1</i>
    <i type="logical" name="LNONCOLLINEAR"> F  </i>
    <v name="MAGMOM">      1.00000000      1.00000000</v>
    <i name="NUPDOWN">     -1.00000000</i>
    <i type="logical" name="LSORBIT"> F  </i>
    <v name="SAXIS">      0.00000000      0.00000000      1.00000000</v>
    <i type="logical" name="LSPIRAL"> F  </i>
    <v name="QSPIRAL">      0.00000000      0.00000000      0.00000000</v>
    <i type="logical" name="LZEROZ"> F  </i>
   </separator>
   <separator name="electronic exchange-correlation" >
    <i type="logical" name="LASPH"> F  </i>
   </separator>
   <separator name="electronic convergence" >
    <i type="int" name="NELM">    60</i>
    <i type="int" name="NELMDL">     0</i>
    <i type="int" name="NELMIN">     2</i>
    <i name="ENINI">    286.41340000</i>
    <separator name="electronic convergence detail" >
     <i type="logical" name="LDIAG"> T  </i>
     <i type="logical" name="LSUBROT"> F  </i>
     <i name="WEIMIN">      0.00000000</i>
     <i name="EBREAK">      0.00000052</i>
     <i name="DEPER">      0.30000000</i>
     <i type="int" name="NRMM">     4</i>
     <i name="TIME">      0.40000000</i>
    </separator>
   </separator>
   <separator name="electronic mixer" >
    <i name="AMIX">      0.40000000</i>
    <i name="BMIX">      1.00000000</i>
    <i name="AMIN">      0.10000000</i>
    <i name="AMIX_MAG">      1.60000000</i>
    <i name="BMIX_MAG">      1.00000000</i>
    <separator name="electronic mixer details" >
     <i type="int" name="IMIX">     4</i>
     <i type="logical" name="MIXFIRST"> F  </i>
     <i type="int" name="MAXMIX">   -45</i>
     <i name="WC">    100.00000000</i>
     <i type="int" name="INIMIX">     1</i>
     <i type="int" name="MIXPRE">     1</i>
     <i type="int" name="MREMOVE">     5</i>
    </separator>
   </separator>
   <separator name="electronic dipolcorrection" >
    <i type="logical" name="LDIPOL"> F  </i>
    <i type="logical" name="LMONO"> F  </i>
    <i type="int" name="IDIPOL">     0</i>
    <i name="EPSILON">      1.00000000</i>
    <v name="DIPOL">   -100.00000000   -100.00000000   -100.00000000</v>
    <i name="EFIELD">      0.00000000</i>
    <i type="logical" name="LVACPOTAV"> F  </i>
   </separator>
  </separator>
  <separator name="grids" >
   <i type="int" name="NGX">    28</i>
   <i type="int" name="NGY">    28</i>
   <i type="int" name="NGZ">    28</i>
   <i type="int" name="NGXF">    56</i>
   <i type="int" name="NGYF">    56</i>
   <i type="int" name="NGZF">    56</i>
   <i type="logical" name="ADDGRID"> F  </i>
  </separator>
  <separator name="ionic" >
   <i type="int" name="NSW">     0</i>
   <i type="int" name="IBRION">    -1</i>
   <i type="int" name="MDALGO">     0</i>
   <i type="int" name="ISIF">     2</i>
   <i name="PSTRESS">      0.00000000</i>
   <i name="EDIFFG">      0.00100000</i>
   <i type="int" name="NFREE">     0</i>
   <i name="POTIM">      0.50000000</i>
   <i name="SMASS">     -3.00000000</i>
   <i name="SCALEE">      1.00000000</i>
  </separator>
  <separator name="ionic md" >
   <i name="TEBEG">      0.00010000</i>
   <i name="TEEND">      0.00010000</i>
   <i type="int" name="NBLOCK">     1</i>
   <i type="int" name="KBLOCK">     1</i>
   <i type="int" name="NPACO">   256</i>
   <i name="APACO">     10.00000000</i>
  </separator>
  <separator name="symmetry" >
   <i type="int" name="ISYM">     2</i>
   <i name="SYMPREC">      0.00001000</i>
  </separator>
  <separator name="dos" >
   <i type="int" name="LORBIT">     0</i>
   <v name="RWIGS">     -1.00000000</v>
   <i type="int" name="NEDOS">   301</i>
   <i name="EMIN">     10.00000000</i>
   <i name="EMAX">    -10.00000000</i>
   <i name="EFERMI">      0.00000000</i>
  </separator>
  <separator name="writing" >
   <i type="int" name="NWRITE">     2</i>
   <i type="logical" name="LWAVE"> T  </i>
   <i type="logical" name="LDOWNSAMPLE"> F  </i>
   <i type="logical" name="LCHARG"> T  </i>
   <i type="logical" name="LPARD"> F  </i>
   <i type="logical" name="LVTOT"> F  </i>
   <i type="logical" name="LVHAR"> F  </i>
   <i type="logical" name="LELF"> F  </i>
   <i type="logical" name="LOPTICS"> F  </i>
   <v name="STM">      0.00000000      0.00000000      0.00000000      0.00000000      0.00000000      0.00000000      0.00000000</v>
  </separator>
  <separator name="performance" >
   <i type="int" name="NPAR">    48</i>
   <i type="int" name="NSIM">     4</i>
   <i type="int" name="NBLK">    -1</i>
   <i type="logical" name="LPLANE"> T  </i>
   <i type="logical" name="LSCALAPACK"> T  </i>
   <i type="logical" name="LSCAAWARE"> F  </i>
   <i type="logical" name="LSCALU"> F  </i>
   <i type="logical" name="LASYNC"> F  </i>
   <i type="logical" name="LORBITALREAL"> F  </i>
  </separator>
  <separator name="miscellaneous" >
   <i type="int" name="IDIOT">     3</i>
   <i type="int" name="PHON_NSTRUCT">    -1</i>
   <i type="logical" name="LMUSIC"> F  </i>
   <v name="POMASS">    132.90000000</v>
   <v name="DARWINR">      0.00000000</v>
   <v name="DARWINV">      1.00000000</v>
   <i type="logical" name="LCORR"> T  </i>
  </separator>
  <i type="logical" name="GGA_COMPAT"> T  </i>
  <i type="logical" name="LBERRY"> F  </i>
  <i type="int" name="ICORELEVEL">     0</i>
  <i type="logical" name="LDAU"> F  </i>
  <i type="int" name="I_CONSTRAINED_M">     0</i>
  <separator name="electronic exchange-correlation" >
   <i type="string" name="GGA    ">PE</i>
   <i type="string" name="XC_C">1</i>
   <i type="int" name="VOSKOWN">     0</i>
   <i type="logical" name="LHFCALC"> F  </i>
   <i type="string" name="PRECFOCK"></i>
   <i type="logical" name="LSYMGRAD"> F  </i>
   <i type="logical" name="LHFONE"> F  </i>
   <i type="logical" name="LRHFCALC"> F  </i>
   <i type="logical" name="LTHOMAS"> F  </i>
   <i type="logical" name="LMODELHF"> F  </i>
   <i type="logical" name="LFOCKACE"> F  </i>
   <i name="ENCUT4O">     -1.00000000</i>
   <i type="int" name="EXXOEP">     0</i>
   <i type="int" name="FOURORBIT">     0</i>
   <i name="AEXX">      0.00000000</i>
   <i name="HFALPHA">      0.00000000</i>
   <i name="MCALPHA">      0.00000000</i>
   <i name="ALDAX">      1.00000000</i>
   <i name="AGGAX">      1.00000000</i>
   <i name="AMGGAX">      1.00000000</i>
   <i name="ALDAC">      1.00000000</i>
   <i name="AGGAC">      1.00000000</i>
   <i name="AMGGAC">      1.00000000</i>
   <i type="int" name="NKREDX">     1</i>
   <i type="int" name="NKREDY">     1</i>
   <i type="int" name="NKREDZ">     1</i>
   <i type="logical" name="SHIFTRED"> F  </i>
   <i type="logical" name="ODDONLY"> F  </i>
   <i type="logical" name="EVENONLY"> F  </i>
   <i type="int" name="LMAXFOCK">     0</i>
   <i type="int" name="NMAXFOCKAE">     0</i>
   <i type="logical" name="LFOCKAEDFT"> F  </i>
   <i name="HFSCREEN">      0.00000000</i>
   <i name="HFSCREENC">      0.00000000</i>
   <i type="int" name="NBANDSGWLOW">     0</i>
  </separator>
  <separator name="vdW DFT" >
   <i type="logical" name="LUSE_VDW"> F  </i>
   <i type="int" name="IVDW_NL">    -1</i>
   <i type="logical" name="LSPIN_VDW"> F  </i>
   <i name="ZAB_VDW">     -0.84910000</i>
   <i name="GAMMA_VDW">      1.39626340</i>
   <i name="ALPHA_VDW">      0.00000000</i>
   <i name="PARAM1">      0.12340000</i>
   <i name="PARAM2">      1.00000000</i>
   <i name="BPARAM">      6.30000000</i>
   <i name="CPARAM">      0.00930000</i>
  </separator>
  <separator name="model GW" >
   <i type="int" name="MODEL_GW">     0</i>
   <i name="MODEL_EPS0">     70.17573287</i>
   <i name="MODEL_ALPHA">      1.00000000</i>
  </separator>
  <separator name="linear response parameters" >
   <i type="logical" name="LEPSILON"> F  </i>
   <i type="logical" name="LRPA"> F  </i>
   <i type="logical" name="LNABLA"> F  </i>
   <i type="logical" name="LVEL"> F  </i>
   <i name="CSHIFT">      0.10000000</i>
   <i name="OMEGAMAX">     -1.00000000</i>
   <i name="DEG_THRESHOLD">      0.00200000</i>
   <i name="RTIME">     -0.10000000</i>
   <i name="WPLASMAI">      0.00000000</i>
   <v name="DFIELD">      0.00000000      0.00000000      0.00000000</v>
   <v name="WPLASMA">      0.00000000      0.00000000      0.00000000      0.00000000      0.00000000      0.00000000      0.00000000      0.00000000      0.00000000</v>
  </separator>
  <separator name="orbital magnetization" >
   <i type="logical" name="NUCIND"> F  </i>
   <v name="MAGPOS">      0.00000000      0.00000000      0.00000000</v>
   <i type="logical" name="LNICSALL"> T  </i>
   <i type="logical" name="ORBITALMAG"> F  </i>
   <i type="logical" name="LMAGBLOCH"> F  </i>
   <i type="logical" name="LCHIMAG"> F  </i>
   <i type="logical" name="LGAUGE"> T  </i>
   <i type="int" name="MAGATOM">     0</i>
   <v name="MAGDIPOL">      0.00000000      0.00000000      0.00000000</v>
   <v name="AVECCONST">      0.00000000      0.00000000      0.00000000</v>
  </separator>
  <separator name="response functions" >
   <i type="logical" name="LALL_IN_ONE"> F  </i>
   <i type="int" name="IALL_IN_ONE">    -1</i>
   <i type="int" name="NBANDS_WAVE">    -1</i>
   <i type="logical" name="LFINITE_TEMPERATURE"> F  </i>
   <i type="logical" name="LADDER"> F  </i>
   <i type="logical" name="LRPAFORCE"> F  </i>
   <i type="logical" name="LFXC"> F  </i>
   <i type="logical" name="LHARTREE"> T  </i>
   <i type="int" name="IBSE">     0</i>
   <v type="int" name="KPOINT">    -1     0     0     0</v>
   <i type="logical" name="LTCTC"> F  </i>
   <i type="logical" name="LTCTE"> F  </i>
   <i type="logical" name="LTETE"> F  </i>
   <i type="logical" name="LTRIPLET"> F  </i>
   <i type="logical" name="LFXCEPS"> F  </i>
   <i type="logical" name="LFXHEG"> F  </i>
   <i type="int" name="NATURALO">     2</i>
   <i type="logical" name="LHOLEGF"> F  </i>
   <i type="logical" name="L2ORDER"> F  </i>
   <i type="logical" name="LDMP1"> F  </i>
   <i type="logical" name="LMP2LT"> F  </i>
   <i type="logical" name="LSMP2LT"> F  </i>
   <i type="logical" name="LGWLF"> F  </i>
   <i name="ENCUTGW">     -1.60000002</i>
   <i name="ENCUTGWSOFT">     -1.60000002</i>
   <i name="ENCUTLF">     -1.00000000</i>
   <i type="logical" name="ESF_SPLINES"> F  </i>
   <i name="ESF_CONV">      0.01000000</i>
   <i type="int" name="ESF_NINTER">    15</i>
   <i type="int" name="LMAXMP2">    -1</i>
   <i name="SCISSOR">      0.00000000</i>
   <i type="int" name="NOMEGA">     0</i>
   <i type="int" name="NOMEGAR">     0</i>
   <i type="int" name="NBANDSGW">    -1</i>
   <i type="int" name="NBANDSO">    -1</i>
   <i type="int" name="NBANDSV">    -1</i>
   <i type="int" name="NELMGW">     1</i>
   <i type="int" name="NELMHF">     1</i>
   <i type="int" name="DIM">     3</i>
   <i type="int" name="IESPILON">     4</i>
   <i type="int" name="ANTIRES">     0</i>
   <i name="OMEGAMAX">    -30.00000000</i>
   <i name="OMEGAMIN">    -30.00000000</i>
   <i name="OMEGATL">   -200.00000000</i>
   <i type="int" name="OMEGAGRID">     0</i>
   <i name="CSHIFT">     -0.10000000</i>
   <i type="logical" name="LSELFENERGY"> F  </i>
   <i type="logical" name="LSPECTRAL"> F  </i>
   <i type="logical" name="LSPECTRALGW"> F  </i>
   <i type="logical" name="LSINGLES"> F  </i>
   <i type="logical" name="LFERMIGW"> F  </i>
   <i type="logical" name="ODDONLYGW"> F  </i>
   <i type="logical" name="EVENONLYGW"> F  </i>
   <i type="int" name="NKREDLFX">     1</i>
   <i type="int" name="NKREDLFY">     1</i>
   <i type="int" name="NKREDLFZ">     1</i>
   <i type="int" name="MAXMEM">  2800</i>
   <i type="int" name="TELESCOPE">     0</i>
   <i type="int" name="NTAUPAR">    -1</i>
   <i type="int" name="NOMEGAPAR">    -1</i>
   <i name="DAMP_NEWTON">      0.80000001</i>
   <i name="LAMBDA">      1.00000000</i>
  </separator>
  <separator name="External order field" >
   <i name="OFIELD_KAPPA">      0.00000000</i>
   <v name="OFIELD_K">      0.00000000      0.00000000      0.00000000</v>
   <i name="OFIELD_Q6_NEAR">      0.00000000</i>
   <i name="OFIELD_Q6_FAR">      0.00000000</i>
   <i name="OFIELD_A">      0.00000000</i>
  </separator>
  <separator name="optional k-points parameters" >
   <i type="int" name="KPOINTS_OPT_MODE">     1</i>
   <i type="logical" name="LKPOINTS_OPT"> T  </i>
  </separator>
 </parameters>
 <atominfo>
  <atoms>       2 </atoms>
  <types>       1 </types>
  <array name="atoms" >
   <dimension dim="1">ion</dimension>
   <field type="string">element</field>
   <field type="int">atomtype</field>
   <set>
    <rc><c>Cs</c><c>   1</c></rc>
    <rc><c>Cs</c><c>   1</c></rc>
   </set>
  </array>
  <array name="atomtypes" >
   <dimension dim="1">type</dimension>
   <field type="int">atomspertype</field>
   <field type="string">element</field>
   <field>mass</field>
   <field>valence</field>
   <field type="string">pseudopotential</field>
   <set>
    <rc><c>   2</c><c>Cs</c><c>    132.90000000</c><c>      9.00000000</c><c>PAW_PBE Cs_sv 08Apr2002                 </c></rc>
   </set>
  </array>
 </atominfo>
 <structure name="initialpos" >
  <crystal>
   <varray name="basis" >
    <v>       6.16153000       0.00000000       0.00000000 </v>
    <v>       0.00000000       6.16153000       0.00000000 </v>
    <v>       0.00000000       0.00000000       6.16153000 </v>
   </varray>
   <i name="volume">    233.91910957 </i>
   <varray name="rec_basis" >
    <v>       0.16229735      -0.00000000       0.00000000 </v>
    <v>       0.00000000       0.16229735       0.00000000 </v>
    <v>      -0.00000000      -0.00000000       0.16229735 </v>
   </varray>
  </crystal>
  <varray name="positions" >
   <v>       0.00000000       0.00000000       0.00000000 </v>
   <v>       0.50000000       0.50000000       0.50000000 </v>
  </varray>
 </structure>
 <calculation>
  <scstep>
   <time name="dav">    0.59    0.59</time>
   <time name="total">    0.61    0.61</time>
   <energy>
    <i name="alphaZ">     30.73942618 </i>
    <i name="ewald">   -688.90992671 </i>
    <i name="hartreedc">   -272.84188086 </i>
    <i name="XCdc">     19.87195195 </i>
    <i name="pawpsdc">    838.10443545 </i>
    <i name="pawaedc">   -824.19925600 </i>
    <i name="eentropy">     -0.00427949 </i>
    <i name="bandstr">   -215.81763082 </i>
    <i name="atom">   1111.34994990 </i>
    <i name="e_fr_energy">     -1.70721040 </i>
    <i name="e_wo_entrp">     -1.70293091 </i>
    <i name="e_0_energy">     -1.70507065 </i>
   </energy>
  </scstep>
  <scstep>
   <time name="dav">    0.37    0.37</time>
   <time name="total">    0.38    0.38</time>
   <energy>
    <i name="alphaZ">     30.73942618 </i>
    <i name="ewald">   -688.90992671 </i>
    <i name="hartreedc">   -272.84356359 </i>
    <i name="XCdc">     19.87206111 </i>
    <i name="pawpsdc">    838.10768182 </i>
    <i name="pawaedc">   -824.20263507 </i>
    <i name="eentropy">     -0.00427950 </i>
    <i name="bandstr">   -215.81592460 </i>
    <i name="atom">   1111.34994990 </i>
    <i name="e_fr_energy">     -1.70721046 </i>
    <i name="e_wo_entrp">     -1.70293096 </i>
    <i name="e_0_energy">     -1.70507071 </i>
   </energy>
  </scstep>
  <structure>
   <crystal>
    <varray name="basis" >
     <v>       6.16153000       0.00000000       0.00000000 </v>
     <v>       0.00000000       6.16153000       0.00000000 </v>
     <v>       0.00000000       0.00000000       6.16153000 </v>
    </varray>
    <i name="volume">    233.91910957 </i>
    <varray name="rec_basis" >
     <v>       0.16229735      -0.00000000       0.00000000 </v>
     <v>       0.00000000       0.16229735       0.00000000 </v>
     <v>      -0.00000000      -0.00000000       0.16229735 </v>
    </varray>
   </crystal>
   <varray name="positions" >
    <v>       0.00000000       0.00000000       0.00000000 </v>
    <v>       0.50000000       0.50000000       0.50000000 </v>
   </varray>
  </structure>
  <varray name="forces" >
   <v>      -0.00000000      -0.00000000      -0.00000000 </v>
   <v>       0.00000000       0.00000000       0.00000000 </v>
  </varray>
  <varray name="stress" >
   <v>      -0.46039049      -0.00000000      -0.00000000 </v>
   <v>      -0.00000000      -0.46039049      -0.00000000 </v>
   <v>      -0.00000000      -0.00000000      -0.46039049 </v>
  </varray>
  <energy>
   <i name="e_fr_energy">     -1.70721046 </i>
   <i name="e_wo_entrp">     -1.70293096 </i>
   <i name="e_0_energy">     -1.70507071 </i>
  </energy>
  <dos comment="kpoints_opt">
   <i name="efermi">      0.54919578 </i>
   <total>
    <array>
     <dimension dim="1">gridpoints</dimension>
     <dimension dim="2">spin</dimension>
     <field>energy</field>
     <field>total</field>
     <field>integrated</field>
     <set>
      <set comment="spin 1">
       <r>   -25.3107     0.0000     0.0000 </r>
       <r>   -25.1688     0.0000     0.0000 </r>
       <r>   -25.0270     0.0000     0.0000 </r>
       <r>   -24.8851     0.0000     0.0000 </r>
       <r>   -24.7432     0.0000     0.0000 </r>
       <r>   -24.6013     0.0000     0.0000 </r>
       <r>   -24.4594     0.0000     0.0000 </r>
       <r>   -24.3175     0.0000     0.0000 </r>
       <r>   -24.1756     0.0000     0.0000 </r>
       <r>   -24.0337     0.0000     0.0000 </r>
       <r>   -23.8918     0.0000     0.0000 </r>
       <r>   -23.7499     0.0000     0.0000 </r>
       <r>   -23.6080     0.0000     0.0000 </r>
       <r>   -23.4661     0.0927     0.0132 </r>
       <r>   -23.3242    25.2822     3.6005 </r>
       <r>   -23.1823     2.8152     4.0000 </r>
       <r>   -23.0404     0.0000     4.0000 </r>
       <r>   -22.8985     0.0000     4.0000 </r>
       <r>   -22.7567     0.0000     4.0000 </r>
       <r>   -22.6148     0.0000     4.0000 </r>
       <r>   -22.4729     0.0000     4.0000 </r>
       <r>   -22.3310     0.0000     4.0000 </r>
       <r>   -22.1891     0.0000     4.0000 </r>
       <r>   -22.0472     0.0000     4.0000 </r>
       <r>   -21.9053     0.0000     4.0000 </r>
       <r>   -21.7634     0.0000     4.0000 </r>
       <r>   -21.6215     0.0000     4.0000 </r>
       <r>   -21.4796     0.0000     4.0000 </r>
       <r>   -21.3377     0.0000     4.0000 </r>
       <r>   -21.1958     0.0000     4.0000 </r>
       <r>   -21.0539     0.0000     4.0000 </r>
       <r>   -20.9120     0.0000     4.0000 </r>
       <r>   -20.7701     0.0000     4.0000 </r>
       <r>   -20.6282     0.0000     4.0000 </r>
       <r>   -20.4864     0.0000     4.0000 </r>
       <r>   -20.3445     0.0000     4.0000 </r>
       <r>   -20.2026     0.0000     4.0000 </r>
       <r>   -20.0607     0.0000     4.0000 </r>
       <r>   -19.9188     0.0000     4.0000 </r>
       <r>   -19.7769     0.0000     4.0000 </r>
       <r>   -19.6350     0.0000     4.0000 </r>
       <r>   -19.4931     0.0000     4.0000 </r>
       <r>   -19.3512     0.0000     4.0000 </r>
       <r>   -19.2093     0.0000     4.0000 </r>
       <r>   -19.0674     0.0000     4.0000 </r>
       <r>   -18.9255     0.0000     4.0000 </r>
       <r>   -18.7836     0.0000     4.0000 </r>
       <r>   -18.6417     0.0000     4.0000 </r>
       <r>   -18.4998     0.0000     4.0000 </r>
       <r>   -18.3580     0.0000     4.0000 </r>
       <r>   -18.2161     0.0000     4.0000 </r>
       <r>   -18.0742     0.0000     4.0000 </r>
       <r>   -17.9323     0.0000     4.0000 </r>
       <r>   -17.7904     0.0000     4.0000 </r>
       <r>   -17.6485     0.0000     4.0000 </r>
       <r>   -17.5066     0.0000     4.0000 </r>
       <r>   -17.3647     0.0000     4.0000 </r>
       <r>   -17.2228     0.0000     4.0000 </r>
       <r>   -17.0809     0.0000     4.0000 </r>
       <r>   -16.9390     0.0000     4.0000 </r>
       <r>   -16.7971     0.0000     4.0000 </r>
       <r>   -16.6552     0.0000     4.0000 </r>
       <r>   -16.5133     0.0000     4.0000 </r>
       <r>   -16.3714     0.0000     4.0000 </r>
       <r>   -16.2295     0.0000     4.0000 </r>
       <r>   -16.0877     0.0000     4.0000 </r>
       <r>   -15.9458     0.0000     4.0000 </r>
       <r>   -15.8039     0.0000     4.0000 </r>
       <r>   -15.6620     0.0000     4.0000 </r>
       <r>   -15.5201     0.0000     4.0000 </r>
       <r>   -15.3782     0.0000     4.0000 </r>
       <r>   -15.2363     0.0000     4.0000 </r>
       <r>   -15.0944     0.0000     4.0000 </r>
       <r>   -14.9525     0.0000     4.0000 </r>
       <r>   -14.8106     0.0000     4.0000 </r>
       <r>   -14.6687     0.0000     4.0000 </r>
       <r>   -14.5268     0.0000     4.0000 </r>
       <r>   -14.3849     0.0000     4.0000 </r>
       <r>   -14.2430     0.0000     4.0000 </r>
       <r>   -14.1011     0.0000     4.0000 </r>
       <r>   -13.9592     0.0000     4.0000 </r>
       <r>   -13.8174     0.0000     4.0000 </r>
       <r>   -13.6755     0.0000     4.0000 </r>
       <r>   -13.5336     0.0000     4.0000 </r>
       <r>   -13.3917     0.0000     4.0000 </r>
       <r>   -13.2498     0.0000     4.0000 </r>
       <r>   -13.1079     0.0000     4.0000 </r>
       <r>   -12.9660     0.0000     4.0000 </r>
       <r>   -12.8241     0.0000     4.0000 </r>
       <r>   -12.6822     0.0000     4.0000 </r>
       <r>   -12.5403     0.0000     4.0000 </r>
       <r>   -12.3984     0.0000     4.0000 </r>
       <r>   -12.2565     0.0000     4.0000 </r>
       <r>   -12.1146     0.0000     4.0000 </r>
       <r>   -11.9727     0.0000     4.0000 </r>
       <r>   -11.8308     0.0000     4.0000 </r>
       <r>   -11.6890     0.0000     4.0000 </r>
       <r>   -11.5471     0.0000     4.0000 </r>
       <r>   -11.4052     0.0000     4.0000 </r>
       <r>   -11.2633     0.0000     4.0000 </r>
       <r>   -11.1214     0.0000     4.0000 </r>
       <r>   -10.9795     0.0000     4.0000 </r>
       <r>   -10.8376     0.0000     4.0000 </r>
       <r>   -10.6957     0.0000     4.0000 </r>
       <r>   -10.5538     0.0000     4.0000 </r>
       <r>   -10.4119     0.0000     4.0000 </r>
       <r>   -10.2700     2.0624     4.2926 </r>
       <r>   -10.1281    69.5973    14.1680 </r>
       <r>    -9.9862    12.9103    15.9999 </r>
       <r>    -9.8443     0.0004    16.0000 </r>
       <r>    -9.7024     0.0000    16.0000 </r>
       <r>    -9.5605     0.0000    16.0000 </r>
       <r>    -9.4187     0.0000    16.0000 </r>
       <r>    -9.2768     0.0000    16.0000 </r>
       <r>    -9.1349     0.0000    16.0000 </r>
       <r>    -8.9930     0.0000    16.0000 </r>
       <r>    -8.8511     0.0000    16.0000 </r>
       <r>    -8.7092     0.0000    16.0000 </r>
       <r>    -8.5673     0.0000    16.0000 </r>
       <r>    -8.4254     0.0000    16.0000 </r>
       <r>    -8.2835     0.0000    16.0000 </r>
       <r>    -8.1416     0.0000    16.0000 </r>
       <r>    -7.9997     0.0000    16.0000 </r>
       <r>    -7.8578     0.0000    16.0000 </r>
       <r>    -7.7159     0.0000    16.0000 </r>
       <r>    -7.5740     0.0000    16.0000 </r>
       <r>    -7.4321     0.0000    16.0000 </r>
       <r>    -7.2903     0.0000    16.0000 </r>
       <r>    -7.1484     0.0000    16.0000 </r>
       <r>    -7.0065     0.0000    16.0000 </r>
       <r>    -6.8646     0.0000    16.0000 </r>
       <r>    -6.7227     0.0000    16.0000 </r>
       <r>    -6.5808     0.0000    16.0000 </r>
       <r>    -6.4389     0.0000    16.0000 </r>
       <r>    -6.2970     0.0000    16.0000 </r>
       <r>    -6.1551     0.0000    16.0000 </r>
       <r>    -6.0132     0.0000    16.0000 </r>
       <r>    -5.8713     0.0000    16.0000 </r>
       <r>    -5.7294     0.0000    16.0000 </r>
       <r>    -5.5875     0.0000    16.0000 </r>
       <r>    -5.4456     0.0000    16.0000 </r>
       <r>    -5.3037     0.0000    16.0000 </r>
       <r>    -5.1618     0.0000    16.0000 </r>
       <r>    -5.0200     0.0000    16.0000 </r>
       <r>    -4.8781     0.0000    16.0000 </r>
       <r>    -4.7362     0.0000    16.0000 </r>
       <r>    -4.5943     0.0000    16.0000 </r>
       <r>    -4.4524     0.0000    16.0000 </r>
       <r>    -4.3105     0.0000    16.0000 </r>
       <r>    -4.1686     0.0000    16.0000 </r>
       <r>    -4.0267     0.0000    16.0000 </r>
       <r>    -3.8848     0.0000    16.0000 </r>
       <r>    -3.7429     0.0000    16.0000 </r>
       <r>    -3.6010     0.0000    16.0000 </r>
       <r>    -3.4591     0.0000    16.0000 </r>
       <r>    -3.3172     0.0000    16.0000 </r>
       <r>    -3.1753     0.0000    16.0000 </r>
       <r>    -3.0334     0.0000    16.0000 </r>
       <r>    -2.8915     0.0000    16.0000 </r>
       <r>    -2.7497     0.0000    16.0000 </r>
       <r>    -2.6078     0.0000    16.0000 </r>
       <r>    -2.4659     0.0000    16.0000 </r>
       <r>    -2.3240     0.0000    16.0000 </r>
       <r>    -2.1821     0.0000    16.0000 </r>
       <r>    -2.0402     0.0000    16.0000 </r>
       <r>    -1.8983     0.0000    16.0000 </r>
       <r>    -1.7564     0.0000    16.0000 </r>
       <r>    -1.6145     0.0000    16.0000 </r>
       <r>    -1.4726     0.0000    16.0000 </r>
       <r>    -1.3307     0.0000    16.0000 </r>
       <r>    -1.1888     0.3091    16.0439 </r>
       <r>    -1.0469     1.9731    16.3238 </r>
       <r>    -0.9050     1.0535    16.4733 </r>
       <r>    -0.7631     0.8011    16.5870 </r>
       <r>    -0.6213     0.6837    16.6840 </r>
       <r>    -0.4794     0.6130    16.7710 </r>
       <r>    -0.3375     0.5657    16.8513 </r>
       <r>    -0.1956     0.5325    16.9268 </r>
       <r>    -0.0537     0.5130    16.9996 </r>
       <r>     0.0882     2.0605    17.2920 </r>
       <r>     0.2301     2.0194    17.5785 </r>
       <r>     0.3720     1.4259    17.7808 </r>
       <r>     0.5139     1.2481    17.9579 </r>
       <r>     0.6558     1.1672    18.1235 </r>
       <r>     0.7977     1.1403    18.2853 </r>
       <r>     0.9396     1.1830    18.4532 </r>
       <r>     1.0815     1.5210    18.6690 </r>
       <r>     1.2234     6.1770    19.5455 </r>
       <r>     1.3653     6.0736    20.4073 </r>
       <r>     1.5072    10.3334    21.8736 </r>
       <r>     1.6490     7.5493    22.9448 </r>
       <r>     1.7909     4.3392    23.5605 </r>
       <r>     1.9328     3.5434    24.0633 </r>
       <r>     2.0747     3.5272    24.5637 </r>
       <r>     2.2166     1.8877    24.8316 </r>
       <r>     2.3585     1.7054    25.0736 </r>
       <r>     2.5004     1.6774    25.3116 </r>
       <r>     2.6423     1.9390    25.5867 </r>
       <r>     2.7842     9.0069    26.8647 </r>
       <r>     2.9261     8.9651    28.1368 </r>
       <r>     3.0680     9.5199    29.4877 </r>
       <r>     3.2099     5.5402    30.2738 </r>
       <r>     3.3518     4.8930    30.9681 </r>
       <r>     3.4937     8.4335    32.1647 </r>
       <r>     3.6356     4.4195    32.7918 </r>
       <r>     3.7774     7.7159    33.8866 </r>
       <r>     3.9193    11.8502    35.5681 </r>
       <r>     4.0612     5.7066    36.3778 </r>
       <r>     4.2031     5.8302    37.2051 </r>
       <r>     4.3450    10.4306    38.6851 </r>
       <r>     4.4869     4.8141    39.3682 </r>
       <r>     4.6288     1.3709    39.5627 </r>
       <r>     4.7707     1.1155    39.7210 </r>
       <r>     4.9126     3.8958    40.2738 </r>
       <r>     5.0545     3.0540    40.7072 </r>
       <r>     5.1964     2.1443    41.0114 </r>
       <r>     5.3383     4.8610    41.7012 </r>
       <r>     5.4802     5.6154    42.4980 </r>
       <r>     5.6221     5.7221    43.3099 </r>
       <r>     5.7640     8.4154    44.5040 </r>
       <r>     5.9059    11.3173    46.1098 </r>
       <r>     6.0477    10.2434    47.5633 </r>
       <r>     6.1896     5.0653    48.2821 </r>
       <r>     6.3315     4.2086    48.8792 </r>
       <r>     6.4734     3.8486    49.4253 </r>
       <r>     6.6153     3.7461    49.9569 </r>
       <r>     6.7572     4.1072    50.5397 </r>
       <r>     6.8991     3.2539    51.0014 </r>
       <r>     7.0410     3.4403    51.4895 </r>
       <r>     7.1829     3.9021    52.0432 </r>
       <r>     7.3248     1.7025    52.2848 </r>
       <r>     7.4667     2.0235    52.5719 </r>
       <r>     7.6086     2.8125    52.9710 </r>
       <r>     7.7505     3.6985    53.4958 </r>
       <r>     7.8924     4.8971    54.1906 </r>
       <r>     8.0343     5.2155    54.9307 </r>
       <r>     8.1762     4.8329    55.6164 </r>
       <r>     8.3180     4.5046    56.2556 </r>
       <r>     8.4599     6.5342    57.1828 </r>
       <r>     8.6018     9.1224    58.4772 </r>
       <r>     8.7437     8.9203    59.7429 </r>
       <r>     8.8856    11.1052    61.3187 </r>
       <r>     9.0275     4.3815    61.9404 </r>
       <r>     9.1694     3.3713    62.4188 </r>
       <r>     9.3113     5.5010    63.1993 </r>
       <r>     9.4532     7.3883    64.2477 </r>
       <r>     9.5951     9.1435    65.5451 </r>
       <r>     9.7370     7.5915    66.6223 </r>
       <r>     9.8789     6.4312    67.5348 </r>
       <r>    10.0208     4.8431    68.2220 </r>
       <r>    10.1627     5.5859    69.0146 </r>
       <r>    10.3046     4.6757    69.6781 </r>
       <r>    10.4464     5.0240    70.3910 </r>
       <r>    10.5883     4.8001    71.0721 </r>
       <r>    10.7302     4.1358    71.6589 </r>
       <r>    10.8721     4.7847    72.3378 </r>
       <r>    11.0140     8.2141    73.5033 </r>
       <r>    11.1559     5.9283    74.3445 </r>
       <r>    11.2978     6.6150    75.2832 </r>
       <r>    11.4397     6.4213    76.1943 </r>
       <r>    11.5816     3.5115    76.6925 </r>
       <r>    11.7235     4.1616    77.2831 </r>
       <r>    11.8654     6.4224    78.1944 </r>
       <r>    12.0073     6.5851    79.1287 </r>
       <r>    12.1492     4.7672    79.8052 </r>
       <r>    12.2911     7.1329    80.8173 </r>
       <r>    12.4330     7.0501    81.8176 </r>
       <r>    12.5749     6.9298    82.8009 </r>
       <r>    12.7167     5.3919    83.5660 </r>
       <r>    12.8586     5.7234    84.3781 </r>
       <r>    13.0005     4.9568    85.0815 </r>
       <r>    13.1424     5.5407    85.8677 </r>
       <r>    13.2843     4.9842    86.5749 </r>
       <r>    13.4262     5.6602    87.3780 </r>
       <r>    13.5681     6.6292    88.3187 </r>
       <r>    13.7100     6.4675    89.2364 </r>
       <r>    13.8519     6.6615    90.1816 </r>
       <r>    13.9938     5.3301    90.9379 </r>
       <r>    14.1357     8.1835    92.0991 </r>
       <r>    14.2776     5.5415    92.8854 </r>
       <r>    14.4195     4.2384    93.4868 </r>
       <r>    14.5614     5.1129    94.2123 </r>
       <r>    14.7033     1.6072    94.4403 </r>
       <r>    14.8452     0.9944    94.5814 </r>
       <r>    14.9870     0.9897    94.7218 </r>
       <r>    15.1289     1.2360    94.8972 </r>
       <r>    15.2708     4.4950    95.5350 </r>
       <r>    15.4127     3.1014    95.9751 </r>
       <r>    15.5546     0.1754    96.0000 </r>
       <r>    15.6965     0.0001    96.0000 </r>
       <r>    15.8384     0.0000    96.0000 </r>
       <r>    15.9803     0.0000    96.0000 </r>
       <r>    16.1222     0.0000    96.0000 </r>
       <r>    16.2641     0.0000    96.0000 </r>
       <r>    16.4060     0.0000    96.0000 </r>
       <r>    16.5479     0.0000    96.0000 </r>
       <r>    16.6898     0.0000    96.0000 </r>
       <r>    16.8317     0.0000    96.0000 </r>
       <r>    16.9736     0.0000    96.0000 </r>
       <r>    17.1154     0.0000    96.0000 </r>
       <r>    17.2573     0.0000    96.0000 </r>
      </set>
     </set>
    </array>
   </total>
  </dos>
  <eigenvalues_kpoints_opt comment="kpoints_opt">
   <kpoints>
    <varray name="kpointlist" >
     <v>       0.00000000       0.00000000       0.00000000 </v>
     <v>       0.01041667      -0.01041667       0.01041667 </v>
     <v>       0.02083333      -0.02083333       0.02083333 </v>
     <v>       0.03125000      -0.03125000       0.03125000 </v>
     <v>       0.04166667      -0.04166667       0.04166667 </v>
     <v>       0.05208333      -0.05208333       0.05208333 </v>
     <v>       0.06250000      -0.06250000       0.06250000 </v>
     <v>       0.07291667      -0.07291667       0.07291667 </v>
     <v>       0.08333333      -0.08333333       0.08333333 </v>
     <v>       0.09375000      -0.09375000       0.09375000 </v>
     <v>       0.10416667      -0.10416667       0.10416667 </v>
     <v>       0.11458333      -0.11458333       0.11458333 </v>
     <v>       0.12500000      -0.12500000       0.12500000 </v>
     <v>       0.13541667      -0.13541667       0.13541667 </v>
     <v>       0.14583333      -0.14583333       0.14583333 </v>
     <v>       0.15625000      -0.15625000       0.15625000 </v>
     <v>       0.16666667      -0.16666667       0.16666667 </v>
     <v>       0.17708333      -0.17708333       0.17708333 </v>
     <v>       0.18750000      -0.18750000       0.18750000 </v>
     <v>       0.19791667      -0.19791667       0.19791667 </v>
     <v>       0.20833333      -0.20833333       0.20833333 </v>
     <v>       0.21875000      -0.21875000       0.21875000 </v>
     <v>       0.22916667      -0.22916667       0.22916667 </v>
     <v>       0.23958333      -0.23958333       0.23958333 </v>
     <v>       0.25000000      -0.25000000       0.25000000 </v>
     <v>       0.26041667      -0.26041667       0.26041667 </v>
     <v>       0.27083333      -0.27083333       0.27083333 </v>
     <v>       0.28125000      -0.28125000       0.28125000 </v>
     <v>       0.29166667      -0.29166667       0.29166667 </v>
     <v>       0.30208333      -0.30208333       0.30208333 </v>
     <v>       0.31250000      -0.31250000       0.31250000 </v>
     <v>       0.32291667      -0.32291667       0.32291667 </v>
     <v>       0.33333333      -0.33333333       0.33333333 </v>
     <v>       0.34375000      -0.34375000       0.34375000 </v>
     <v>       0.35416667      -0.35416667       0.35416667 </v>
     <v>       0.36458333      -0.36458333       0.36458333 </v>
     <v>       0.37500000      -0.37500000       0.37500000 </v>
     <v>       0.38541667      -0.38541667       0.38541667 </v>
     <v>       0.39583333      -0.39583333       0.39583333 </v>
     <v>       0.40625000      -0.40625000       0.40625000 </v>
     <v>       0.41666667      -0.41666667       0.41666667 </v>
     <v>       0.42708333      -0.42708333       0.42708333 </v>
     <v>       0.43750000      -0.43750000       0.43750000 </v>
     <v>       0.44791667      -0.44791667       0.44791667 </v>
     <v>       0.45833333      -0.45833333       0.45833333 </v>
     <v>       0.46875000      -0.46875000       0.46875000 </v>
     <v>       0.47916667      -0.47916667       0.47916667 </v>
     <v>       0.48958333      -0.48958333       0.48958333 </v>
     <v>       0.50000000      -0.50000000       0.50000000 </v>
     <v>       0.50000000      -0.50000000       0.50000000 </v>
     <v>       0.48958333      -0.48958333       0.50000000 </v>
     <v>       0.47916667      -0.47916667       0.50000000 </v>
     <v>       0.46875000      -0.46875000       0.50000000 </v>
     <v>       0.45833333      -0.45833333       0.50000000 </v>
     <v>       0.44791667      -0.44791667       0.50000000 </v>
     <v>       0.43750000      -0.43750000       0.50000000 </v>
     <v>       0.42708333      -0.42708333       0.50000000 </v>
     <v>       0.41666667      -0.41666667       0.50000000 </v>
     <v>       0.40625000      -0.40625000       0.50000000 </v>
     <v>       0.39583333      -0.39583333       0.50000000 </v>
     <v>       0.38541667      -0.38541667       0.50000000 </v>
     <v>       0.37500000      -0.37500000       0.50000000 </v>
     <v>       0.36458333      -0.36458333       0.50000000 </v>
     <v>       0.35416667      -0.35416667       0.50000000 </v>
     <v>       0.34375000      -0.34375000       0.50000000 </v>
     <v>       0.33333333      -0.33333333       0.50000000 </v>
     <v>       0.32291667      -0.32291667       0.50000000 </v>
     <v>       0.31250000      -0.31250000       0.50000000 </v>
     <v>       0.30208333      -0.30208333       0.50000000 </v>
     <v>       0.29166667      -0.29166667       0.50000000 </v>
     <v>       0.28125000      -0.28125000       0.50000000 </v>
     <v>       0.27083333      -0.27083333       0.50000000 </v>
     <v>       0.26041667      -0.26041667       0.50000000 </v>
     <v>       0.25000000      -0.25000000       0.50000000 </v>
     <v>       0.23958333      -0.23958333       0.50000000 </v>
     <v>       0.22916667      -0.22916667       0.50000000 </v>
     <v>       0.21875000      -0.21875000       0.50000000 </v>
     <v>       0.20833333      -0.20833333       0.50000000 </v>
     <v>       0.19791667      -0.19791667       0.50000000 </v>
     <v>       0.18750000      -0.18750000       0.50000000 </v>
     <v>       0.17708333      -0.17708333       0.50000000 </v>
     <v>       0.16666667      -0.16666667       0.50000000 </v>
     <v>       0.15625000      -0.15625000       0.50000000 </v>
     <v>       0.14583333      -0.14583333       0.50000000 </v>
     <v>       0.13541667      -0.13541667       0.50000000 </v>
     <v>       0.12500000      -0.12500000       0.50000000 </v>
     <v>       0.11458333      -0.11458333       0.50000000 </v>
     <v>       0.10416667      -0.10416667       0.50000000 </v>
     <v>       0.09375000      -0.09375000       0.50000000 </v>
     <v>       0.08333333      -0.08333333       0.50000000 </v>
     <v>       0.07291667      -0.07291667       0.50000000 </v>
     <v>       0.06250000      -0.06250000       0.50000000 </v>
     <v>       0.05208333      -0.05208333       0.50000000 </v>
     <v>       0.04166667      -0.04166667       0.50000000 </v>
     <v>       0.03125000      -0.03125000       0.50000000 </v>
     <v>       0.02083333      -0.02083333       0.50000000 </v>
     <v>       0.01041667      -0.01041667       0.50000000 </v>
     <v>       0.00000000      -0.00000000       0.50000000 </v>
     <v>       0.00000000       0.00000000       0.50000000 </v>
     <v>       0.00000000       0.00000000       0.48958333 </v>
     <v>       0.00000000       0.00000000       0.47916667 </v>
     <v>       0.00000000       0.00000000       0.46875000 </v>
     <v>       0.00000000       0.00000000       0.45833333 </v>
     <v>       0.00000000       0.00000000       0.44791667 </v>
     <v>       0.00000000       0.00000000       0.43750000 </v>
     <v>       0.00000000       0.00000000       0.42708333 </v>
     <v>       0.00000000       0.00000000       0.41666667 </v>
     <v>       0.00000000       0.00000000       0.40625000 </v>
     <v>       0.00000000       0.00000000       0.39583333 </v>
     <v>       0.00000000       0.00000000       0.38541667 </v>
     <v>       0.00000000       0.00000000       0.37500000 </v>
     <v>       0.00000000       0.00000000       0.36458333 </v>
     <v>       0.00000000       0.00000000       0.35416667 </v>
     <v>       0.00000000       0.00000000       0.34375000 </v>
     <v>       0.00000000       0.00000000       0.33333333 </v>
     <v>       0.00000000       0.00000000       0.32291667 </v>
     <v>       0.00000000       0.00000000       0.31250000 </v>
     <v>       0.00000000       0.00000000       0.30208333 </v>
     <v>       0.00000000       0.00000000       0.29166667 </v>
     <v>       0.00000000       0.00000000       0.28125000 </v>
     <v>       0.00000000       0.00000000       0.27083333 </v>
     <v>       0.00000000       0.00000000       0.26041667 </v>
     <v>       0.00000000       0.00000000       0.25000000 </v>
     <v>       0.00000000       0.00000000       0.23958333 </v>
     <v>       0.00000000       0.00000000       0.22916667 </v>
     <v>       0.00000000       0.00000000       0.21875000 </v>
     <v>       0.00000000       0.00000000       0.20833333 </v>
     <v>       0.00000000       0.00000000       0.19791667 </v>
     <v>       0.00000000       0.00000000       0.18750000 </v>
     <v>       0.00000000       0.00000000       0.17708333 </v>
     <v>       0.00000000       0.00000000       0.16666667 </v>
     <v>       0.00000000       0.00000000       0.15625000 </v>
     <v>       0.00000000       0.00000000       0.14583333 </v>
     <v>       0.00000000       0.00000000       0.13541667 </v>
     <v>       0.00000000       0.00000000       0.12500000 </v>
     <v>       0.00000000       0.00000000       0.11458333 </v>
     <v>       0.00000000       0.00000000       0.10416667 </v>
     <v>       0.00000000       0.00000000       0.09375000 </v>
     <v>       0.00000000       0.00000000       0.08333333 </v>
     <v>       0.00000000       0.00000000       0.07291667 </v>
     <v>       0.00000000       0.00000000       0.06250000 </v>
     <v>       0.00000000       0.00000000       0.05208333 </v>
     <v>       0.00000000       0.00000000       0.04166667 </v>
     <v>       0.00000000       0.00000000       0.03125000 </v>
     <v>       0.00000000       0.00000000       0.02083333 </v>
     <v>       0.00000000       0.00000000       0.01041667 </v>
     <v>       0.00000000       0.00000000       0.00000000 </v>
    </varray>
    <varray name="weights" >
     <v>       0.00680272 </v>
     <v>       0.00680272 </v>
     <v>       0.00680272 </v>
     <v>       0.00680272 </v>
     <v>       0.00680272 </v>
     <v>       0.00680272 </v>
     <v>       0.00680272 </v>
     <v>       0.00680272 </v>
     <v>       0.00680272 </v>
     <v>       0.00680272 </v>
     <v>       0.00680272 </v>
     <v>       0.00680272 </v>
     <v>       0.00680272 </v>
     <v>       0.00680272 </v>
     <v>       0.00680272 </v>
     <v>       0.00680272 </v>
     <v>       0.00680272 </v>
     <v>       0.00680272 </v>
     <v>       0.00680272 </v>
     <v>       0.00680272 </v>
     <v>       0.00680272 </v>
     <v>       0.00680272 </v>
     <v>       0.00680272 </v>
     <v>       0.00680272 </v>
     <v>       0.00680272 </v>
     <v>       0.00680272 </v>
     <v>       0.00680272 </v>
     <v>       0.00680272 </v>
     <v>       0.00680272 </v>
     <v>       0.00680272 </v>
     <v>       0.00680272 </v>
     <v>       0.00680272 </v>
     <v>       0.00680272 </v>
     <v>       0.00680272 </v>
     <v>       0.00680272 </v>
     <v>       0.00680272 </v>
     <v>       0.00680272 </v>
     <v>       0.00680272 </v>
     <v>       0.00680272 </v>
     <v>       0.00680272 </v>
     <v>       0.00680272 </v>
     <v>       0.00680272 </v>
     <v>       0.00680272 </v>
     <v>       0.00680272 </v>
     <v>       0.00680272 </v>
     <v>       0.00680272 </v>
     <v>       0.00680272 </v>
     <v>       0.00680272 </v>
     <v>       0.00680272 </v>
     <v>       0.00680272 </v>
     <v>       0.00680272 </v>
     <v>       0.00680272 </v>
     <v>       0.00680272 </v>
     <v>       0.00680272 </v>
     <v>       0.00680272 </v>
     <v>       0.00680272 </v>
     <v>       0.00680272 </v>
     <v>       0.00680272 </v>
     <v>       0.00680272 </v>
     <v>       0.00680272 </v>
     <v>       0.00680272 </v>
     <v>       0.00680272 </v>
     <v>       0.00680272 </v>
     <v>       0.00680272 </v>
     <v>       0.00680272 </v>
     <v>       0.00680272 </v>
     <v>       0.00680272 </v>
     <v>       0.00680272 </v>
     <v>       0.00680272 </v>
     <v>       0.00680272 </v>
     <v>       0.00680272 </v>
     <v>       0.00680272 </v>
     <v>       0.00680272 </v>
     <v>       0.00680272 </v>
     <v>       0.00680272 </v>
     <v>       0.00680272 </v>
     <v>       0.00680272 </v>
     <v>       0.00680272 </v>
     <v>       0.00680272 </v>
     <v>       0.00680272 </v>
     <v>       0.00680272 </v>
     <v>       0.00680272 </v>
     <v>       0.00680272 </v>
     <v>       0.00680272 </v>
     <v>       0.00680272 </v>
     <v>       0.00680272 </v>
     <v>       0.00680272 </v>
     <v>       0.00680272 </v>
     <v>       0.00680272 </v>
     <v>       0.00680272 </v>
     <v>       0.00680272 </v>
     <v>       0.00680272 </v>
     <v>       0.00680272 </v>
     <v>       0.00680272 </v>
     <v>       0.00680272 </v>
     <v>       0.00680272 </v>
     <v>       0.00680272 </v>
     <v>       0.00680272 </v>
     <v>       0.00680272 </v>
     <v>       0.00680272 </v>
     <v>       0.00680272 </v>
     <v>       0.00680272 </v>
     <v>       0.00680272 </v>
     <v>       0.00680272 </v>
     <v>       0.00680272 </v>
     <v>       0.00680272 </v>
     <v>       0.00680272 </v>
     <v>       0.00680272 </v>
     <v>       0.00680272 </v>
     <v>       0.00680272 </v>
     <v>       0.00680272 </v>
     <v>       0.00680272 </v>
     <v>       0.00680272 </v>
     <v>       0.00680272 </v>
     <v>       0.00680272 </v>
     <v>       0.00680272 </v>
     <v>       0.00680272 </v>
     <v>       0.00680272 </v>
     <v>       0.00680272 </v>
     <v>       0.00680272 </v>
     <v>       0.00680272 </v>
     <v>       0.00680272 </v>
     <v>       0.00680272 </v>
     <v>       0.00680272 </v>
     <v>       0.00680272 </v>
     <v>       0.00680272 </v>
     <v>       0.00680272 </v>
     <v>       0.00680272 </v>
     <v>       0.00680272 </v>
     <v>       0.00680272 </v>
     <v>       0.00680272 </v>
     <v>       0.00680272 </v>
     <v>       0.00680272 </v>
     <v>       0.00680272 </v>
     <v>       0.00680272 </v>
     <v>       0.00680272 </v>
     <v>       0.00680272 </v>
     <v>       0.00680272 </v>
     <v>       0.00680272 </v>
     <v>       0.00680272 </v>
     <v>       0.00680272 </v>
     <v>       0.00680272 </v>
     <v>       0.00680272 </v>
     <v>       0.00680272 </v>
     <v>       0.00680272 </v>
     <v>       0.00680272 </v>
     <v>       0.00680272 </v>
    </varray>
   </kpoints>
   <eigenvalues>
    <array>
     <dimension dim="1">band</dimension>
     <dimension dim="2">kpoint</dimension>
     <dimension dim="3">spin</dimension>
     <field>eigene</field>
     <set>
      <set comment="spin 1">
       <set comment="kpoint 1">
        <r>  -23.3757 </r>
        <r>  -23.3646 </r>
        <r>  -10.2171 </r>
        <r>  -10.2171 </r>
        <r>  -10.2171 </r>
        <r>  -10.1246 </r>
        <r>  -10.1246 </r>
        <r>  -10.1246 </r>
        <r>   -1.1726 </r>
        <r>    1.1510 </r>
        <r>    1.1510 </r>
        <r>    2.9706 </r>
        <r>    2.9706 </r>
        <r>    2.9706 </r>
        <r>    3.4565 </r>
        <r>    3.4565 </r>
        <r>    3.4565 </r>
        <r>    3.8174 </r>
        <r>    3.8174 </r>
        <r>    4.8613 </r>
        <r>    4.8815 </r>
        <r>    4.8815 </r>
        <r>    4.8815 </r>
        <r>    5.8793 </r>
        <r>    5.8793 </r>
        <r>    5.8793 </r>
        <r>    8.7339 </r>
        <r>    8.7925 </r>
        <r>    8.7925 </r>
        <r>    8.8793 </r>
        <r>    8.8793 </r>
        <r>    8.8793 </r>
        <r>    9.2568 </r>
        <r>    9.2568 </r>
        <r>   11.0046 </r>
        <r>   11.3287 </r>
        <r>   11.3287 </r>
        <r>   11.3287 </r>
        <r>   12.4986 </r>
        <r>   12.4986 </r>
        <r>   12.4986 </r>
        <r>   13.0561 </r>
        <r>   13.4214 </r>
        <r>   13.4214 </r>
        <r>   13.4214 </r>
        <r>   14.0533 </r>
        <r>   14.0534 </r>
        <r>   14.0536 </r>
       </set>
       <set comment="kpoint 2">
        <r>  -23.3757 </r>
        <r>  -23.3646 </r>
        <r>  -10.2171 </r>
        <r>  -10.2171 </r>
        <r>  -10.2169 </r>
        <r>  -10.1249 </r>
        <r>  -10.1246 </r>
        <r>  -10.1246 </r>
        <r>   -1.1708 </r>
        <r>    1.1515 </r>
        <r>    1.1515 </r>
        <r>    2.9687 </r>
        <r>    2.9687 </r>
        <r>    2.9726 </r>
        <r>    3.4421 </r>
        <r>    3.4562 </r>
        <r>    3.4562 </r>
        <r>    3.8151 </r>
        <r>    3.8151 </r>
        <r>    4.8680 </r>
        <r>    4.8838 </r>
        <r>    4.8838 </r>
        <r>    4.8899 </r>
        <r>    5.8806 </r>
        <r>    5.8866 </r>
        <r>    5.8866 </r>
        <r>    8.7379 </r>
        <r>    8.7887 </r>
        <r>    8.7887 </r>
        <r>    8.8459 </r>
        <r>    8.8459 </r>
        <r>    8.8654 </r>
        <r>    9.2914 </r>
        <r>    9.2914 </r>
        <r>   11.0161 </r>
        <r>   11.3079 </r>
        <r>   11.3321 </r>
        <r>   11.3321 </r>
        <r>   12.4842 </r>
        <r>   12.4953 </r>
        <r>   12.4953 </r>
        <r>   13.0709 </r>
        <r>   13.4105 </r>
        <r>   13.4105 </r>
        <r>   13.4267 </r>
        <r>   14.0573 </r>
        <r>   14.0573 </r>
        <r>   14.0592 </r>
       </set>
       <set comment="kpoint 3">
        <r>  -23.3756 </r>
        <r>  -23.3646 </r>
        <r>  -10.2171 </r>
        <r>  -10.2171 </r>
        <r>  -10.2163 </r>
        <r>  -10.1255 </r>
        <r>  -10.1247 </r>
        <r>  -10.1247 </r>
        <r>   -1.1655 </r>
        <r>    1.1531 </r>
        <r>    1.1531 </r>
        <r>    2.9631 </r>
        <r>    2.9631 </r>
        <r>    2.9787 </r>
        <r>    3.4010 </r>
        <r>    3.4552 </r>
        <r>    3.4552 </r>
        <r>    3.8083 </r>
        <r>    3.8083 </r>
        <r>    4.8675 </r>
        <r>    4.8906 </r>
        <r>    4.8906 </r>
        <r>    4.9334 </r>
        <r>    5.8844 </r>
        <r>    5.9082 </r>
        <r>    5.9082 </r>
        <r>    8.7497 </r>
        <r>    8.7682 </r>
        <r>    8.7682 </r>
        <r>    8.7772 </r>
        <r>    8.7772 </r>
        <r>    8.8247 </r>
        <r>    9.3727 </r>
        <r>    9.3727 </r>
        <r>   11.0490 </r>
        <r>   11.2481 </r>
        <r>   11.3422 </r>
        <r>   11.3422 </r>
        <r>   12.4434 </r>
        <r>   12.4859 </r>
        <r>   12.4859 </r>
        <r>   13.1103 </r>
        <r>   13.3790 </r>
        <r>   13.3790 </r>
        <r>   13.4451 </r>
        <r>   14.0689 </r>
        <r>   14.0692 </r>
        <r>   14.0749 </r>
       </set>
       <set comment="kpoint 4">
        <r>  -23.3755 </r>
        <r>  -23.3647 </r>
        <r>  -10.2172 </r>
        <r>  -10.2172 </r>
        <r>  -10.2154 </r>
        <r>  -10.1267 </r>
        <r>  -10.1248 </r>
        <r>  -10.1248 </r>
        <r>   -1.1566 </r>
        <r>    1.1558 </r>
        <r>    1.1558 </r>
        <r>    2.9536 </r>
        <r>    2.9536 </r>
        <r>    2.9888 </r>
        <r>    3.3380 </r>
        <r>    3.4537 </r>
        <r>    3.4537 </r>
        <r>    3.7977 </r>
        <r>    3.7977 </r>
        <r>    4.8609 </r>
        <r>    4.9018 </r>
        <r>    4.9018 </r>
        <r>    5.0063 </r>
        <r>    5.8908 </r>
        <r>    5.9435 </r>
        <r>    5.9435 </r>
        <r>    8.6733 </r>
        <r>    8.6733 </r>
        <r>    8.7585 </r>
        <r>    8.7585 </r>
        <r>    8.7600 </r>
        <r>    8.7695 </r>
        <r>    9.4735 </r>
        <r>    9.4735 </r>
        <r>   11.0987 </r>
        <r>   11.1564 </r>
        <r>   11.3586 </r>
        <r>   11.3586 </r>
        <r>   12.3821 </r>
        <r>   12.4707 </r>
        <r>   12.4707 </r>
        <r>   13.1600 </r>
        <r>   13.3303 </r>
        <r>   13.3303 </r>
        <r>   13.4839 </r>
        <r>   14.0878 </r>
        <r>   14.0879 </r>
        <r>   14.0964 </r>
       </set>
       <set comment="kpoint 5">
        <r>  -23.3754 </r>
        <r>  -23.3648 </r>
        <r>  -10.2173 </r>
        <r>  -10.2173 </r>
        <r>  -10.2141 </r>
        <r>  -10.1284 </r>
        <r>  -10.1250 </r>
        <r>  -10.1250 </r>
        <r>   -1.1441 </r>
        <r>    1.1595 </r>
        <r>    1.1595 </r>
        <r>    2.9401 </r>
        <r>    2.9401 </r>
        <r>    3.0030 </r>
        <r>    3.2587 </r>
        <r>    3.4519 </r>
        <r>    3.4519 </r>
        <r>    3.7844 </r>
        <r>    3.7844 </r>
        <r>    4.8509 </r>
        <r>    4.9173 </r>
        <r>    4.9173 </r>
        <r>    5.1000 </r>
        <r>    5.8997 </r>
        <r>    5.9914 </r>
        <r>    5.9914 </r>
        <r>    8.5729 </r>
        <r>    8.5729 </r>
        <r>    8.6749 </r>
        <r>    8.7328 </r>
        <r>    8.7328 </r>
        <r>    8.7969 </r>
        <r>    9.5822 </r>
        <r>    9.5822 </r>
        <r>   11.0409 </r>
        <r>   11.1578 </r>
        <r>   11.3809 </r>
        <r>   11.3809 </r>
        <r>   12.3095 </r>
        <r>   12.4508 </r>
        <r>   12.4508 </r>
        <r>   13.2029 </r>
        <r>   13.2689 </r>
        <r>   13.2689 </r>
        <r>   13.5521 </r>
        <r>   14.1132 </r>
        <r>   14.1133 </r>
        <r>   14.1194 </r>
       </set>
       <set comment="kpoint 6">
        <r>  -23.3754 </r>
        <r>  -23.3648 </r>
        <r>  -10.2174 </r>
        <r>  -10.2174 </r>
        <r>  -10.2125 </r>
        <r>  -10.1304 </r>
        <r>  -10.1252 </r>
        <r>  -10.1252 </r>
        <r>   -1.1281 </r>
        <r>    1.1642 </r>
        <r>    1.1642 </r>
        <r>    2.9224 </r>
        <r>    2.9224 </r>
        <r>    3.0211 </r>
        <r>    3.1684 </r>
        <r>    3.4498 </r>
        <r>    3.4498 </r>
        <r>    3.7697 </r>
        <r>    3.7697 </r>
        <r>    4.8380 </r>
        <r>    4.9367 </r>
        <r>    4.9367 </r>
        <r>    5.2089 </r>
        <r>    5.9112 </r>
        <r>    6.0505 </r>
        <r>    6.0505 </r>
        <r>    8.4718 </r>
        <r>    8.4718 </r>
        <r>    8.5732 </r>
        <r>    8.7008 </r>
        <r>    8.7008 </r>
        <r>    8.8320 </r>
        <r>    9.6936 </r>
        <r>    9.6936 </r>
        <r>   10.9088 </r>
        <r>   11.2157 </r>
        <r>   11.4082 </r>
        <r>   11.4082 </r>
        <r>   12.2381 </r>
        <r>   12.4274 </r>
        <r>   12.4274 </r>
        <r>   13.1987 </r>
        <r>   13.1987 </r>
        <r>   13.2308 </r>
        <r>   13.6513 </r>
        <r>   14.1384 </r>
        <r>   14.1444 </r>
        <r>   14.1445 </r>
       </set>
       <set comment="kpoint 7">
        <r>  -23.3753 </r>
        <r>  -23.3649 </r>
        <r>  -10.2176 </r>
        <r>  -10.2176 </r>
        <r>  -10.2105 </r>
        <r>  -10.1330 </r>
        <r>  -10.1254 </r>
        <r>  -10.1254 </r>
        <r>   -1.1087 </r>
        <r>    1.1699 </r>
        <r>    1.1699 </r>
        <r>    2.9002 </r>
        <r>    2.9002 </r>
        <r>    3.0432 </r>
        <r>    3.0710 </r>
        <r>    3.4478 </r>
        <r>    3.4478 </r>
        <r>    3.7547 </r>
        <r>    3.7547 </r>
        <r>    4.8225 </r>
        <r>    4.9600 </r>
        <r>    4.9600 </r>
        <r>    5.3287 </r>
        <r>    5.9253 </r>
        <r>    6.1191 </r>
        <r>    6.1191 </r>
        <r>    8.3725 </r>
        <r>    8.3725 </r>
        <r>    8.4584 </r>
        <r>    8.6631 </r>
        <r>    8.6631 </r>
        <r>    8.8745 </r>
        <r>    9.8051 </r>
        <r>    9.8051 </r>
        <r>   10.7655 </r>
        <r>   11.2578 </r>
        <r>   11.4398 </r>
        <r>   11.4398 </r>
        <r>   12.1838 </r>
        <r>   12.4019 </r>
        <r>   12.4019 </r>
        <r>   13.1233 </r>
        <r>   13.1233 </r>
        <r>   13.2459 </r>
        <r>   13.7738 </r>
        <r>   14.1514 </r>
        <r>   14.1804 </r>
        <r>   14.1804 </r>
       </set>
       <set comment="kpoint 8">
        <r>  -23.3752 </r>
        <r>  -23.3650 </r>
        <r>  -10.2177 </r>
        <r>  -10.2177 </r>
        <r>  -10.2082 </r>
        <r>  -10.1359 </r>
        <r>  -10.1258 </r>
        <r>  -10.1258 </r>
        <r>   -1.0858 </r>
        <r>    1.1764 </r>
        <r>    1.1764 </r>
        <r>    2.8737 </r>
        <r>    2.8737 </r>
        <r>    2.9694 </r>
        <r>    3.0692 </r>
        <r>    3.4461 </r>
        <r>    3.4461 </r>
        <r>    3.7407 </r>
        <r>    3.7407 </r>
        <r>    4.8043 </r>
        <r>    4.9867 </r>
        <r>    4.9867 </r>
        <r>    5.4562 </r>
        <r>    5.9419 </r>
        <r>    6.1956 </r>
        <r>    6.1956 </r>
        <r>    8.2766 </r>
        <r>    8.2766 </r>
        <r>    8.3333 </r>
        <r>    8.6203 </r>
        <r>    8.6203 </r>
        <r>    8.9241 </r>
        <r>    9.9149 </r>
        <r>    9.9149 </r>
        <r>   10.6154 </r>
        <r>   11.2669 </r>
        <r>   11.4744 </r>
        <r>   11.4744 </r>
        <r>   12.1647 </r>
        <r>   12.3758 </r>
        <r>   12.3758 </r>
        <r>   13.0455 </r>
        <r>   13.0455 </r>
        <r>   13.2536 </r>
        <r>   13.9106 </r>
        <r>   14.1561 </r>
        <r>   14.2202 </r>
        <r>   14.2204 </r>
       </set>
       <set comment="kpoint 9">
        <r>  -23.3750 </r>
        <r>  -23.3651 </r>
        <r>  -10.2179 </r>
        <r>  -10.2179 </r>
        <r>  -10.2056 </r>
        <r>  -10.1391 </r>
        <r>  -10.1261 </r>
        <r>  -10.1261 </r>
        <r>   -1.0596 </r>
        <r>    1.1837 </r>
        <r>    1.1837 </r>
        <r>    2.8427 </r>
        <r>    2.8427 </r>
        <r>    2.8659 </r>
        <r>    3.0991 </r>
        <r>    3.4449 </r>
        <r>    3.4449 </r>
        <r>    3.7286 </r>
        <r>    3.7286 </r>
        <r>    4.7839 </r>
        <r>    5.0166 </r>
        <r>    5.0166 </r>
        <r>    5.5888 </r>
        <r>    5.9610 </r>
        <r>    6.2779 </r>
        <r>    6.2779 </r>
        <r>    8.1858 </r>
        <r>    8.1858 </r>
        <r>    8.2002 </r>
        <r>    8.5733 </r>
        <r>    8.5733 </r>
        <r>    8.9806 </r>
        <r>   10.0214 </r>
        <r>   10.0214 </r>
        <r>   10.4616 </r>
        <r>   11.2323 </r>
        <r>   11.5109 </r>
        <r>   11.5109 </r>
        <r>   12.1924 </r>
        <r>   12.3511 </r>
        <r>   12.3511 </r>
        <r>   12.9676 </r>
        <r>   12.9676 </r>
        <r>   13.2574 </r>
        <r>   14.0555 </r>
        <r>   14.1514 </r>
        <r>   14.2628 </r>
        <r>   14.2645 </r>
       </set>
       <set comment="kpoint 10">
        <r>  -23.3749 </r>
        <r>  -23.3653 </r>
        <r>  -10.2181 </r>
        <r>  -10.2181 </r>
        <r>  -10.2027 </r>
        <r>  -10.1428 </r>
        <r>  -10.1266 </r>
        <r>  -10.1266 </r>
        <r>   -1.0300 </r>
        <r>    1.1917 </r>
        <r>    1.1917 </r>
        <r>    2.7618 </r>
        <r>    2.8076 </r>
        <r>    2.8076 </r>
        <r>    3.1328 </r>
        <r>    3.4445 </r>
        <r>    3.4445 </r>
        <r>    3.7192 </r>
        <r>    3.7192 </r>
        <r>    4.7611 </r>
        <r>    5.0493 </r>
        <r>    5.0493 </r>
        <r>    5.7247 </r>
        <r>    5.9827 </r>
        <r>    6.3637 </r>
        <r>    6.3637 </r>
        <r>    8.0609 </r>
        <r>    8.1018 </r>
        <r>    8.1018 </r>
        <r>    8.5227 </r>
        <r>    8.5227 </r>
        <r>    9.0436 </r>
        <r>   10.1228 </r>
        <r>   10.1228 </r>
        <r>   10.3066 </r>
        <r>   11.1568 </r>
        <r>   11.5476 </r>
        <r>   11.5476 </r>
        <r>   12.2645 </r>
        <r>   12.3294 </r>
        <r>   12.3294 </r>
        <r>   12.8916 </r>
        <r>   12.8916 </r>
        <r>   13.2598 </r>
        <r>   14.1383 </r>
        <r>   14.2045 </r>
        <r>   14.3074 </r>
        <r>   14.3087 </r>
       </set>
       <set comment="kpoint 11">
        <r>  -23.3748 </r>
        <r>  -23.3654 </r>
        <r>  -10.2183 </r>
        <r>  -10.2183 </r>
        <r>  -10.1996 </r>
        <r>  -10.1467 </r>
        <r>  -10.1270 </r>
        <r>  -10.1270 </r>
        <r>   -0.9972 </r>
        <r>    1.2003 </r>
        <r>    1.2003 </r>
        <r>    2.6585 </r>
        <r>    2.7686 </r>
        <r>    2.7686 </r>
        <r>    3.1702 </r>
        <r>    3.4452 </r>
        <r>    3.4452 </r>
        <r>    3.7130 </r>
        <r>    3.7130 </r>
        <r>    4.7363 </r>
        <r>    5.0843 </r>
        <r>    5.0843 </r>
        <r>    5.8621 </r>
        <r>    6.0069 </r>
        <r>    6.4503 </r>
        <r>    6.4503 </r>
        <r>    7.9168 </r>
        <r>    8.0267 </r>
        <r>    8.0267 </r>
        <r>    8.4693 </r>
        <r>    8.4693 </r>
        <r>    9.1127 </r>
        <r>   10.1523 </r>
        <r>   10.2173 </r>
        <r>   10.2173 </r>
        <r>   11.0524 </r>
        <r>   11.5827 </r>
        <r>   11.5827 </r>
        <r>   12.3130 </r>
        <r>   12.3130 </r>
        <r>   12.3698 </r>
        <r>   12.8197 </r>
        <r>   12.8197 </r>
        <r>   13.2622 </r>
        <r>   14.1156 </r>
        <r>   14.3283 </r>
        <r>   14.3531 </r>
        <r>   14.3546 </r>
       </set>
       <set comment="kpoint 12">
        <r>  -23.3746 </r>
        <r>  -23.3656 </r>
        <r>  -10.2184 </r>
        <r>  -10.2184 </r>
        <r>  -10.1963 </r>
        <r>  -10.1508 </r>
        <r>  -10.1276 </r>
        <r>  -10.1276 </r>
        <r>   -0.9611 </r>
        <r>    1.2094 </r>
        <r>    1.2094 </r>
        <r>    2.5568 </r>
        <r>    2.7262 </r>
        <r>    2.7262 </r>
        <r>    3.2112 </r>
        <r>    3.4473 </r>
        <r>    3.4473 </r>
        <r>    3.7101 </r>
        <r>    3.7101 </r>
        <r>    4.7096 </r>
        <r>    5.1214 </r>
        <r>    5.1214 </r>
        <r>    5.9995 </r>
        <r>    6.0337 </r>
        <r>    6.5342 </r>
        <r>    6.5342 </r>
        <r>    7.7690 </r>
        <r>    7.9636 </r>
        <r>    7.9636 </r>
        <r>    8.4139 </r>
        <r>    8.4139 </r>
        <r>    9.1871 </r>
        <r>   10.0011 </r>
        <r>   10.3031 </r>
        <r>   10.3031 </r>
        <r>   10.9304 </r>
        <r>   11.6140 </r>
        <r>   11.6140 </r>
        <r>   12.3038 </r>
        <r>   12.3038 </r>
        <r>   12.4973 </r>
        <r>   12.7540 </r>
        <r>   12.7540 </r>
        <r>   13.2658 </r>
        <r>   14.0857 </r>
        <r>   14.2371 </r>
        <r>   14.3989 </r>
        <r>   14.4029 </r>
       </set>
       <set comment="kpoint 13">
        <r>  -23.3744 </r>
        <r>  -23.3657 </r>
        <r>  -10.2186 </r>
        <r>  -10.2186 </r>
        <r>  -10.1927 </r>
        <r>  -10.1552 </r>
        <r>  -10.1282 </r>
        <r>  -10.1282 </r>
        <r>   -0.9220 </r>
        <r>    1.2189 </r>
        <r>    1.2189 </r>
        <r>    2.4572 </r>
        <r>    2.6809 </r>
        <r>    2.6809 </r>
        <r>    3.2557 </r>
        <r>    3.4509 </r>
        <r>    3.4509 </r>
        <r>    3.7106 </r>
        <r>    3.7106 </r>
        <r>    4.6810 </r>
        <r>    5.1601 </r>
        <r>    5.1601 </r>
        <r>    6.0631 </r>
        <r>    6.1356 </r>
        <r>    6.6110 </r>
        <r>    6.6110 </r>
        <r>    7.6184 </r>
        <r>    7.9163 </r>
        <r>    7.9163 </r>
        <r>    8.3572 </r>
        <r>    8.3572 </r>
        <r>    9.2654 </r>
        <r>    9.8553 </r>
        <r>   10.3781 </r>
        <r>   10.3781 </r>
        <r>   10.7985 </r>
        <r>   11.6388 </r>
        <r>   11.6388 </r>
        <r>   12.3040 </r>
        <r>   12.3040 </r>
        <r>   12.6396 </r>
        <r>   12.6968 </r>
        <r>   12.6968 </r>
        <r>   13.2714 </r>
        <r>   14.0489 </r>
        <r>   14.1368 </r>
        <r>   14.4442 </r>
        <r>   14.4451 </r>
       </set>
       <set comment="kpoint 14">
        <r>  -23.3742 </r>
        <r>  -23.3659 </r>
        <r>  -10.2188 </r>
        <r>  -10.2188 </r>
        <r>  -10.1891 </r>
        <r>  -10.1598 </r>
        <r>  -10.1288 </r>
        <r>  -10.1288 </r>
        <r>   -0.8798 </r>
        <r>    1.2288 </r>
        <r>    1.2288 </r>
        <r>    2.3604 </r>
        <r>    2.6333 </r>
        <r>    2.6333 </r>
        <r>    3.3035 </r>
        <r>    3.4564 </r>
        <r>    3.4564 </r>
        <r>    3.7145 </r>
        <r>    3.7145 </r>
        <r>    4.6508 </r>
        <r>    5.2001 </r>
        <r>    5.2001 </r>
        <r>    6.0950 </r>
        <r>    6.2688 </r>
        <r>    6.6756 </r>
        <r>    6.6756 </r>
        <r>    7.4658 </r>
        <r>    7.8895 </r>
        <r>    7.8895 </r>
        <r>    8.2998 </r>
        <r>    8.2998 </r>
        <r>    9.3437 </r>
        <r>    9.7202 </r>
        <r>   10.4405 </r>
        <r>   10.4405 </r>
        <r>   10.6617 </r>
        <r>   11.6540 </r>
        <r>   11.6540 </r>
        <r>   12.3153 </r>
        <r>   12.3153 </r>
        <r>   12.6508 </r>
        <r>   12.6508 </r>
        <r>   12.7918 </r>
        <r>   13.2796 </r>
        <r>   14.0063 </r>
        <r>   14.0251 </r>
        <r>   14.4795 </r>
        <r>   14.4822 </r>
       </set>
       <set comment="kpoint 15">
        <r>  -23.3740 </r>
        <r>  -23.3660 </r>
        <r>  -10.2190 </r>
        <r>  -10.2190 </r>
        <r>  -10.1854 </r>
        <r>  -10.1645 </r>
        <r>  -10.1295 </r>
        <r>  -10.1295 </r>
        <r>   -0.8346 </r>
        <r>    1.2388 </r>
        <r>    1.2388 </r>
        <r>    2.2667 </r>
        <r>    2.5841 </r>
        <r>    2.5841 </r>
        <r>    3.3546 </r>
        <r>    3.4640 </r>
        <r>    3.4640 </r>
        <r>    3.7215 </r>
        <r>    3.7215 </r>
        <r>    4.6189 </r>
        <r>    5.2408 </r>
        <r>    5.2408 </r>
        <r>    6.1294 </r>
        <r>    6.3975 </r>
        <r>    6.7228 </r>
        <r>    6.7228 </r>
        <r>    7.3117 </r>
        <r>    7.8882 </r>
        <r>    7.8882 </r>
        <r>    8.2425 </r>
        <r>    8.2425 </r>
        <r>    9.4036 </r>
        <r>    9.6154 </r>
        <r>   10.4889 </r>
        <r>   10.4889 </r>
        <r>   10.5233 </r>
        <r>   11.6567 </r>
        <r>   11.6567 </r>
        <r>   12.3391 </r>
        <r>   12.3391 </r>
        <r>   12.6185 </r>
        <r>   12.6185 </r>
        <r>   12.9510 </r>
        <r>   13.2913 </r>
        <r>   13.9027 </r>
        <r>   13.9585 </r>
        <r>   14.3540 </r>
        <r>   14.3542 </r>
       </set>
       <set comment="kpoint 16">
        <r>  -23.3738 </r>
        <r>  -23.3662 </r>
        <r>  -10.2191 </r>
        <r>  -10.2191 </r>
        <r>  -10.1815 </r>
        <r>  -10.1693 </r>
        <r>  -10.1303 </r>
        <r>  -10.1303 </r>
        <r>   -0.7866 </r>
        <r>    1.2490 </r>
        <r>    1.2490 </r>
        <r>    2.1766 </r>
        <r>    2.5336 </r>
        <r>    2.5336 </r>
        <r>    3.4086 </r>
        <r>    3.4737 </r>
        <r>    3.4737 </r>
        <r>    3.7315 </r>
        <r>    3.7315 </r>
        <r>    4.5855 </r>
        <r>    5.2819 </r>
        <r>    5.2819 </r>
        <r>    6.1664 </r>
        <r>    6.5198 </r>
        <r>    6.7487 </r>
        <r>    6.7487 </r>
        <r>    7.1566 </r>
        <r>    7.9159 </r>
        <r>    7.9159 </r>
        <r>    8.1859 </r>
        <r>    8.1859 </r>
        <r>    9.3768 </r>
        <r>    9.6105 </r>
        <r>   10.3852 </r>
        <r>   10.5223 </r>
        <r>   10.5223 </r>
        <r>   11.6446 </r>
        <r>   11.6446 </r>
        <r>   12.3760 </r>
        <r>   12.3760 </r>
        <r>   12.6017 </r>
        <r>   12.6017 </r>
        <r>   13.1153 </r>
        <r>   13.3070 </r>
        <r>   13.7704 </r>
        <r>   13.9066 </r>
        <r>   14.2344 </r>
        <r>   14.2344 </r>
       </set>
       <set comment="kpoint 17">
        <r>  -23.3736 </r>
        <r>  -23.3664 </r>
        <r>  -10.2193 </r>
        <r>  -10.2193 </r>
        <r>  -10.1777 </r>
        <r>  -10.1742 </r>
        <r>  -10.1312 </r>
        <r>  -10.1312 </r>
        <r>   -0.7357 </r>
        <r>    1.2592 </r>
        <r>    1.2592 </r>
        <r>    2.0902 </r>
        <r>    2.4824 </r>
        <r>    2.4824 </r>
        <r>    3.4653 </r>
        <r>    3.4858 </r>
        <r>    3.4858 </r>
        <r>    3.7441 </r>
        <r>    3.7441 </r>
        <r>    4.5507 </r>
        <r>    5.3230 </r>
        <r>    5.3230 </r>
        <r>    6.2060 </r>
        <r>    6.6335 </r>
        <r>    6.7527 </r>
        <r>    6.7527 </r>
        <r>    7.0012 </r>
        <r>    7.9731 </r>
        <r>    7.9731 </r>
        <r>    8.1308 </r>
        <r>    8.1308 </r>
        <r>    9.2829 </r>
        <r>    9.6878 </r>
        <r>   10.2490 </r>
        <r>   10.5406 </r>
        <r>   10.5406 </r>
        <r>   11.6167 </r>
        <r>   11.6167 </r>
        <r>   12.4253 </r>
        <r>   12.4253 </r>
        <r>   12.6007 </r>
        <r>   12.6007 </r>
        <r>   13.2830 </r>
        <r>   13.3273 </r>
        <r>   13.6296 </r>
        <r>   13.8512 </r>
        <r>   14.1215 </r>
        <r>   14.1215 </r>
       </set>
       <set comment="kpoint 18">
        <r>  -23.3733 </r>
        <r>  -23.3665 </r>
        <r>  -10.2194 </r>
        <r>  -10.2194 </r>
        <r>  -10.1790 </r>
        <r>  -10.1739 </r>
        <r>  -10.1321 </r>
        <r>  -10.1321 </r>
        <r>   -0.6822 </r>
        <r>    1.2692 </r>
        <r>    1.2692 </r>
        <r>    2.0078 </r>
        <r>    2.4309 </r>
        <r>    2.4309 </r>
        <r>    3.5004 </r>
        <r>    3.5004 </r>
        <r>    3.5245 </r>
        <r>    3.7591 </r>
        <r>    3.7591 </r>
        <r>    4.5144 </r>
        <r>    5.3635 </r>
        <r>    5.3635 </r>
        <r>    6.2481 </r>
        <r>    6.7361 </r>
        <r>    6.7371 </r>
        <r>    6.7371 </r>
        <r>    6.8460 </r>
        <r>    8.0572 </r>
        <r>    8.0572 </r>
        <r>    8.0777 </r>
        <r>    8.0777 </r>
        <r>    9.1853 </r>
        <r>    9.7858 </r>
        <r>   10.1157 </r>
        <r>   10.5446 </r>
        <r>   10.5446 </r>
        <r>   11.5738 </r>
        <r>   11.5738 </r>
        <r>   12.4856 </r>
        <r>   12.4856 </r>
        <r>   12.6144 </r>
        <r>   12.6144 </r>
        <r>   13.3527 </r>
        <r>   13.4528 </r>
        <r>   13.4815 </r>
        <r>   13.7933 </r>
        <r>   14.0161 </r>
        <r>   14.0161 </r>
       </set>
       <set comment="kpoint 19">
        <r>  -23.3731 </r>
        <r>  -23.3667 </r>
        <r>  -10.2194 </r>
        <r>  -10.2194 </r>
        <r>  -10.1838 </r>
        <r>  -10.1701 </r>
        <r>  -10.1330 </r>
        <r>  -10.1330 </r>
        <r>   -0.6260 </r>
        <r>    1.2791 </r>
        <r>    1.2791 </r>
        <r>    1.9296 </r>
        <r>    2.3796 </r>
        <r>    2.3796 </r>
        <r>    3.5176 </r>
        <r>    3.5176 </r>
        <r>    3.5858 </r>
        <r>    3.7762 </r>
        <r>    3.7762 </r>
        <r>    4.4766 </r>
        <r>    5.4030 </r>
        <r>    5.4030 </r>
        <r>    6.2927 </r>
        <r>    6.6913 </r>
        <r>    6.7064 </r>
        <r>    6.7064 </r>
        <r>    6.8248 </r>
        <r>    8.0274 </r>
        <r>    8.0274 </r>
        <r>    8.1637 </r>
        <r>    8.1637 </r>
        <r>    9.0994 </r>
        <r>    9.8916 </r>
        <r>    9.9862 </r>
        <r>   10.5355 </r>
        <r>   10.5355 </r>
        <r>   11.5176 </r>
        <r>   11.5176 </r>
        <r>   12.5539 </r>
        <r>   12.5539 </r>
        <r>   12.6403 </r>
        <r>   12.6403 </r>
        <r>   13.3277 </r>
        <r>   13.3840 </r>
        <r>   13.6207 </r>
        <r>   13.7365 </r>
        <r>   13.9189 </r>
        <r>   13.9189 </r>
       </set>
       <set comment="kpoint 20">
        <r>  -23.3729 </r>
        <r>  -23.3669 </r>
        <r>  -10.2194 </r>
        <r>  -10.2194 </r>
        <r>  -10.1886 </r>
        <r>  -10.1663 </r>
        <r>  -10.1341 </r>
        <r>  -10.1341 </r>
        <r>   -0.5674 </r>
        <r>    1.2887 </r>
        <r>    1.2887 </r>
        <r>    1.8559 </r>
        <r>    2.3286 </r>
        <r>    2.3286 </r>
        <r>    3.5374 </r>
        <r>    3.5374 </r>
        <r>    3.6487 </r>
        <r>    3.7953 </r>
        <r>    3.7953 </r>
        <r>    4.4374 </r>
        <r>    5.4412 </r>
        <r>    5.4412 </r>
        <r>    6.3399 </r>
        <r>    6.5379 </r>
        <r>    6.6649 </r>
        <r>    6.6649 </r>
        <r>    6.8964 </r>
        <r>    7.9804 </r>
        <r>    7.9804 </r>
        <r>    8.2879 </r>
        <r>    8.2879 </r>
        <r>    9.0309 </r>
        <r>    9.8611 </r>
        <r>   10.0017 </r>
        <r>   10.5149 </r>
        <r>   10.5149 </r>
        <r>   11.4505 </r>
        <r>   11.4505 </r>
        <r>   12.6264 </r>
        <r>   12.6264 </r>
        <r>   12.6757 </r>
        <r>   12.6757 </r>
        <r>   13.1694 </r>
        <r>   13.4215 </r>
        <r>   13.6618 </r>
        <r>   13.8055 </r>
        <r>   13.8306 </r>
        <r>   13.8306 </r>
       </set>
       <set comment="kpoint 21">
        <r>  -23.3726 </r>
        <r>  -23.3670 </r>
        <r>  -10.2194 </r>
        <r>  -10.2194 </r>
        <r>  -10.1932 </r>
        <r>  -10.1627 </r>
[...]
       <r>   11.9943    0.0000 </r>
       <r>   11.9943    0.0000 </r>
       <r>   12.5862    0.0000 </r>
       <r>   12.5862    0.0000 </r>
       <r>   12.7662    0.0000 </r>
       <r>   12.7662    0.0000 </r>
       <r>   13.7331    0.0000 </r>
       <r>   13.7331    0.0000 </r>
       <r>   14.5045    0.0000 </r>
       <r>   14.5045    0.0000 </r>
      </set>
      <set comment="kpoint 34">
       <r>  -23.3693    1.0000 </r>
       <r>  -23.3693    1.0000 </r>
       <r>  -10.2132    1.0000 </r>
       <r>  -10.2132    1.0000 </r>
       <r>  -10.1853    1.0000 </r>
       <r>  -10.1853    1.0000 </r>
       <r>  -10.1637    1.0000 </r>
       <r>  -10.1637    1.0000 </r>
       <r>    1.2494    0.0000 </r>
       <r>    1.2494    0.0000 </r>
       <r>    1.3859    0.0000 </r>
       <r>    1.3859    0.0000 </r>
       <r>    1.6261    0.0000 </r>
       <r>    1.6261    0.0000 </r>
       <r>    3.1218    0.0000 </r>
       <r>    3.1218    0.0000 </r>
       <r>    4.2700    0.0000 </r>
       <r>    4.2700    0.0000 </r>
       <r>    4.3244    0.0000 </r>
       <r>    4.3244    0.0000 </r>
       <r>    5.5845    0.0000 </r>
       <r>    5.5845    0.0000 </r>
       <r>    5.7573    0.0000 </r>
       <r>    5.7573    0.0000 </r>
       <r>    5.9190    0.0000 </r>
       <r>    5.9190    0.0000 </r>
       <r>    8.2569    0.0000 </r>
       <r>    8.2569    0.0000 </r>
       <r>    8.8638    0.0000 </r>
       <r>    8.8638    0.0000 </r>
       <r>    8.9200    0.0000 </r>
       <r>    8.9200    0.0000 </r>
       <r>    9.5159    0.0000 </r>
       <r>    9.5159    0.0000 </r>
       <r>   10.0626    0.0000 </r>
       <r>   10.0626    0.0000 </r>
       <r>   10.4419    0.0000 </r>
       <r>   10.4419    0.0000 </r>
       <r>   12.3548    0.0000 </r>
       <r>   12.3548    0.0000 </r>
       <r>   12.7543    0.0000 </r>
       <r>   12.7543    0.0000 </r>
       <r>   13.1702    0.0000 </r>
       <r>   13.1702    0.0000 </r>
       <r>   13.4091    0.0000 </r>
       <r>   13.4091    0.0000 </r>
       <r>   14.1495    0.0000 </r>
       <r>   14.1495    0.0000 </r>
      </set>
      <set comment="kpoint 35">
       <r>  -23.3692    1.0000 </r>
       <r>  -23.3692    1.0000 </r>
       <r>  -10.1883    1.0000 </r>
       <r>  -10.1883    1.0000 </r>
       <r>  -10.1883    1.0000 </r>
       <r>  -10.1883    1.0000 </r>
       <r>  -10.1883    1.0000 </r>
       <r>  -10.1883    1.0000 </r>
       <r>    1.4739    0.0000 </r>
       <r>    1.4739    0.0000 </r>
       <r>    1.4739    0.0000 </r>
       <r>    1.4739    0.0000 </r>
       <r>    1.4739    0.0000 </r>
       <r>    1.4739    0.0000 </r>
       <r>    2.8264    0.0000 </r>
       <r>    2.8264    0.0000 </r>
       <r>    4.3362    0.0000 </r>
       <r>    4.3362    0.0000 </r>
       <r>    4.3362    0.0000 </r>
       <r>    4.3362    0.0000 </r>
       <r>    5.7703    0.0000 </r>
       <r>    5.7703    0.0000 </r>
       <r>    5.7703    0.0000 </r>
       <r>    5.7703    0.0000 </r>
       <r>    5.7703    0.0000 </r>
       <r>    5.7703    0.0000 </r>
       <r>    8.8070    0.0000 </r>
       <r>    8.8070    0.0000 </r>
       <r>    8.8070    0.0000 </r>
       <r>    8.8070    0.0000 </r>
       <r>    8.8070    0.0000 </r>
       <r>    8.8070    0.0000 </r>
       <r>    9.7048    0.0000 </r>
       <r>    9.7048    0.0000 </r>
       <r>    9.7048    0.0000 </r>
       <r>    9.7048    0.0000 </r>
       <r>    9.7048    0.0000 </r>
       <r>    9.7048    0.0000 </r>
       <r>   12.1600    0.0000 </r>
       <r>   12.1600    0.0000 </r>
       <r>   13.8430    0.0000 </r>
       <r>   13.8430    0.0000 </r>
       <r>   13.8430    0.0000 </r>
       <r>   13.8430    0.0000 </r>
       <r>   13.8430    0.0000 </r>
       <r>   13.8430    0.0000 </r>
       <r>   14.0863    0.0000 </r>
       <r>   14.0863    0.0000 </r>
      </set>
     </set>
    </set>
   </array>
  </eigenvalues>
  <separator name="orbital magnetization" >
   <v name="MAGDIPOLOUT">      0.00000000      0.00000000      0.00000000</v>
  </separator>
  <dos>
   <i name="efermi">      0.50248713 </i>
   <total>
    <array>
     <dimension dim="1">gridpoints</dimension>
     <dimension dim="2">spin</dimension>
     <field>energy</field>
     <field>total</field>
     <field>integrated</field>
     <set>
      <set comment="spin 1">
       <r>   -25.3107     0.0000     0.0000 </r>
       <r>   -25.1688     0.0000     0.0000 </r>
       <r>   -25.0270     0.0000     0.0000 </r>
       <r>   -24.8851     0.0000     0.0000 </r>
       <r>   -24.7432     0.0000     0.0000 </r>
       <r>   -24.6013     0.0000     0.0000 </r>
       <r>   -24.4594     0.0000     0.0000 </r>
       <r>   -24.3175     0.0000     0.0000 </r>
       <r>   -24.1756     0.0000     0.0000 </r>
       <r>   -24.0337     0.0000     0.0000 </r>
       <r>   -23.8918     0.0000     0.0000 </r>
       <r>   -23.7499     0.0000     0.0000 </r>
       <r>   -23.6080     0.0000     0.0000 </r>
       <r>   -23.4661     0.0923     0.0131 </r>
       <r>   -23.3242    25.3114     3.6046 </r>
       <r>   -23.1823     2.7865     4.0000 </r>
       <r>   -23.0404     0.0000     4.0000 </r>
       <r>   -22.8985     0.0000     4.0000 </r>
       <r>   -22.7567     0.0000     4.0000 </r>
       <r>   -22.6148     0.0000     4.0000 </r>
       <r>   -22.4729     0.0000     4.0000 </r>
       <r>   -22.3310     0.0000     4.0000 </r>
       <r>   -22.1891     0.0000     4.0000 </r>
       <r>   -22.0472     0.0000     4.0000 </r>
       <r>   -21.9053     0.0000     4.0000 </r>
       <r>   -21.7634     0.0000     4.0000 </r>
       <r>   -21.6215     0.0000     4.0000 </r>
       <r>   -21.4796     0.0000     4.0000 </r>
       <r>   -21.3377     0.0000     4.0000 </r>
       <r>   -21.1958     0.0000     4.0000 </r>
       <r>   -21.0539     0.0000     4.0000 </r>
       <r>   -20.9120     0.0000     4.0000 </r>
       <r>   -20.7701     0.0000     4.0000 </r>
       <r>   -20.6282     0.0000     4.0000 </r>
       <r>   -20.4864     0.0000     4.0000 </r>
       <r>   -20.3445     0.0000     4.0000 </r>
       <r>   -20.2026     0.0000     4.0000 </r>
       <r>   -20.0607     0.0000     4.0000 </r>
       <r>   -19.9188     0.0000     4.0000 </r>
       <r>   -19.7769     0.0000     4.0000 </r>
       <r>   -19.6350     0.0000     4.0000 </r>
       <r>   -19.4931     0.0000     4.0000 </r>
       <r>   -19.3512     0.0000     4.0000 </r>
       <r>   -19.2093     0.0000     4.0000 </r>
       <r>   -19.0674     0.0000     4.0000 </r>
       <r>   -18.9255     0.0000     4.0000 </r>
       <r>   -18.7836     0.0000     4.0000 </r>
       <r>   -18.6417     0.0000     4.0000 </r>
       <r>   -18.4998     0.0000     4.0000 </r>
       <r>   -18.3580     0.0000     4.0000 </r>
       <r>   -18.2161     0.0000     4.0000 </r>
       <r>   -18.0742     0.0000     4.0000 </r>
       <r>   -17.9323     0.0000     4.0000 </r>
       <r>   -17.7904     0.0000     4.0000 </r>
       <r>   -17.6485     0.0000     4.0000 </r>
       <r>   -17.5066     0.0000     4.0000 </r>
       <r>   -17.3647     0.0000     4.0000 </r>
       <r>   -17.2228     0.0000     4.0000 </r>
       <r>   -17.0809     0.0000     4.0000 </r>
       <r>   -16.9390     0.0000     4.0000 </r>
       <r>   -16.7971     0.0000     4.0000 </r>
       <r>   -16.6552     0.0000     4.0000 </r>
       <r>   -16.5133     0.0000     4.0000 </r>
       <r>   -16.3714     0.0000     4.0000 </r>
       <r>   -16.2295     0.0000     4.0000 </r>
       <r>   -16.0877     0.0000     4.0000 </r>
       <r>   -15.9458     0.0000     4.0000 </r>
       <r>   -15.8039     0.0000     4.0000 </r>
       <r>   -15.6620     0.0000     4.0000 </r>
       <r>   -15.5201     0.0000     4.0000 </r>
       <r>   -15.3782     0.0000     4.0000 </r>
       <r>   -15.2363     0.0000     4.0000 </r>
       <r>   -15.0944     0.0000     4.0000 </r>
       <r>   -14.9525     0.0000     4.0000 </r>
       <r>   -14.8106     0.0000     4.0000 </r>
       <r>   -14.6687     0.0000     4.0000 </r>
       <r>   -14.5268     0.0000     4.0000 </r>
       <r>   -14.3849     0.0000     4.0000 </r>
       <r>   -14.2430     0.0000     4.0000 </r>
       <r>   -14.1011     0.0000     4.0000 </r>
       <r>   -13.9592     0.0000     4.0000 </r>
       <r>   -13.8174     0.0000     4.0000 </r>
       <r>   -13.6755     0.0000     4.0000 </r>
       <r>   -13.5336     0.0000     4.0000 </r>
       <r>   -13.3917     0.0000     4.0000 </r>
       <r>   -13.2498     0.0000     4.0000 </r>
       <r>   -13.1079     0.0000     4.0000 </r>
       <r>   -12.9660     0.0000     4.0000 </r>
       <r>   -12.8241     0.0000     4.0000 </r>
       <r>   -12.6822     0.0000     4.0000 </r>
       <r>   -12.5403     0.0000     4.0000 </r>
       <r>   -12.3984     0.0000     4.0000 </r>
       <r>   -12.2565     0.0000     4.0000 </r>
       <r>   -12.1146     0.0000     4.0000 </r>
       <r>   -11.9727     0.0000     4.0000 </r>
       <r>   -11.8308     0.0000     4.0000 </r>
       <r>   -11.6890     0.0000     4.0000 </r>
       <r>   -11.5471     0.0000     4.0000 </r>
       <r>   -11.4052     0.0000     4.0000 </r>
       <r>   -11.2633     0.0000     4.0000 </r>
       <r>   -11.1214     0.0000     4.0000 </r>
       <r>   -10.9795     0.0000     4.0000 </r>
       <r>   -10.8376     0.0000     4.0000 </r>
       <r>   -10.6957     0.0000     4.0000 </r>
       <r>   -10.5538     0.0000     4.0000 </r>
       <r>   -10.4119     0.0000     4.0000 </r>
       <r>   -10.2700     3.4170     4.4849 </r>
       <r>   -10.1281    67.3364    14.0395 </r>
       <r>    -9.9862    13.8166    15.9999 </r>
       <r>    -9.8443     0.0004    16.0000 </r>
       <r>    -9.7024     0.0000    16.0000 </r>
       <r>    -9.5605     0.0000    16.0000 </r>
       <r>    -9.4187     0.0000    16.0000 </r>
       <r>    -9.2768     0.0000    16.0000 </r>
       <r>    -9.1349     0.0000    16.0000 </r>
       <r>    -8.9930     0.0000    16.0000 </r>
       <r>    -8.8511     0.0000    16.0000 </r>
       <r>    -8.7092     0.0000    16.0000 </r>
       <r>    -8.5673     0.0000    16.0000 </r>
       <r>    -8.4254     0.0000    16.0000 </r>
       <r>    -8.2835     0.0000    16.0000 </r>
       <r>    -8.1416     0.0000    16.0000 </r>
       <r>    -7.9997     0.0000    16.0000 </r>
       <r>    -7.8578     0.0000    16.0000 </r>
       <r>    -7.7159     0.0000    16.0000 </r>
       <r>    -7.5740     0.0000    16.0000 </r>
       <r>    -7.4321     0.0000    16.0000 </r>
       <r>    -7.2903     0.0000    16.0000 </r>
       <r>    -7.1484     0.0000    16.0000 </r>
       <r>    -7.0065     0.0000    16.0000 </r>
       <r>    -6.8646     0.0000    16.0000 </r>
       <r>    -6.7227     0.0000    16.0000 </r>
       <r>    -6.5808     0.0000    16.0000 </r>
       <r>    -6.4389     0.0000    16.0000 </r>
       <r>    -6.2970     0.0000    16.0000 </r>
       <r>    -6.1551     0.0000    16.0000 </r>
       <r>    -6.0132     0.0000    16.0000 </r>
       <r>    -5.8713     0.0000    16.0000 </r>
       <r>    -5.7294     0.0000    16.0000 </r>
       <r>    -5.5875     0.0000    16.0000 </r>
       <r>    -5.4456     0.0000    16.0000 </r>
       <r>    -5.3037     0.0000    16.0000 </r>
       <r>    -5.1618     0.0000    16.0000 </r>
       <r>    -5.0200     0.0000    16.0000 </r>
       <r>    -4.8781     0.0000    16.0000 </r>
       <r>    -4.7362     0.0000    16.0000 </r>
       <r>    -4.5943     0.0000    16.0000 </r>
       <r>    -4.4524     0.0000    16.0000 </r>
       <r>    -4.3105     0.0000    16.0000 </r>
       <r>    -4.1686     0.0000    16.0000 </r>
       <r>    -4.0267     0.0000    16.0000 </r>
       <r>    -3.8848     0.0000    16.0000 </r>
       <r>    -3.7429     0.0000    16.0000 </r>
       <r>    -3.6010     0.0000    16.0000 </r>
       <r>    -3.4591     0.0000    16.0000 </r>
       <r>    -3.3172     0.0000    16.0000 </r>
       <r>    -3.1753     0.0000    16.0000 </r>
       <r>    -3.0334     0.0000    16.0000 </r>
       <r>    -2.8915     0.0000    16.0000 </r>
       <r>    -2.7497     0.0000    16.0000 </r>
       <r>    -2.6078     0.0000    16.0000 </r>
       <r>    -2.4659     0.0000    16.0000 </r>
       <r>    -2.3240     0.0000    16.0000 </r>
       <r>    -2.1821     0.0000    16.0000 </r>
       <r>    -2.0402     0.0000    16.0000 </r>
       <r>    -1.8983     0.0000    16.0000 </r>
       <r>    -1.7564     0.0000    16.0000 </r>
       <r>    -1.6145     0.0000    16.0000 </r>
       <r>    -1.4726     0.0000    16.0000 </r>
       <r>    -1.3307     0.0000    16.0000 </r>
       <r>    -1.1888     0.0092    16.0013 </r>
       <r>    -1.0469     0.1999    16.0297 </r>
       <r>    -0.9050     0.4691    16.0962 </r>
       <r>    -0.7631     0.5540    16.1749 </r>
       <r>    -0.6213     0.9746    16.3131 </r>
       <r>    -0.4794     0.5601    16.3926 </r>
       <r>    -0.3375     1.3685    16.5868 </r>
       <r>    -0.1956     1.0400    16.7344 </r>
       <r>    -0.0537     1.6712    16.9715 </r>
       <r>     0.0882     0.8970    17.0988 </r>
       <r>     0.2301     2.4310    17.4437 </r>
       <r>     0.3720     1.9330    17.7180 </r>
       <r>     0.5139     2.2722    18.0404 </r>
       <r>     0.6558     2.5057    18.3960 </r>
       <r>     0.7977     4.0497    18.9706 </r>
       <r>     0.9396     1.4303    19.1735 </r>
       <r>     1.0815     2.8647    19.5800 </r>
       <r>     1.2234     2.7300    19.9674 </r>
       <r>     1.3653     5.2570    20.7133 </r>
       <r>     1.5072     7.8105    21.8216 </r>
       <r>     1.6490     5.1490    22.5522 </r>
       <r>     1.7909     4.5571    23.1988 </r>
       <r>     1.9328     5.6146    23.9955 </r>
       <r>     2.0747     4.4725    24.6301 </r>
       <r>     2.2166     6.9407    25.6149 </r>
       <r>     2.3585     4.8244    26.2995 </r>
       <r>     2.5004     4.2665    26.9049 </r>
       <r>     2.6423     3.7847    27.4419 </r>
       <r>     2.7842     4.1456    28.0301 </r>
       <r>     2.9261     2.6002    28.3991 </r>
       <r>     3.0680     2.5422    28.7598 </r>
       <r>     3.2099     5.2439    29.5039 </r>
       <r>     3.3518     4.5825    30.1541 </r>
       <r>     3.4937     4.4289    30.7825 </r>
       <r>     3.6356     8.8796    32.0425 </r>
       <r>     3.7774     7.4088    33.0938 </r>
       <r>     3.9193     7.9232    34.2180 </r>
       <r>     4.0612     7.7816    35.3222 </r>
       <r>     4.2031    12.1354    37.0441 </r>
       <r>     4.3450     6.5769    37.9773 </r>
       <r>     4.4869     4.9509    38.6798 </r>
       <r>     4.6288     1.3087    38.8655 </r>
       <r>     4.7707     5.0083    39.5762 </r>
       <r>     4.9126     2.2701    39.8983 </r>
       <r>     5.0545     1.9359    40.1730 </r>
       <r>     5.1964     4.6015    40.8259 </r>
       <r>     5.3383    11.5857    42.4698 </r>
       <r>     5.4802     8.0556    43.6129 </r>
       <r>     5.6221     4.7695    44.2896 </r>
       <r>     5.7640     5.6051    45.0849 </r>
       <r>     5.9059     3.1879    45.5373 </r>
       <r>     6.0477     7.3759    46.5839 </r>
       <r>     6.1896     7.7553    47.6843 </r>
       <r>     6.3315     8.3632    48.8710 </r>
       <r>     6.4734     4.0601    49.4471 </r>
       <r>     6.6153     5.1162    50.1730 </r>
       <r>     6.7572     3.1251    50.6165 </r>
       <r>     6.8991     5.0355    51.3310 </r>
       <r>     7.0410     2.3673    51.6669 </r>
       <r>     7.1829     2.7017    52.0503 </r>
       <r>     7.3248     2.6600    52.4277 </r>
       <r>     7.4667     2.5567    52.7905 </r>
       <r>     7.6086     2.1150    53.0906 </r>
       <r>     7.7505     3.4228    53.5763 </r>
       <r>     7.8924     8.9962    54.8528 </r>
       <r>     8.0343     8.6844    56.0850 </r>
       <r>     8.1762     5.8072    56.9090 </r>
       <r>     8.3180     3.2225    57.3663 </r>
       <r>     8.4599     4.6693    58.0288 </r>
       <r>     8.6018     9.3931    59.3616 </r>
       <r>     8.7437     6.1732    60.2376 </r>
       <r>     8.8856     3.0683    60.6729 </r>
       <r>     9.0275     3.7389    61.2035 </r>
       <r>     9.1694     7.2927    62.2383 </r>
       <r>     9.3113     5.0654    62.9570 </r>
       <r>     9.4532     8.0980    64.1061 </r>
       <r>     9.5951     8.1304    65.2597 </r>
       <r>     9.7370     3.6413    65.7764 </r>
       <r>     9.8789     4.8834    66.4693 </r>
       <r>    10.0208     3.8139    67.0105 </r>
       <r>    10.1627     6.8876    67.9878 </r>
       <r>    10.3046     4.3017    68.5982 </r>
       <r>    10.4464     8.0797    69.7447 </r>
       <r>    10.5883     7.2820    70.7779 </r>
       <r>    10.7302     2.5454    71.1391 </r>
       <r>    10.8721     5.9340    71.9811 </r>
       <r>    11.0140     6.5077    72.9045 </r>
       <r>    11.1559     6.6914    73.8540 </r>
       <r>    11.2978     5.8487    74.6839 </r>
       <r>    11.4397     4.6807    75.3480 </r>
       <r>    11.5816     7.5171    76.4146 </r>
       <r>    11.7235     7.0085    77.4091 </r>
       <r>    11.8654     7.1732    78.4269 </r>
       <r>    12.0073     8.4521    79.6262 </r>
       <r>    12.1492     3.5822    80.1345 </r>
       <r>    12.2911     6.5125    81.0586 </r>
       <r>    12.4330     9.2191    82.3667 </r>
       <r>    12.5749     4.5892    83.0179 </r>
       <r>    12.7167     8.5172    84.2264 </r>
       <r>    12.8586     9.0941    85.5168 </r>
       <r>    13.0005     6.2990    86.4106 </r>
       <r>    13.1424     4.1790    87.0036 </r>
       <r>    13.2843     4.4898    87.6407 </r>
       <r>    13.4262     8.1818    88.8016 </r>
       <r>    13.5681     4.8500    89.4898 </r>
       <r>    13.7100     5.9497    90.3340 </r>
       <r>    13.8519     8.9580    91.6051 </r>
       <r>    13.9938     3.9819    92.1701 </r>
       <r>    14.1357     7.5232    93.2376 </r>
       <r>    14.2776     5.8678    94.0702 </r>
       <r>    14.4195     6.1721    94.9460 </r>
       <r>    14.5614     2.9122    95.3592 </r>
       <r>    14.7033     1.4038    95.5584 </r>
       <r>    14.8452     1.2418    95.7346 </r>
       <r>    14.9870     0.0804    95.7460 </r>
       <r>    15.1289     0.8861    95.8718 </r>
       <r>    15.2708     0.6473    95.9636 </r>
       <r>    15.4127     0.2555    95.9999 </r>
       <r>    15.5546     0.0009    96.0000 </r>
       <r>    15.6965     0.0000    96.0000 </r>
       <r>    15.8384     0.0000    96.0000 </r>
       <r>    15.9803     0.0000    96.0000 </r>
       <r>    16.1222     0.0000    96.0000 </r>
       <r>    16.2641     0.0000    96.0000 </r>
       <r>    16.4060     0.0000    96.0000 </r>
       <r>    16.5479     0.0000    96.0000 </r>
       <r>    16.6898     0.0000    96.0000 </r>
       <r>    16.8317     0.0000    96.0000 </r>
       <r>    16.9736     0.0000    96.0000 </r>
       <r>    17.1154     0.0000    96.0000 </r>
       <r>    17.2573     0.0000    96.0000 </r>
      </set>
     </set>
    </array>
   </total>
  </dos>
 </calculation>
 <structure name="finalpos" >
  <crystal>
   <varray name="basis" >
    <v>       6.16153000       0.00000000       0.00000000 </v>
    <v>       0.00000000       6.16153000       0.00000000 </v>
    <v>       0.00000000       0.00000000       6.16153000 </v>
   </varray>
   <i name="volume">    233.91910957 </i>
   <varray name="rec_basis" >
    <v>       0.16229735      -0.00000000       0.00000000 </v>
    <v>       0.00000000       0.16229735       0.00000000 </v>
    <v>      -0.00000000      -0.00000000       0.16229735 </v>
   </varray>
  </crystal>
  <varray name="positions" >
   <v>       0.00000000       0.00000000       0.00000000 </v>
   <v>       0.50000000       0.50000000       0.50000000 </v>
  </varray>
 </structure>
</modeling>
