Nb                                      
   1.00000000000000     
     3.322390    0.000000    0.000000
     0.000000    3.322390    0.000000
     0.000000    0.000000    3.322390
   Nb
     2
Direct
  0.000000  0.000000  0.000000
  0.500000  0.500000  0.500000
 
   32   32   32
  278.27      271.83      253.28      224.54      188.23      147.74      107.45      72.082      45.126      27.442    
  17.362      12.088      9.4790      8.2687      7.7098      7.4414      7.3550      7.4414      7.7098      8.2687    
  9.4790      12.088      17.362      27.442      45.126      72.082      107.45      147.74      188.23      224.54    
  253.28      271.83      271.83      265.60      247.57      219.50      183.92      144.19      104.71      70.181    
  43.970      26.840      17.094      11.982      9.4496      8.2697      7.7205      7.4546      7.3687      7.4546    
  7.7205      8.2697      9.4496      11.982      17.094      26.840      43.970      70.181      104.71      144.19    
  183.92      219.50      247.57      265.60      253.28      247.57      230.92      204.70      171.19      133.73    
  96.730      64.699      40.674      25.138      16.332      11.680      9.3638      8.2700      7.7485      7.4898    
  7.4055      7.4898      7.7485      8.2700      9.3638      11.680      16.332      25.138      40.674      64.699    
  96.730      133.73      171.19      204.70      230.92      247.57      224.54      219.50      204.70      181.16    
  150.89      117.19      84.311      56.342      35.749      22.627      15.199      11.226      9.2291      8.2628    
  7.7830      7.5362      7.4546      7.5362      7.7830      8.2628      9.2291      11.226      15.199      22.627    
  35.749      56.342      84.311      117.19      150.89      181.16      204.70      219.50      188.23      183.92    
  171.19      150.89      124.90      96.331      69.015      46.320      29.985      19.727      13.863      10.685    
  9.0589      8.2415      7.8119      7.5811      7.5038      7.5811      7.8119      8.2415      9.0589      10.685    
  13.863      19.727      29.985      46.320      69.015      96.331      124.90      150.89      171.19      183.92    
  147.74      144.19      133.73      117.19      96.331      73.905      53.025      36.148      24.273      16.852    
  12.511      10.126      8.8697      8.2025      7.8264      7.6150      7.5433      7.6150      7.8264      8.2025    
  8.8697      10.126      12.511      16.852      24.273      36.148      53.025      73.905      96.331      117.19    
  133.73      144.19      107.45      104.71      96.730      84.311      69.015      53.025      38.576      27.208    
  19.319      14.296      11.293      9.6064      8.6766      8.1458      7.8229      7.6339      7.5694      7.6339    
  7.8229      8.1458      8.6766      9.6064      11.293      14.296      19.319      27.208      38.576      53.025    
  69.015      84.311      96.730      104.71      72.082      70.181      64.699      56.342      46.320      36.148    
  27.208      20.292      15.429      12.238      10.293      9.1570      8.4886      8.0733      7.8021      7.6389    
  7.5831      7.6389      7.8021      8.0733      8.4886      9.1570      10.293      12.238      15.429      20.292    
  27.208      36.148      46.320      56.342      64.699      70.181      45.126      43.970      40.674      35.749    
  29.985      24.273      19.319      15.429      12.607      10.719      9.5251      8.7828      8.3080      7.9872    
  7.7669      7.6328      7.5872      7.6328      7.7669      7.9872      8.3080      8.7828      9.5251      10.719    
  12.607      15.429      19.319      24.273      29.985      35.749      40.674      43.970      27.442      26.840    
  25.138      22.627      19.727      16.852      14.296      12.238      10.719      9.6649      8.9545      8.4725    
  8.1343      7.8906      7.7201      7.6175      7.5831      7.6175      7.7201      7.8906      8.1343      8.4725    
  8.9545      9.6649      10.719      12.238      14.296      16.852      19.727      22.627      25.138      26.840    
  17.362      17.094      16.332      15.199      13.863      12.511      11.293      10.293      9.5251      8.9545    
  8.5314      8.2121      7.9691      7.7887      7.6646      7.5928      7.5694      7.5928      7.6646      7.7887    
  7.9691      8.2121      8.5314      8.9545      9.5251      10.293      11.293      12.511      13.863      15.199    
  16.332      17.094      12.088      11.982      11.680      11.226      10.685      10.126      9.6064      9.1570    
  8.7828      8.4725      8.2121      7.9944      7.8192      7.6893      7.6039      7.5577      7.5433      7.5577    
  7.6039      7.6893      7.8192      7.9944      8.2121      8.4725      8.7828      9.1570      9.6064      10.126    
  10.685      11.226      11.680      11.982      9.4790      9.4496      9.3638      9.2291      9.0589      8.8697    
  8.6766      8.4886      8.3080      8.1343      7.9691      7.8192      7.6942      7.6017      7.5430      7.5127    
  7.5038      7.5127      7.5430      7.6017      7.6942      7.8192      7.9691      8.1343      8.3080      8.4886    
  8.6766      8.8697      9.0589      9.2291      9.3638      9.4496      8.2687      8.2697      8.2700      8.2628    
  8.2415      8.2025      8.1458      8.0733      7.9872      7.8906      7.7887      7.6893      7.6017      7.5334    
  7.4875      7.4624      7.4546      7.4624      7.4875      7.5334      7.6017      7.6893      7.7887      7.8906    
  7.9872      8.0733      8.1458      8.2025      8.2415      8.2628      8.2700      8.2697      7.7098      7.7205    
  7.7485      7.7830      7.8119      7.8264      7.8229      7.8021      7.7669      7.7201      7.6646      7.6039    
  7.5430      7.4875      7.4434      7.4152      7.4055      7.4152      7.4434      7.4875      7.5430      7.6039    
  7.6646      7.7201      7.7669      7.8021      7.8229      7.8264      7.8119      7.7830      7.7485      7.7205    
  7.4414      7.4546      7.4898      7.5362      7.5811      7.6150      7.6339      7.6389      7.6328      7.6175    
  7.5928      7.5577      7.5127      7.4624      7.4152      7.3811      7.3687      7.3811      7.4152      7.4624    
  7.5127      7.5577      7.5928      7.6175      7.6328      7.6389      7.6339      7.6150      7.5811      7.5362    
  7.4898      7.4546      7.3550      7.3687      7.4055      7.4546      7.5038      7.5433      7.5694      7.5831    
  7.5872      7.5831      7.5694      7.5433      7.5038      7.4546      7.4055      7.3687      7.3550      7.3687    
  7.4055      7.4546      7.5038      7.5433      7.5694      7.5831      7.5872      7.5831      7.5694      7.5433    
  7.5038      7.4546      7.4055      7.3687      7.4414      7.4546      7.4898      7.5362      7.5811      7.6150    
  7.6339      7.6389      7.6328      7.6175      7.5928      7.5577      7.5127      7.4624      7.4152      7.3811    
  7.3687      7.3811      7.4152      7.4624      7.5127      7.5577      7.5928      7.6175      7.6328      7.6389    
  7.6339      7.6150      7.5811      7.5362      7.4898      7.4546      7.7098      7.7205      7.7485      7.7830    
  7.8119      7.8264      7.8229      7.8021      7.7669      7.7201      7.6646      7.6039      7.5430      7.4875    
  7.4434      7.4152      7.4055      7.4152      7.4434      7.4875      7.5430      7.6039      7.6646      7.7201    
  7.7669      7.8021      7.8229      7.8264      7.8119      7.7830      7.7485      7.7205      8.2687      8.2697    
  8.2700      8.2628      8.2415      8.2025      8.1458      8.0733      7.9872      7.8906      7.7887      7.6893    
  7.6017      7.5334      7.4875      7.4624      7.4546      7.4624      7.4875      7.5334      7.6017      7.6893    
  7.7887      7.8906      7.9872      8.0733      8.1458      8.2025      8.2415      8.2628      8.2700      8.2697    
  9.4790      9.4496      9.3638      9.2291      9.0589      8.8697      8.6766      8.4886      8.3080      8.1343    
  7.9691      7.8192      7.6942      7.6017      7.5430      7.5127      7.5038      7.5127      7.5430      7.6017    
  7.6942      7.8192      7.9691      8.1343      8.3080      8.4886      8.6766      8.8697      9.0589      9.2291    
  9.3638      9.4496      12.088      11.982      11.680      11.226      10.685      10.126      9.6064      9.1570    
  8.7828      8.4725      8.2121      7.9944      7.8192      7.6893      7.6039      7.5577      7.5433      7.5577    
  7.6039      7.6893      7.8192      7.9944      8.2121      8.4725      8.7828      9.1570      9.6064      10.126    
  10.685      11.226      11.680      11.982      17.362      17.094      16.332      15.199      13.863      12.511    
  11.293      10.293      9.5251      8.9545      8.5314      8.2121      7.9691      7.7887      7.6646      7.5928    
  7.5694      7.5928      7.6646      7.7887      7.9691      8.2121      8.5314      8.9545      9.5251      10.293    
  11.293      12.511      13.863      15.199      16.332      17.094      27.442      26.840      25.138      22.627    
  19.727      16.852      14.296      12.238      10.719      9.6649      8.9545      8.4725      8.1343      7.8906    
  7.7201      7.6175      7.5831      7.6175      7.7201      7.8906      8.1343      8.4725      8.9545      9.6649    
  10.719      12.238      14.296      16.852      19.727      22.627      25.138      26.840      45.126      43.970    
  40.674      35.749      29.985      24.273      19.319      15.429      12.607      10.719      9.5251      8.7828    
  8.3080      7.9872      7.7669      7.6328      7.5872      7.6328      7.7669      7.9872      8.3080      8.7828    
  9.5251      10.719      12.607      15.429      19.319      24.273      29.985      35.749      40.674      43.970    
  72.082      70.181      64.699      56.342      46.320      36.148      27.208      20.292      15.429      12.238    
  10.293      9.1570      8.4886      8.0733      7.8021      7.6389      7.5831      7.6389      7.8021      8.0733    
  8.4886      9.1570      10.293      12.238      15.429      20.292      27.208      36.148      46.320      56.342    
  64.699      70.181      107.45      104.71      96.730      84.311      69.015      53.025      38.576      27.208    
  19.319      14.296      11.293      9.6064      8.6766      8.1458      7.8229      7.6339      7.5694      7.6339    
  7.8229      8.1458      8.6766      9.6064      11.293      14.296      19.319      27.208      38.576      53.025    
  69.015      84.311      96.730      104.71      147.74      144.19      133.73      117.19      96.331      73.905    
  53.025      36.148      24.273      16.852      12.511      10.126      8.8697      8.2025      7.8264      7.6150    
  7.5433      7.6150      7.8264      8.2025      8.8697      10.126      12.511      16.852      24.273      36.148    
  53.025      73.905      96.331      117.19      133.73      144.19      188.23      183.92      171.19      150.89    
  124.90      96.331      69.015      46.320      29.985      19.727      13.863      10.685      9.0589      8.2415    
  7.8119      7.5811      7.5038      7.5811      7.8119      8.2415      9.0589      10.685      13.863      19.727    
  29.985      46.320      69.015      96.331      124.90      150.89      171.19      183.92      224.54      219.50    
  204.70      181.16      150.89      117.19      84.311      56.342      35.749      22.627      15.199      11.226    
  9.2291      8.2628      7.7830      7.5362      7.4546      7.5362      7.7830      8.2628      9.2291      11.226    
  15.199      22.627      35.749      56.342      84.311      117.19      150.89      181.16      204.70      219.50    
  253.28      247.57      230.92      204.70      171.19      133.73      96.730      64.699      40.674      25.138    
  16.332      11.680      9.3638      8.2700      7.7485      7.4898      7.4055      7.4898      7.7485      8.2700    
  9.3638      11.680      16.332      25.138      40.674      64.699      96.730      133.73      171.19      204.70    
  230.92      247.57      271.83      265.60      247.57      219.50      183.92      144.19      104.71      70.181    
  43.970      26.840      17.094      11.982      9.4496      8.2697      7.7205      7.4546      7.3687      7.4546    
  7.7205      8.2697      9.4496      11.982      17.094      26.840      43.970      70.181      104.71      144.19    
  183.92      219.50      247.57      265.60      271.83      265.60      247.57      219.50      183.92      144.19    
  104.71      70.181      43.970      26.840      17.094      11.982      9.4496      8.2697      7.7205      7.4546    
  7.3687      7.4546      7.7205      8.2697      9.4496      11.982      17.094      26.840      43.970      70.181    
  104.71      144.19      183.92      219.50      247.57      265.60      265.60      259.55      242.00      214.56    
  179.67      140.69      102.02      68.323      42.846      26.257      16.833      11.879      9.4204      8.2698    
  7.7300      7.4665      7.3811      7.4665      7.7300      8.2698      9.4204      11.879      16.833      26.257    
  42.846      68.323      102.02      140.69      179.67      214.56      242.00      259.55      247.57      242.00    
  225.72      200.04      167.15      130.40      94.197      62.972      39.645      24.609      16.094      11.585    
  9.3354      8.2682      7.7553      7.4990      7.4152      7.4990      7.7553      8.2682      9.3354      11.585    
  16.094      24.609      39.645      62.972      94.197      130.40      167.15      200.04      225.72      242.00    
  219.50      214.56      200.04      176.91      147.19      114.16      82.048      54.832      34.868      22.182    
  14.995      11.144      9.2037      8.2600      7.7878      7.5434      7.4624      7.5434      7.7878      8.2600    
  9.2037      11.144      14.995      22.182      34.868      54.832      82.048      114.16      147.19      176.91    
  200.04      214.56      183.92      179.67      167.15      147.19      121.69      93.749      67.130      45.097    
  29.290      19.379      13.702      10.621      9.0398      8.2407      7.8178      7.5894      7.5127      7.5894    
  7.8178      8.2407      9.0398      10.621      13.702      19.379      29.290      45.097      67.130      93.749    
  121.69      147.19      167.15      179.67      144.19      140.69      130.40      114.16      93.749      71.878    
  51.587      35.244      23.771      16.600      12.396      10.083      8.8603      8.2076      7.8374      7.6285    
  7.5577      7.6285      7.8374      8.2076      8.8603      10.083      12.396      16.600      23.771      35.244    
  51.587      71.878      93.749      114.16      130.40      140.69      104.71      102.02      94.197      82.048    
  67.130      51.587      37.589      26.604      18.989      14.128      11.221      9.5843      8.6794      8.1601    
  7.8426      7.6563      7.5928      7.6563      7.8426      8.1601      8.6794      9.5843      11.221      14.128    
  18.989      26.604      37.589      51.587      67.130      82.048      94.197      102.02      70.181      68.323    
  62.972      54.832      45.097      35.244      26.604      19.929      15.228      12.141      10.258      9.1552    
  8.5046      8.0986      7.8326      7.6723      7.6175      7.6723      7.8326      8.0986      8.5046      9.1552    
  10.258      12.141      15.228      19.929      26.604      35.244      45.097      54.832      62.972      68.323    
  43.970      42.846      39.645      34.868      29.290      23.771      18.989      15.228      12.500      10.674    
  9.5186      8.7987      8.3368      8.0238      7.8085      7.6774      7.6328      7.6774      7.8085      8.0238    
  8.3368      8.7987      9.5186      10.674      12.500      15.228      18.989      23.771      29.290      34.868    
  39.645      42.846      26.840      26.257      24.609      22.182      19.379      16.600      14.128      12.141    
  10.674      9.6564      8.9698      8.5030      8.1747      7.9377      7.7720      7.6723      7.6389      7.6723    
  7.7720      7.9377      8.1747      8.5030      8.9698      9.6564      10.674      12.141      14.128      16.600    
  19.379      22.182      24.609      26.257      17.094      16.833      16.094      14.995      13.702      12.396    
  11.221      10.258      9.5186      8.9698      8.5624      8.2544      8.0195      7.8451      7.7255      7.6563    
  7.6339      7.6563      7.7255      7.8451      8.0195      8.2544      8.5624      8.9698      9.5186      10.258    
  11.221      12.396      13.702      14.995      16.094      16.833      11.982      11.879      11.585      11.144    
  10.621      10.083      9.5843      9.1552      8.7987      8.5030      8.2544      8.0459      7.8780      7.7536    
  7.6723      7.6285      7.6150      7.6285      7.6723      7.7536      7.8780      8.0459      8.2544      8.5030    
  8.7987      9.1552      9.5843      10.083      10.621      11.144      11.585      11.879      9.4496      9.4204    
  9.3354      9.2037      9.0398      8.8603      8.6794      8.5046      8.3368      8.1747      8.0195      7.8780    
  7.7598      7.6725      7.6175      7.5894      7.5811      7.5894      7.6175      7.6725      7.7598      7.8780    
  8.0195      8.1747      8.3368      8.5046      8.6794      8.8603      9.0398      9.2037      9.3354      9.4204    
  8.2697      8.2698      8.2682      8.2600      8.2407      8.2076      8.1601      8.0986      8.0238      7.9377    
  7.8451      7.7536      7.6725      7.6091      7.5666      7.5434      7.5362      7.5434      7.5666      7.6091    
  7.6725      7.7536      7.8451      7.9377      8.0238      8.0986      8.1601      8.2076      8.2407      8.2600    
  8.2682      8.2698      7.7205      7.7300      7.7553      7.7878      7.8178      7.8374      7.8426      7.8326    
  7.8085      7.7720      7.7255      7.6723      7.6175      7.5666      7.5256      7.4990      7.4898      7.4990    
  7.5256      7.5666      7.6175      7.6723      7.7255      7.7720      7.8085      7.8326      7.8426      7.8374    
  7.8178      7.7878      7.7553      7.7300      7.4546      7.4665      7.4990      7.5434      7.5894      7.6285    
  7.6563      7.6723      7.6774      7.6723      7.6563      7.6285      7.5894      7.5434      7.4990      7.4665    
  7.4546      7.4665      7.4990      7.5434      7.5894      7.6285      7.6563      7.6723      7.6774      7.6723    
  7.6563      7.6285      7.5894      7.5434      7.4990      7.4665      7.3687      7.3811      7.4152      7.4624    
  7.5127      7.5577      7.5928      7.6175      7.6328      7.6389      7.6339      7.6150      7.5811      7.5362    
  7.4898      7.4546      7.4414      7.4546      7.4898      7.5362      7.5811      7.6150      7.6339      7.6389    
  7.6328      7.6175      7.5928      7.5577      7.5127      7.4624      7.4152      7.3811      7.4546      7.4665    
  7.4990      7.5434      7.5894      7.6285      7.6563      7.6723      7.6774      7.6723      7.6563      7.6285    
  7.5894      7.5434      7.4990      7.4665      7.4546      7.4665      7.4990      7.5434      7.5894      7.6285    
  7.6563      7.6723      7.6774      7.6723      7.6563      7.6285      7.5894      7.5434      7.4990      7.4665    
  7.7205      7.7300      7.7553      7.7878      7.8178      7.8374      7.8426      7.8326      7.8085      7.7720    
  7.7255      7.6723      7.6175      7.5666      7.5256      7.4990      7.4898      7.4990      7.5256      7.5666    
  7.6175      7.6723      7.7255      7.7720      7.8085      7.8326      7.8426      7.8374      7.8178      7.7878    
  7.7553      7.7300      8.2697      8.2698      8.2682      8.2600      8.2407      8.2076      8.1601      8.0986    
  8.0238      7.9377      7.8451      7.7536      7.6725      7.6091      7.5666      7.5434      7.5362      7.5434    
  7.5666      7.6091      7.6725      7.7536      7.8451      7.9377      8.0238      8.0986      8.1601      8.2076    
  8.2407      8.2600      8.2682      8.2698      9.4496      9.4204      9.3354      9.2037      9.0398      8.8603    
  8.6794      8.5046      8.3368      8.1747      8.0195      7.8780      7.7598      7.6725      7.6175      7.5894    
  7.5811      7.5894      7.6175      7.6725      7.7598      7.8780      8.0195      8.1747      8.3368      8.5046    
  8.6794      8.8603      9.0398      9.2037      9.3354      9.4204      11.982      11.879      11.585      11.144    
  10.621      10.083      9.5843      9.1552      8.7987      8.5030      8.2544      8.0459      7.8780      7.7536    
  7.6723      7.6285      7.6150      7.6285      7.6723      7.7536      7.8780      8.0459      8.2544      8.5030    
  8.7987      9.1552      9.5843      10.083      10.621      11.144      11.585      11.879      17.094      16.833    
  16.094      14.995      13.702      12.396      11.221      10.258      9.5186      8.9698      8.5624      8.2544    
  8.0195      7.8451      7.7255      7.6563      7.6339      7.6563      7.7255      7.8451      8.0195      8.2544    
  8.5624      8.9698      9.5186      10.258      11.221      12.396      13.702      14.995      16.094      16.833    
  26.840      26.257      24.609      22.182      19.379      16.600      14.128      12.141      10.674      9.6564    
  8.9698      8.5030      8.1747      7.9377      7.7720      7.6723      7.6389      7.6723      7.7720      7.9377    
  8.1747      8.5030      8.9698      9.6564      10.674      12.141      14.128      16.600      19.379      22.182    
  24.609      26.257      43.970      42.846      39.645      34.868      29.290      23.771      18.989      15.228    
  12.500      10.674      9.5186      8.7987      8.3368      8.0238      7.8085      7.6774      7.6328      7.6774    
  7.8085      8.0238      8.3368      8.7987      9.5186      10.674      12.500      15.228      18.989      23.771    
  29.290      34.868      39.645      42.846      70.181      68.323      62.972      54.832      45.097      35.244    
  26.604      19.929      15.228      12.141      10.258      9.1552      8.5046      8.0986      7.8326      7.6723    
  7.6175      7.6723      7.8326      8.0986      8.5046      9.1552      10.258      12.141      15.228      19.929    
  26.604      35.244      45.097      54.832      62.972      68.323      104.71      102.02      94.197      82.048    
  67.130      51.587      37.589      26.604      18.989      14.128      11.221      9.5843      8.6794      8.1601    
  7.8426      7.6563      7.5928      7.6563      7.8426      8.1601      8.6794      9.5843      11.221      14.128    
  18.989      26.604      37.589      51.587      67.130      82.048      94.197      102.02      144.19      140.69    
  130.40      114.16      93.749      71.878      51.587      35.244      23.771      16.600      12.396      10.083    
  8.8603      8.2076      7.8374      7.6285      7.5577      7.6285      7.8374      8.2076      8.8603      10.083    
  12.396      16.600      23.771      35.244      51.587      71.878      93.749      114.16      130.40      140.69    
  183.92      179.67      167.15      147.19      121.69      93.749      67.130      45.097      29.290      19.379    
  13.702      10.621      9.0398      8.2407      7.8178      7.5894      7.5127      7.5894      7.8178      8.2407    
  9.0398      10.621      13.702      19.379      29.290      45.097      67.130      93.749      121.69      147.19    
  167.15      179.67      219.50      214.56      200.04      176.91      147.19      114.16      82.048      54.832    
  34.868      22.182      14.995      11.144      9.2037      8.2600      7.7878      7.5434      7.4624      7.5434    
  7.7878      8.2600      9.2037      11.144      14.995      22.182      34.868      54.832      82.048      114.16    
  147.19      176.91      200.04      214.56      247.57      242.00      225.72      200.04      167.15      130.40    
  94.197      62.972      39.645      24.609      16.094      11.585      9.3354      8.2682      7.7553      7.4990    
  7.4152      7.4990      7.7553      8.2682      9.3354      11.585      16.094      24.609      39.645      62.972    
  94.197      130.40      167.15      200.04      225.72      242.00      265.60      259.55      242.00      214.56    
  179.67      140.69      102.02      68.323      42.846      26.257      16.833      11.879      9.4204      8.2698    
  7.7300      7.4665      7.3811      7.4665      7.7300      8.2698      9.4204      11.879      16.833      26.257    
  42.846      68.323      102.02      140.69      179.67      214.56      242.00      259.55      253.28      247.57    
  230.92      204.70      171.19      133.73      96.730      64.699      40.674      25.138      16.332      11.680    
  9.3638      8.2700      7.7485      7.4898      7.4055      7.4898      7.7485      8.2700      9.3638      11.680    
  16.332      25.138      40.674      64.699      96.730      133.73      171.19      204.70      230.92      247.57    
  247.57      242.00      225.72      200.04      167.15      130.40      94.197      62.972      39.645      24.609    
  16.094      11.585      9.3354      8.2682      7.7553      7.4990      7.4152      7.4990      7.7553      8.2682    
  9.3354      11.585      16.094      24.609      39.645      62.972      94.197      130.40      167.15      200.04    
  225.72      242.00      230.92      225.72      210.48      186.29      155.23      120.65      86.849      58.015    
  36.719      23.118      15.421      11.315      9.2546      8.2629      7.7747      7.5256      7.4434      7.5256    
  7.7747      8.2629      9.2546      11.315      15.421      23.118      36.719      58.015      86.849      120.65    
  155.23      186.29      210.48      225.72      204.70      200.04      186.29      164.39      136.33      105.35    
  75.520      50.520      32.375      20.927      14.421      10.913      9.1334      8.2543      7.8040      7.5666    
  7.4875      7.5666      7.8040      8.2543      9.1334      10.913      14.421      20.927      32.375      50.520    
  75.520      105.35      136.33      164.39      186.29      200.04      171.19      167.15      155.23      136.33    
  112.34      86.287      61.731      41.625      27.331      18.401      13.250      10.442      8.9890      8.2425    
  7.8387      7.6175      7.5430      7.6175      7.8387      8.2425      8.9890      10.442      13.250      18.401    
  27.331      41.625      61.731      86.287      112.34      136.33      155.23      167.15      133.73      130.40    
  120.65      105.35      86.287      66.066      47.502      32.693      22.364      15.890      12.073      9.9634    
  8.8380      8.2269      7.8737      7.6723      7.6039      7.6723      7.8737      8.2269      8.8380      9.9634    
  12.073      15.890      22.364      32.693      47.502      66.066      86.287      105.35      120.65      130.40    
  96.730      94.197      86.849      75.520      61.731      47.502      34.804      24.912      18.062      13.659    
  11.020      9.5267      8.6920      8.2055      7.9037      7.7255      7.6646      7.7255      7.9037      8.2055    
  8.6920      9.5267      11.020      13.659      18.062      24.912      34.804      47.502      61.731      75.520    
  86.849      94.197      64.699      62.972      58.015      50.520      41.625      32.693      24.912      18.913    
  14.664      11.871      10.162      9.1551      8.5546      8.1749      7.9238      7.7720      7.7201      7.7720    
  7.9238      8.1749      8.5546      9.1551      10.162      11.871      14.664      18.913      24.912      32.693    
  41.625      50.520      58.015      62.972      40.674      39.645      36.719      32.375      27.331      22.364    
  18.062      14.664      12.202      10.553      9.5054      8.8485      8.4230      8.1320      7.9309      7.8085    
  7.7669      7.8085      7.9309      8.1320      8.4230      8.8485      9.5054      10.553      12.202      14.664    
  18.062      22.364      27.331      32.375      36.719      39.645      25.138      24.609      23.118      20.927    
  18.401      15.890      13.659      11.871      10.553      9.6377      9.0181      8.5940      8.2937      8.0760    
  7.9238      7.8326      7.8021      7.8326      7.9238      8.0760      8.2937      8.5940      9.0181      9.6377    
  10.553      11.871      13.659      15.890      18.401      20.927      23.118      24.609      16.332      16.094    
  15.421      14.421      13.250      12.073      11.020      10.162      9.5054      9.0181      8.6549      8.3787    
  8.1673      8.0105      7.9037      7.8426      7.8229      7.8426      7.9037      8.0105      8.1673      8.3787    
  8.6549      9.0181      9.5054      10.162      11.020      12.073      13.250      14.421      15.421      16.094    
  11.680      11.585      11.315      10.913      10.442      9.9634      9.5267      9.1551      8.8485      8.5940    
  8.3787      8.1969      8.0504      7.9428      7.8737      7.8374      7.8264      7.8374      7.8737      7.9428    
  8.0504      8.1969      8.3787      8.5940      8.8485      9.1551      9.5267      9.9634      10.442      10.913    
  11.315      11.585      9.3638      9.3354      9.2546      9.1334      8.9890      8.8380      8.6920      8.5546    
  8.4230      8.2937      8.1673      8.0504      7.9527      7.8819      7.8387      7.8178      7.8119      7.8178    