Nb                                      
   1.00000000000000     
     3.322390    0.000000    0.000000
     0.000000    3.322390    0.000000
     0.000000    0.000000    3.322390
   Nb
     2
Direct
  0.000000  0.000000  0.000000
  0.500000  0.500000  0.500000
 
   32   32   32
 0.27827180847E+03 0.27183493684E+03 0.25327924515E+03 0.22453575689E+03 0.18822993574E+03
 0.14774353866E+03 0.10744906145E+03 0.72082208202E+02 0.45125772781E+02 0.27442138407E+02
 0.17362397322E+02 0.12087502931E+02 0.94790428880E+01 0.82686590901E+01 0.77097581757E+01
 0.74413674959E+01 0.73550433548E+01 0.74413674959E+01 0.77097581757E+01 0.82686590901E+01
 0.94790428880E+01 0.12087502931E+02 0.17362397322E+02 0.27442138407E+02 0.45125772781E+02
 0.72082208202E+02 0.10744906145E+03 0.14774353866E+03 0.18822993574E+03 0.22453575689E+03
 0.25327924515E+03 0.27183493684E+03 0.27183493684E+03 0.26559944064E+03 0.24756693566E+03
 0.21950167705E+03 0.18391714651E+03 0.14418871760E+03 0.10471202487E+03 0.70181282109E+02
 0.43970107090E+02 0.26840172564E+02 0.17093633608E+02 0.11981784830E+02 0.94496434353E+01
 0.82696905837E+01 0.77204972656E+01 0.74545559707E+01 0.73686981463E+01 0.74545559707E+01
 0.77204972656E+01 0.82696905837E+01 0.94496434353E+01 0.11981784830E+02 0.17093633608E+02
 0.26840172564E+02 0.43970107090E+02 0.70181282109E+02 0.10471202487E+03 0.14418871760E+03
 0.18391714651E+03 0.21950167705E+03 0.24756693566E+03 0.26559944064E+03 0.25327924515E+03
 0.24756693566E+03 0.23091512495E+03 0.20470297060E+03 0.17119070476E+03 0.13373191274E+03
 0.96730111067E+02 0.64699345799E+02 0.40674278375E+02 0.25137652217E+02 0.16332028290E+02
 0.11680058204E+02 0.93637976252E+01 0.82699565027E+01 0.77484614798E+01 0.74898140045E+01
 0.74054620816E+01 0.74898140045E+01 0.77484614798E+01 0.82699565027E+01 0.93637976252E+01
 0.11680058204E+02 0.16332028290E+02 0.25137652217E+02 0.40674278375E+02 0.64699345799E+02
 0.96730111067E+02 0.13373191274E+03 0.17119070476E+03 0.20470297060E+03 0.23091512495E+03
 0.24756693566E+03 0.22453575689E+03 0.21950167705E+03 0.20470297060E+03 0.18115648524E+03
 0.15088852080E+03 0.11718856312E+03 0.84310916871E+02 0.56342284669E+02 0.35748706074E+02
 0.22627482112E+02 0.15198604671E+02 0.11226352738E+02 0.92291409382E+01 0.82627609695E+01
 0.77829885847E+01 0.75362263873E+01 0.74546488171E+01 0.75362263873E+01 0.77829885847E+01
 0.82627609695E+01 0.92291409382E+01 0.11226352738E+02 0.15198604671E+02 0.22627482112E+02
 0.35748706074E+02 0.56342284669E+02 0.84310916871E+02 0.11718856312E+03 0.15088852080E+03
 0.18115648524E+03 0.20470297060E+03 0.21950167705E+03 0.18822993574E+03 0.18391714651E+03
 0.17119070476E+03 0.15088852080E+03 0.12489755079E+03 0.96330712950E+02 0.69014767896E+02
 0.46320182441E+02 0.29985282109E+02 0.19726653652E+02 0.13863323334E+02 0.10685149826E+02
 0.90589246030E+01 0.82414566720E+01 0.78119391639E+01 0.75811132232E+01 0.75037519777E+01
 0.75811132232E+01 0.78119391639E+01 0.82414566720E+01 0.90589246030E+01 0.10685149826E+02
 0.13863323334E+02 0.19726653652E+02 0.29985282109E+02 0.46320182441E+02 0.69014767896E+02
 0.96330712950E+02 0.12489755079E+03 0.15088852080E+03 0.17119070476E+03 0.18391714651E+03
 0.14774353866E+03 0.14418871760E+03 0.13373191274E+03 0.11718856312E+03 0.96330712950E+02
 0.73905377752E+02 0.53024891335E+02 0.36148307130E+02 0.24273164566E+02 0.16851679618E+02
 0.12511267622E+02 0.10126219713E+02 0.88697451425E+01 0.82024996681E+01 0.78264305095E+01
 0.76149609455E+01 0.75433001728E+01 0.76149609455E+01 0.78264305095E+01 0.82024996681E+01
 0.88697451425E+01 0.10126219713E+02 0.12511267622E+02 0.16851679618E+02 0.24273164566E+02
 0.36148307130E+02 0.53024891335E+02 0.73905377752E+02 0.96330712950E+02 0.11718856312E+03
 0.13373191274E+03 0.14418871760E+03 0.10744906145E+03 0.10471202487E+03 0.96730111067E+02
 0.84310916871E+02 0.69014767896E+02 0.53024891335E+02 0.38575541421E+02 0.27207782759E+02
 0.19319461034E+02 0.14295606548E+02 0.11293390526E+02 0.96064300036E+01 0.86766415832E+01
 0.81458266762E+01 0.78228958636E+01 0.76338992044E+01 0.75694191810E+01 0.76338992044E+01
 0.78228958636E+01 0.81458266762E+01 0.86766415832E+01 0.96064300036E+01 0.11293390526E+02
 0.14295606548E+02 0.19319461034E+02 0.27207782759E+02 0.38575541421E+02 0.53024891335E+02
 0.69014767896E+02 0.84310916871E+02 0.96730111067E+02 0.10471202487E+03 0.72082208202E+02
 0.70181282109E+02 0.64699345799E+02 0.56342284669E+02 0.46320182441E+02 0.36148307130E+02
 0.27207782759E+02 0.20292006600E+02 0.15429303242E+02 0.12238390275E+02 0.10293479662E+02
 0.91570157628E+01 0.84886187890E+01 0.80732689394E+01 0.78021250323E+01 0.76388931157E+01
 0.75831153891E+01 0.76388931157E+01 0.78021250323E+01 0.80732689394E+01 0.84886187890E+01
 0.91570157628E+01 0.10293479662E+02 0.12238390275E+02 0.15429303242E+02 0.20292006600E+02
 0.27207782759E+02 0.36148307130E+02 0.46320182441E+02 0.56342284669E+02 0.64699345799E+02
 0.70181282109E+02 0.45125772781E+02 0.43970107090E+02 0.40674278375E+02 0.35748706074E+02
 0.29985282109E+02 0.24273164566E+02 0.19319461034E+02 0.15429303242E+02 0.12607257284E+02
 0.10719391449E+02 0.95251180324E+01 0.87828214267E+01 0.83080211836E+01 0.79871622223E+01
 0.77668798106E+01 0.76328051601E+01 0.75872152152E+01 0.76328051601E+01 0.77668798106E+01
 0.79871622223E+01 0.83080211836E+01 0.87828214267E+01 0.95251180324E+01 0.10719391449E+02
 0.12607257284E+02 0.15429303242E+02 0.19319461034E+02 0.24273164566E+02 0.29985282109E+02
 0.35748706074E+02 0.40674278375E+02 0.43970107090E+02 0.27442138407E+02 0.26840172564E+02
 0.25137652217E+02 0.22627482112E+02 0.19726653652E+02 0.16851679618E+02 0.14295606548E+02
 0.12238390275E+02 0.10719391449E+02 0.96649447164E+01 0.89544797301E+01 0.84724987539E+01
 0.81342840035E+01 0.78905749036E+01 0.77200936495E+01 0.76175021465E+01 0.75831153891E+01
 0.76175021465E+01 0.77200936495E+01 0.78905749036E+01 0.81342840035E+01 0.84724987539E+01
 0.89544797301E+01 0.96649447164E+01 0.10719391449E+02 0.12238390275E+02 0.14295606548E+02
 0.16851679618E+02 0.19726653652E+02 0.22627482112E+02 0.25137652217E+02 0.26840172564E+02
 0.17362397322E+02 0.17093633608E+02 0.16332028290E+02 0.15198604671E+02 0.13863323334E+02
 0.12511267622E+02 0.11293390526E+02 0.10293479662E+02 0.95251180324E+01 0.89544797301E+01
 0.85313502525E+01 0.82121484100E+01 0.79691292465E+01 0.77886504010E+01 0.76646062308E+01
 0.75927948869E+01 0.75694191810E+01 0.75927948869E+01 0.76646062308E+01 0.77886504010E+01
 0.79691292465E+01 0.82121484100E+01 0.85313502525E+01 0.89544797301E+01 0.95251180324E+01
 0.10293479662E+02 0.11293390526E+02 0.12511267622E+02 0.13863323334E+02 0.15198604671E+02
 0.16332028290E+02 0.17093633608E+02 0.12087502931E+02 0.11981784830E+02 0.11680058204E+02
 0.11226352738E+02 0.10685149826E+02 0.10126219713E+02 0.96064300036E+01 0.91570157628E+01
 0.87828214267E+01 0.84724987539E+01 0.82121484100E+01 0.79943610342E+01 0.78192083309E+01
 0.76892751980E+01 0.76039445175E+01 0.75576542407E+01 0.75433001728E+01 0.75576542407E+01
 0.76039445175E+01 0.76892751980E+01 0.78192083309E+01 0.79943610342E+01 0.82121484100E+01
 0.84724987539E+01 0.87828214267E+01 0.91570157628E+01 0.96064300036E+01 0.10126219713E+02
 0.10685149826E+02 0.11226352738E+02 0.11680058204E+02 0.11981784830E+02 0.94790428880E+01
 0.94496434353E+01 0.93637976252E+01 0.92291409382E+01 0.90589246030E+01 0.88697451425E+01
 0.86766415832E+01 0.84886187890E+01 0.83080211836E+01 0.81342840035E+01 0.79691292465E+01
 0.78192083309E+01 0.76941872661E+01 0.76016922588E+01 0.75429620306E+01 0.75127280728E+01
 0.75037519777E+01 0.75127280728E+01 0.75429620306E+01 0.76016922588E+01 0.76941872661E+01
 0.78192083309E+01 0.79691292465E+01 0.81342840035E+01 0.83080211836E+01 0.84886187890E+01
 0.86766415832E+01 0.88697451425E+01 0.90589246030E+01 0.92291409382E+01 0.93637976252E+01
 0.94496434353E+01 0.82686590901E+01 0.82696905837E+01 0.82699565027E+01 0.82627609695E+01
 0.82414566720E+01 0.82024996681E+01 0.81458266762E+01 0.80732689394E+01 0.79871622223E+01
 0.78905749036E+01 0.77886504010E+01 0.76892751980E+01 0.76016922588E+01 0.75334219237E+01
 0.74875315269E+01 0.74624380275E+01 0.74546488171E+01 0.74624380275E+01 0.74875315269E+01
 0.75334219237E+01 0.76016922588E+01 0.76892751980E+01 0.77886504010E+01 0.78905749036E+01
 0.79871622223E+01 0.80732689394E+01 0.81458266762E+01 0.82024996681E+01 0.82414566720E+01
 0.82627609695E+01 0.82699565027E+01 0.82696905837E+01 0.77097581757E+01 0.77204972656E+01
 0.77484614798E+01 0.77829885847E+01 0.78119391639E+01 0.78264305095E+01 0.78228958636E+01
 0.78021250323E+01 0.77668798106E+01 0.77200936495E+01 0.76646062308E+01 0.76039445175E+01
 0.75429620306E+01 0.74875315269E+01 0.74434275595E+01 0.74151711815E+01 0.74054620816E+01
 0.74151711815E+01 0.74434275595E+01 0.74875315269E+01 0.75429620306E+01 0.76039445175E+01
 0.76646062308E+01 0.77200936495E+01 0.77668798106E+01 0.78021250323E+01 0.78228958636E+01
 0.78264305095E+01 0.78119391639E+01 0.77829885847E+01 0.77484614798E+01 0.77204972656E+01
 0.74413674959E+01 0.74545559707E+01 0.74898140045E+01 0.75362263873E+01 0.75811132232E+01
 0.76149609455E+01 0.76338992044E+01 0.76388931157E+01 0.76328051601E+01 0.76175021465E+01
 0.75927948869E+01 0.75576542407E+01 0.75127280728E+01 0.74624380275E+01 0.74151711815E+01
 0.73811277208E+01 0.73686981463E+01 0.73811277208E+01 0.74151711815E+01 0.74624380275E+01
 0.75127280728E+01 0.75576542407E+01 0.75927948869E+01 0.76175021465E+01 0.76328051601E+01
 0.76388931157E+01 0.76338992044E+01 0.76149609455E+01 0.75811132232E+01 0.75362263873E+01
 0.74898140045E+01 0.74545559707E+01 0.73550433548E+01 0.73686981463E+01 0.74054620816E+01
 0.74546488171E+01 0.75037519777E+01 0.75433001728E+01 0.75694191810E+01 0.75831153891E+01
 0.75872152152E+01 0.75831153891E+01 0.75694191810E+01 0.75433001728E+01 0.75037519777E+01
 0.74546488171E+01 0.74054620816E+01 0.73686981463E+01 0.73550433548E+01 0.73686981463E+01
 0.74054620816E+01 0.74546488171E+01 0.75037519777E+01 0.75433001728E+01 0.75694191810E+01
 0.75831153891E+01 0.75872152152E+01 0.75831153891E+01 0.75694191810E+01 0.75433001728E+01
 0.75037519777E+01 0.74546488171E+01 0.74054620816E+01 0.73686981463E+01 0.74413674959E+01
 0.74545559707E+01 0.74898140045E+01 0.75362263873E+01 0.75811132232E+01 0.76149609455E+01
 0.76338992044E+01 0.76388931157E+01 0.76328051601E+01 0.76175021465E+01 0.75927948869E+01
 0.75576542407E+01 0.75127280728E+01 0.74624380275E+01 0.74151711815E+01 0.73811277208E+01
 0.73686981463E+01 0.73811277208E+01 0.74151711815E+01 0.74624380275E+01 0.75127280728E+01
 0.75576542407E+01 0.75927948869E+01 0.76175021465E+01 0.76328051601E+01 0.76388931157E+01
 0.76338992044E+01 0.76149609455E+01 0.75811132232E+01 0.75362263873E+01 0.74898140045E+01
 0.74545559707E+01 0.77097581757E+01 0.77204972656E+01 0.77484614798E+01 0.77829885847E+01
 0.78119391639E+01 0.78264305095E+01 0.78228958636E+01 0.78021250323E+01 0.77668798106E+01
 0.77200936495E+01 0.76646062308E+01 0.76039445175E+01 0.75429620306E+01 0.74875315269E+01
 0.74434275595E+01 0.74151711815E+01 0.74054620816E+01 0.74151711815E+01 0.74434275595E+01
 0.74875315269E+01 0.75429620306E+01 0.76039445175E+01 0.76646062308E+01 0.77200936495E+01
 0.77668798106E+01 0.78021250323E+01 0.78228958636E+01 0.78264305095E+01 0.78119391639E+01
 0.77829885847E+01 0.77484614798E+01 0.77204972656E+01 0.82686590901E+01 0.82696905837E+01
 0.82699565027E+01 0.82627609695E+01 0.82414566720E+01 0.82024996681E+01 0.81458266762E+01
 0.80732689394E+01 0.79871622223E+01 0.78905749036E+01 0.77886504010E+01 0.76892751980E+01
 0.76016922588E+01 0.75334219237E+01 0.74875315269E+01 0.74624380275E+01 0.74546488171E+01
 0.74624380275E+01 0.74875315269E+01 0.75334219237E+01 0.76016922588E+01 0.76892751980E+01
 0.77886504010E+01 0.78905749036E+01 0.79871622223E+01 0.80732689394E+01 0.81458266762E+01
 0.82024996681E+01 0.82414566720E+01 0.82627609695E+01 0.82699565027E+01 0.82696905837E+01
 0.94790428880E+01 0.94496434353E+01 0.93637976252E+01 0.92291409382E+01 0.90589246030E+01
 0.88697451425E+01 0.86766415832E+01 0.84886187890E+01 0.83080211836E+01 0.81342840035E+01
 0.79691292465E+01 0.78192083309E+01 0.76941872661E+01 0.76016922588E+01 0.75429620306E+01
 0.75127280728E+01 0.75037519777E+01 0.75127280728E+01 0.75429620306E+01 0.76016922588E+01
 0.76941872661E+01 0.78192083309E+01 0.79691292465E+01 0.81342840035E+01 0.83080211836E+01
 0.84886187890E+01 0.86766415832E+01 0.88697451425E+01 0.90589246030E+01 0.92291409382E+01
 0.93637976252E+01 0.94496434353E+01 0.12087502931E+02 0.11981784830E+02 0.11680058204E+02
 0.11226352738E+02 0.10685149826E+02 0.10126219713E+02 0.96064300036E+01 0.91570157628E+01
 0.87828214267E+01 0.84724987539E+01 0.82121484100E+01 0.79943610342E+01 0.78192083309E+01
 0.76892751980E+01 0.76039445175E+01 0.75576542407E+01 0.75433001728E+01 0.75576542407E+01
 0.76039445175E+01 0.76892751980E+01 0.78192083309E+01 0.79943610342E+01 0.82121484100E+01
 0.84724987539E+01 0.87828214267E+01 0.91570157628E+01 0.96064300036E+01 0.10126219713E+02
 0.10685149826E+02 0.11226352738E+02 0.11680058204E+02 0.11981784830E+02 0.17362397322E+02
 0.17093633608E+02 0.16332028290E+02 0.15198604671E+02 0.13863323334E+02 0.12511267622E+02
 0.11293390526E+02 0.10293479662E+02 0.95251180324E+01 0.89544797301E+01 0.85313502525E+01
 0.82121484100E+01 0.79691292465E+01 0.77886504010E+01 0.76646062308E+01 0.75927948869E+01
 0.75694191810E+01 0.75927948869E+01 0.76646062308E+01 0.77886504010E+01 0.79691292465E+01
 0.82121484100E+01 0.85313502525E+01 0.89544797301E+01 0.95251180324E+01 0.10293479662E+02
 0.11293390526E+02 0.12511267622E+02 0.13863323334E+02 0.15198604671E+02 0.16332028290E+02
 0.17093633608E+02 0.27442138407E+02 0.26840172564E+02 0.25137652217E+02 0.22627482112E+02
 0.19726653652E+02 0.16851679618E+02 0.14295606548E+02 0.12238390275E+02 0.10719391449E+02
 0.96649447164E+01 0.89544797301E+01 0.84724987539E+01 0.81342840035E+01 0.78905749036E+01
 0.77200936495E+01 0.76175021465E+01 0.75831153891E+01 0.76175021465E+01 0.77200936495E+01
 0.78905749036E+01 0.81342840035E+01 0.84724987539E+01 0.89544797301E+01 0.96649447164E+01
 0.10719391449E+02 0.12238390275E+02 0.14295606548E+02 0.16851679618E+02 0.19726653652E+02
 0.22627482112E+02 0.25137652217E+02 0.26840172564E+02 0.45125772781E+02 0.43970107090E+02
 0.40674278375E+02 0.35748706074E+02 0.29985282109E+02 0.24273164566E+02 0.19319461034E+02
 0.15429303242E+02 0.12607257284E+02 0.10719391449E+02 0.95251180324E+01 0.87828214267E+01
 0.83080211836E+01 0.79871622223E+01 0.77668798106E+01 0.76328051601E+01 0.75872152152E+01
 0.76328051601E+01 0.77668798106E+01 0.79871622223E+01 0.83080211836E+01 0.87828214267E+01
 0.95251180324E+01 0.10719391449E+02 0.12607257284E+02 0.15429303242E+02 0.19319461034E+02
 0.24273164566E+02 0.29985282109E+02 0.35748706074E+02 0.40674278375E+02 0.43970107090E+02
 0.72082208202E+02 0.70181282109E+02 0.64699345799E+02 0.56342284669E+02 0.46320182441E+02
 0.36148307130E+02 0.27207782759E+02 0.20292006600E+02 0.15429303242E+02 0.12238390275E+02
 0.10293479662E+02 0.91570157628E+01 0.84886187890E+01 0.80732689394E+01 0.78021250323E+01
 0.76388931157E+01 0.75831153891E+01 0.76388931157E+01 0.78021250323E+01 0.80732689394E+01
 0.84886187890E+01 0.91570157628E+01 0.10293479662E+02 0.12238390275E+02 0.15429303242E+02
 0.20292006600E+02 0.27207782759E+02 0.36148307130E+02 0.46320182441E+02 0.56342284669E+02
 0.64699345799E+02 0.70181282109E+02 0.10744906145E+03 0.10471202487E+03 0.96730111067E+02
 0.84310916871E+02 0.69014767896E+02 0.53024891335E+02 0.38575541421E+02 0.27207782759E+02
 0.19319461034E+02 0.14295606548E+02 0.11293390526E+02 0.96064300036E+01 0.86766415832E+01
 0.81458266762E+01 0.78228958636E+01 0.76338992044E+01 0.75694191810E+01 0.76338992044E+01
 0.78228958636E+01 0.81458266762E+01 0.86766415832E+01 0.96064300036E+01 0.11293390526E+02
 0.14295606548E+02 0.19319461034E+02 0.27207782759E+02 0.38575541421E+02 0.53024891335E+02
 0.69014767896E+02 0.84310916871E+02 0.96730111067E+02 0.10471202487E+03 0.14774353866E+03
 0.14418871760E+03 0.13373191274E+03 0.11718856312E+03 0.96330712950E+02 0.73905377752E+02
 0.53024891335E+02 0.36148307130E+02 0.24273164566E+02 0.16851679618E+02 0.12511267622E+02
 0.10126219713E+02 0.88697451425E+01 0.82024996681E+01 0.78264305095E+01 0.76149609455E+01
 0.75433001728E+01 0.76149609455E+01 0.78264305095E+01 0.82024996681E+01 0.88697451425E+01
 0.10126219713E+02 0.12511267622E+02 0.16851679618E+02 0.24273164566E+02 0.36148307130E+02
 0.53024891335E+02 0.73905377752E+02 0.96330712950E+02 0.11718856312E+03 0.13373191274E+03
 0.14418871760E+03 0.18822993574E+03 0.18391714651E+03 0.17119070476E+03 0.15088852080E+03
 0.12489755079E+03 0.96330712950E+02 0.69014767896E+02 0.46320182441E+02 0.29985282109E+02
 0.19726653652E+02 0.13863323334E+02 0.10685149826E+02 0.90589246030E+01 0.82414566720E+01
 0.78119391639E+01 0.75811132232E+01 0.75037519777E+01 0.75811132232E+01 0.78119391639E+01
 0.82414566720E+01 0.90589246030E+01 0.10685149826E+02 0.13863323334E+02 0.19726653652E+02
 0.29985282109E+02 0.46320182441E+02 0.69014767896E+02 0.96330712950E+02 0.12489755079E+03
 0.15088852080E+03 0.17119070476E+03 0.18391714651E+03 0.22453575689E+03 0.21950167705E+03
 0.20470297060E+03 0.18115648524E+03 0.15088852080E+03 0.11718856312E+03 0.84310916871E+02
 0.56342284669E+02 0.35748706074E+02 0.22627482112E+02 0.15198604671E+02 0.11226352738E+02
 0.92291409382E+01 0.82627609695E+01 0.77829885847E+01 0.75362263873E+01 0.74546488171E+01
 0.75362263873E+01 0.77829885847E+01 0.82627609695E+01 0.92291409382E+01 0.11226352738E+02
 0.15198604671E+02 0.22627482112E+02 0.35748706074E+02 0.56342284669E+02 0.84310916871E+02
 0.11718856312E+03 0.15088852080E+03 0.18115648524E+03 0.20470297060E+03 0.21950167705E+03
 0.25327924515E+03 0.24756693566E+03 0.23091512495E+03 0.20470297060E+03 0.17119070476E+03
 0.13373191274E+03 0.96730111067E+02 0.64699345799E+02 0.40674278375E+02 0.25137652217E+02
 0.16332028290E+02 0.11680058204E+02 0.93637976252E+01 0.82699565027E+01 0.77484614798E+01
 0.74898140045E+01 0.74054620816E+01 0.74898140045E+01 0.77484614798E+01 0.82699565027E+01
 0.93637976252E+01 0.11680058204E+02 0.16332028290E+02 0.25137652217E+02 0.40674278375E+02
 0.64699345799E+02 0.96730111067E+02 0.13373191274E+03 0.17119070476E+03 0.20470297060E+03
 0.23091512495E+03 0.24756693566E+03 0.27183493684E+03 0.26559944064E+03 0.24756693566E+03
 0.21950167705E+03 0.18391714651E+03 0.14418871760E+03 0.10471202487E+03 0.70181282109E+02
 0.43970107090E+02 0.26840172564E+02 0.17093633608E+02 0.11981784830E+02 0.94496434353E+01
 0.82696905837E+01 0.77204972656E+01 0.74545559707E+01 0.73686981463E+01 0.74545559707E+01
 0.77204972656E+01 0.82696905837E+01 0.94496434353E+01 0.11981784830E+02 0.17093633608E+02
 0.26840172564E+02 0.43970107090E+02 0.70181282109E+02 0.10471202487E+03 0.14418871760E+03
 0.18391714651E+03 0.21950167705E+03 0.24756693566E+03 0.26559944064E+03 0.27183493684E+03
 0.26559944064E+03 0.24756693566E+03 0.21950167705E+03 0.18391714651E+03 0.14418871760E+03
 0.10471202487E+03 0.70181282109E+02 0.43970107090E+02 0.26840172564E+02 0.17093633608E+02
 0.11981784830E+02 0.94496434353E+01 0.82696905837E+01 0.77204972656E+01 0.74545559707E+01
 0.73686981463E+01 0.74545559707E+01 0.77204972656E+01 0.82696905837E+01 0.94496434353E+01
 0.11981784830E+02 0.17093633608E+02 0.26840172564E+02 0.43970107090E+02 0.70181282109E+02
 0.10471202487E+03 0.14418871760E+03 0.18391714651E+03 0.21950167705E+03 0.24756693566E+03
 0.26559944064E+03 0.26559944064E+03 0.25954764567E+03 0.24199569003E+03 0.21456369842E+03
 0.17967072808E+03 0.14068789232E+03 0.10202450445E+03 0.68323485222E+02 0.42846373444E+02
 0.26257139494E+02 0.16833001306E+02 0.11878666798E+02 0.94203507398E+01 0.82698090856E+01
 0.77300208878E+01 0.74665027077E+01 0.73811277208E+01 0.74665027077E+01 0.77300208878E+01
 0.82698090856E+01 0.94203507398E+01 0.11878666798E+02 0.16833001306E+02 0.26257139494E+02
 0.42846373444E+02 0.68323485222E+02 0.10202450445E+03 0.14068789232E+03 0.17967072808E+03
 0.21456369842E+03 0.24199569003E+03 0.25954764567E+03 0.24756693566E+03 0.24199569003E+03
 0.22572206805E+03 0.20003624261E+03 0.16714538841E+03 0.13040156879E+03 0.94197365873E+02
 0.62972391118E+02 0.39644702153E+02 0.24609192047E+02 0.16094423201E+02 0.11584825515E+02
 0.93354011482E+01 0.82681636101E+01 0.77552707589E+01 0.74989915415E+01 0.74151711815E+01
 0.74989915415E+01 0.77552707589E+01 0.82681636101E+01 0.93354011482E+01 0.11584825515E+02
 0.16094423201E+02 0.24609192047E+02 0.39644702153E+02 0.62972391118E+02 0.94197365873E+02
 0.13040156879E+03 0.16714538841E+03 0.20003624261E+03 0.22572206805E+03 0.24199569003E+03
 0.21950167705E+03 0.21456369842E+03 0.20003624261E+03 0.17690601044E+03 0.14718667744E+03
 0.11416285071E+03 0.82047966541E+02 0.54832315535E+02 0.34867935516E+02 0.22181826598E+02
 0.14995294636E+02 0.11144266568E+02 0.92037484608E+01 0.82600366094E+01 0.77878262837E+01
 0.75434060587E+01 0.74624380275E+01 0.75434060587E+01 0.77878262837E+01 0.82600366094E+01
 0.92037484608E+01 0.11144266568E+02 0.14995294636E+02 0.22181826598E+02 0.34867935516E+02
 0.54832315535E+02 0.82047966541E+02 0.11416285071E+03 0.14718667744E+03 0.17690601044E+03
 0.20003624261E+03 0.21456369842E+03 0.18391714651E+03 0.17967072808E+03 0.16714538841E+03
 0.14718667744E+03 0.12168914935E+03 0.93749397633E+02 0.67129807880E+02 0.45096758536E+02
 0.29289899816E+02 0.19378772901E+02 0.13702348409E+02 0.10620788234E+02 0.90397815464E+01
 0.82407421479E+01 0.78178068875E+01 0.75893790665E+01 0.75127280728E+01 0.75893790665E+01
 0.78178068875E+01 0.82407421479E+01 0.90397815464E+01 0.10620788234E+02 0.13702348409E+02
 0.19378772901E+02 0.29289899816E+02 0.45096758536E+02 0.67129807880E+02 0.93749397633E+02
 0.12168914935E+03 0.14718667744E+03 0.16714538841E+03 0.17967072808E+03 0.14418871760E+03
 0.14068789232E+03 0.13040156879E+03 0.11416285071E+03 0.93749397633E+02 0.71877883957E+02
 0.51587406634E+02 0.35243663841E+02 0.23771400063E+02 0.16599514139E+02 0.12395565591E+02
 0.10082567865E+02 0.88602803503E+01 0.82076216583E+01 0.78374136613E+01 0.76284933871E+01
 0.75576542407E+01 0.76284933871E+01 0.78374136613E+01 0.82076216583E+01 0.88602803503E+01
 0.10082567865E+02 0.12395565591E+02 0.16599514139E+02 0.23771400063E+02 0.35243663841E+02
 0.51587406634E+02 0.71877883957E+02 0.93749397633E+02 0.11416285071E+03 0.13040156879E+03
 0.14068789232E+03 0.10471202487E+03 0.10202450445E+03 0.94197365873E+02 0.82047966541E+02
 0.67129807880E+02 0.51587406634E+02 0.37588546696E+02 0.26604442345E+02 0.18988685109E+02
 0.14127890405E+02 0.11220666722E+02 0.95843061386E+01 0.86793809864E+01 0.81600963570E+01
 0.78425949501E+01 0.76563495687E+01 0.75927948869E+01 0.76563495687E+01 0.78425949501E+01
 0.81600963570E+01 0.86793809864E+01 0.95843061386E+01 0.11220666722E+02 0.14127890405E+02
 0.18988685109E+02 0.26604442345E+02 0.37588546696E+02 0.51587406634E+02 0.67129807880E+02
 0.82047966541E+02 0.94197365873E+02 0.10202450445E+03 0.70181282109E+02 0.68323485222E+02
 0.62972391118E+02 0.54832315535E+02 0.45096758536E+02 0.35243663841E+02 0.26604442345E+02
 0.19928981839E+02 0.15227628374E+02 0.12140743833E+02 0.10257684532E+02 0.91551894013E+01
 0.85045897108E+01 0.80985535862E+01 0.78325897571E+01 0.76722800668E+01 0.76175021465E+01
 0.76722800668E+01 0.78325897571E+01 0.80985535862E+01 0.85045897108E+01 0.91551894013E+01
 0.10257684532E+02 0.12140743833E+02 0.15227628374E+02 0.19928981839E+02 0.26604442345E+02
 0.35243663841E+02 0.45096758536E+02 0.54832315535E+02 0.62972391118E+02 0.68323485222E+02
 0.43970107090E+02 0.42846373444E+02 0.39644702153E+02 0.34867935516E+02 0.29289899816E+02
 0.23771400063E+02 0.18988685109E+02 0.15227628374E+02 0.12499565828E+02 0.10674379468E+02
 0.95185852537E+01 0.87987073743E+01 0.83368432737E+01 0.80237716981E+01 0.78084571682E+01
 0.76773681167E+01 0.76328051601E+01 0.76773681167E+01 0.78084571682E+01 0.80237716981E+01
 0.83368432737E+01 0.87987073743E+01 0.95185852537E+01 0.10674379468E+02 0.12499565828E+02
 0.15227628374E+02 0.18988685109E+02 0.23771400063E+02 0.29289899816E+02 0.34867935516E+02
 0.39644702153E+02 0.42846373444E+02 0.26840172564E+02 0.26257139494E+02 0.24609192047E+02
 0.22181826598E+02 0.19378772901E+02 0.16599514139E+02 0.14127890405E+02 0.12140743833E+02
 0.10674379468E+02 0.96563938714E+01 0.89697781956E+01 0.85030172834E+01 0.81746945959E+01
 0.79377418752E+01 0.77719630579E+01 0.76722800668E+01 0.76388931157E+01 0.76722800668E+01
 0.77719630579E+01 0.79377418752E+01 0.81746945959E+01 0.85030172834E+01 0.89697781956E+01
 0.96563938714E+01 0.10674379468E+02 0.12140743833E+02 0.14127890405E+02 0.16599514139E+02
 0.19378772901E+02 0.22181826598E+02 0.24609192047E+02 0.26257139494E+02 0.17093633608E+02
 0.16833001306E+02 0.16094423201E+02 0.14995294636E+02 0.13702348409E+02 0.12395565591E+02
 0.11220666722E+02 0.10257684532E+02 0.95185852537E+01 0.89697781956E+01 0.85623598988E+01
 0.82543818906E+01 0.80195320596E+01 0.78451185880E+01 0.77254500258E+01 0.76563495687E+01
 0.76338992044E+01 0.76563495687E+01 0.77254500258E+01 0.78451185880E+01 0.80195320596E+01
 0.82543818906E+01 0.85623598988E+01 0.89697781956E+01 0.95185852537E+01 0.10257684532E+02
 0.11220666722E+02 0.12395565591E+02 0.13702348409E+02 0.14995294636E+02 0.16094423201E+02
 0.16833001306E+02 0.11981784830E+02 0.11878666798E+02 0.11584825515E+02 0.11144266568E+02
 0.10620788234E+02 0.10082567865E+02 0.95843061386E+01 0.91551894013E+01 0.87987073743E+01
 0.85030172834E+01 0.82543818906E+01 0.80458582462E+01 0.78779843446E+01 0.77536461314E+01
 0.76723392960E+01 0.76284933871E+01 0.76149609455E+01 0.76284933871E+01 0.76723392960E+01
 0.77536461314E+01 0.78779843446E+01 0.80458582462E+01 0.82543818906E+01 0.85030172834E+01
 0.87987073743E+01 0.91551894013E+01 0.95843061386E+01 0.10082567865E+02 0.10620788234E+02
 0.11144266568E+02 0.11584825515E+02 0.11878666798E+02 0.94496434353E+01 0.94203507398E+01
 0.93354011482E+01 0.92037484608E+01 0.90397815464E+01 0.88602803503E+01 0.86793809864E+01
 0.85045897108E+01 0.83368432737E+01 0.81746945959E+01 0.80195320596E+01 0.78779843446E+01
 0.77597618382E+01 0.76725027063E+01 0.76174507933E+01 0.75893790665E+01 0.75811132232E+01
 0.75893790665E+01 0.76174507933E+01 0.76725027063E+01 0.77597618382E+01 0.78779843446E+01
 0.80195320596E+01 0.81746945959E+01 0.83368432737E+01 0.85045897108E+01 0.86793809864E+01
 0.88602803503E+01 0.90397815464E+01 0.92037484608E+01 0.93354011482E+01 0.94203507398E+01
 0.82696905837E+01 0.82698090856E+01 0.82681636101E+01 0.82600366094E+01 0.82407421479E+01
 0.82076216583E+01 0.81600963570E+01 0.80985535862E+01 0.80237716981E+01 0.79377418752E+01
 0.78451185880E+01 0.77536461314E+01 0.76725027063E+01 0.76091350707E+01 0.75665964827E+01
 0.75434060587E+01 0.75362263873E+01 0.75434060587E+01 0.75665964827E+01 0.76091350707E+01
 0.76725027063E+01 0.77536461314E+01 0.78451185880E+01 0.79377418752E+01 0.80237716981E+01
 0.80985535862E+01 0.81600963570E+01 0.82076216583E+01 0.82407421479E+01 0.82600366094E+01
 0.82681636101E+01 0.82698090856E+01 0.77204972656E+01 0.77300208878E+01 0.77552707589E+01
 0.77878262837E+01 0.78178068875E+01 0.78374136613E+01 0.78425949501E+01 0.78325897571E+01
 0.78084571682E+01 0.77719630579E+01 0.77254500258E+01 0.76723392960E+01 0.76174507933E+01
 0.75665964827E+01 0.75255547491E+01 0.74989915415E+01 0.74898140045E+01 0.74989915415E+01
 0.75255547491E+01 0.75665964827E+01 0.76174507933E+01 0.76723392960E+01 0.77254500258E+01
 0.77719630579E+01 0.78084571682E+01 0.78325897571E+01 0.78425949501E+01 0.78374136613E+01
 0.78178068875E+01 0.77878262837E+01 0.77552707589E+01 0.77300208878E+01 0.74545559707E+01
 0.74665027077E+01 0.74989915415E+01 0.75434060587E+01 0.75893790665E+01 0.76284933871E+01
 0.76563495687E+01 0.76722800668E+01 0.76773681167E+01 0.76722800668E+01 0.76563495687E+01
 0.76284933871E+01 0.75893790665E+01 0.75434060587E+01 0.74989915415E+01 0.74665027077E+01
 0.74545559707E+01 0.74665027077E+01 0.74989915415E+01 0.75434060587E+01 0.75893790665E+01
 0.76284933871E+01 0.76563495687E+01 0.76722800668E+01 0.76773681167E+01 0.76722800668E+01
 0.76563495687E+01 0.76284933871E+01 0.75893790665E+01 0.75434060587E+01 0.74989915415E+01
 0.74665027077E+01 0.73686981463E+01 0.73811277208E+01 0.74151711815E+01 0.74624380275E+01
 0.75127280728E+01 0.75576542407E+01 0.75927948869E+01 0.76175021465E+01 0.76328051601E+01
 0.76388931157E+01 0.76338992044E+01 0.76149609455E+01 0.75811132232E+01 0.75362263873E+01
 0.74898140045E+01 0.74545559707E+01 0.74413674959E+01 0.74545559707E+01 0.74898140045E+01
 0.75362263873E+01 0.75811132232E+01 0.76149609455E+01 0.76338992044E+01 0.76388931157E+01
 0.76328051601E+01 0.76175021465E+01 0.75927948869E+01 0.75576542407E+01 0.75127280728E+01
 0.74624380275E+01 0.74151711815E+01 0.73811277208E+01 0.74545559707E+01 0.74665027077E+01
 0.74989915415E+01 0.75434060587E+01 0.75893790665E+01 0.76284933871E+01 0.76563495687E+01
 0.76722800668E+01 0.76773681167E+01 0.76722800668E+01 0.76563495687E+01 0.76284933871E+01
 0.75893790665E+01 0.75434060587E+01 0.74989915415E+01 0.74665027077E+01 0.74545559707E+01
 0.74665027077E+01 0.74989915415E+01 0.75434060587E+01 0.75893790665E+01 0.76284933871E+01
 0.76563495687E+01 0.76722800668E+01 0.76773681167E+01 0.76722800668E+01 0.76563495687E+01
 0.76284933871E+01 0.75893790665E+01 0.75434060587E+01 0.74989915415E+01 0.74665027077E+01
 0.77204972656E+01 0.77300208878E+01 0.77552707589E+01 0.77878262837E+01 0.78178068875E+01
 0.78374136613E+01 0.78425949501E+01 0.78325897571E+01 0.78084571682E+01 0.77719630579E+01
 0.77254500258E+01 0.76723392960E+01 0.76174507933E+01 0.75665964827E+01 0.75255547491E+01
 0.74989915415E+01 0.74898140045E+01 0.74989915415E+01 0.75255547491E+01 0.75665964827E+01
 0.76174507933E+01 0.76723392960E+01 0.77254500258E+01 0.77719630579E+01 0.78084571682E+01
 0.78325897571E+01 0.78425949501E+01 0.78374136613E+01 0.78178068875E+01 0.77878262837E+01