   2   2   0   0
  0.1833673E+02  0.3322390E-09  0.3322390E-09  0.3322390E-09  0.5000000E-15
  1.000000000000000E-004
  CAR 
 Nb                                      
     61.71507658    -48.45326533  301     10.94327324      1.00000000
    -48.453  0.0000E+00  0.0000E+00
    -48.086  0.0000E+00  0.0000E+00
    -47.719  0.0000E+00  0.0000E+00
    -47.352  0.0000E+00  0.0000E+00
    -46.984  0.0000E+00  0.0000E+00
    -46.617  0.0000E+00  0.0000E+00
    -46.250  0.0000E+00  0.0000E+00
    -45.883  0.0000E+00  0.0000E+00
    -45.515  0.0000E+00  0.0000E+00
    -45.148  0.0000E+00  0.0000E+00
    -44.781  0.0000E+00  0.0000E+00
    -44.414  0.0000E+00  0.0000E+00
    -44.047  0.0000E+00  0.0000E+00
    -43.679  0.1893E-12  0.6952E-13
    -43.312  0.1492E+01  0.5477E+00
    -42.945  0.9364E+01  0.4000E+01
    -42.578  0.0000E+00  0.4000E+01
    -42.210  0.0000E+00  0.4000E+01
    -41.843  0.0000E+00  0.4000E+01
    -41.476  0.0000E+00  0.4000E+01
    -41.109  0.0000E+00  0.4000E+01
    -40.741  0.0000E+00  0.4000E+01
    -40.374  0.0000E+00  0.4000E+01
    -40.007  0.0000E+00  0.4000E+01
    -39.640  0.0000E+00  0.4000E+01
    -39.273  0.0000E+00  0.4000E+01
    -38.905  0.0000E+00  0.4000E+01
    -38.538  0.0000E+00  0.4000E+01
    -38.171  0.0000E+00  0.4000E+01
    -37.804  0.0000E+00  0.4000E+01
    -37.436  0.0000E+00  0.4000E+01
    -37.069  0.0000E+00  0.4000E+01
    -36.702  0.0000E+00  0.4000E+01
    -36.335  0.0000E+00  0.4000E+01
    -35.968  0.0000E+00  0.4000E+01
    -35.600  0.0000E+00  0.4000E+01
    -35.233  0.0000E+00  0.4000E+01
    -34.866  0.0000E+00  0.4000E+01
    -34.499  0.0000E+00  0.4000E+01
    -34.131  0.0000E+00  0.4000E+01
    -33.764  0.0000E+00  0.4000E+01
    -33.397  0.0000E+00  0.4000E+01
    -33.030  0.0000E+00  0.4000E+01
    -32.662  0.0000E+00  0.4000E+01
    -32.295  0.0000E+00  0.4000E+01
    -31.928  0.0000E+00  0.4000E+01
    -31.561  0.0000E+00  0.4000E+01
    -31.194  0.0000E+00  0.4000E+01
    -30.826  0.0000E+00  0.4000E+01
    -30.459  0.0000E+00  0.4000E+01
    -30.092  0.0000E+00  0.4000E+01
    -29.725  0.0000E+00  0.4000E+01
    -29.357  0.0000E+00  0.4000E+01
    -28.990  0.0000E+00  0.4000E+01
    -28.623  0.0000E+00  0.4000E+01
    -28.256  0.0000E+00  0.4000E+01
    -27.889  0.0000E+00  0.4000E+01
    -27.521  0.0000E+00  0.4000E+01
    -27.154  0.0000E+00  0.4000E+01
    -26.787  0.0000E+00  0.4000E+01
    -26.420  0.0000E+00  0.4000E+01
    -26.052  0.0000E+00  0.4000E+01
    -25.685  0.0000E+00  0.4000E+01
    -25.318  0.0000E+00  0.4000E+01
    -24.951  0.0000E+00  0.4000E+01
    -24.583  0.0000E+00  0.4000E+01
    -24.216  0.0000E+00  0.4000E+01
    -23.849  0.0000E+00  0.4000E+01
    -23.482  0.0000E+00  0.4000E+01
    -23.115  0.0000E+00  0.4000E+01
    -22.747  0.0000E+00  0.4000E+01
    -22.380  0.0000E+00  0.4000E+01
    -22.013  0.0000E+00  0.4000E+01
    -21.646  0.0000E+00  0.4000E+01
    -21.278  0.0000E+00  0.4000E+01
    -20.911  0.0000E+00  0.4000E+01
    -20.544  0.0000E+00  0.4000E+01
    -20.177  0.4098E-04  0.4000E+01
    -19.809  0.4781E+01  0.5756E+01
    -19.442  0.7393E+01  0.8518E+01
    -19.075  0.9847E+01  0.1216E+02
    -18.708  0.1036E+02  0.1600E+02
    -18.341  0.0000E+00  0.1600E+02
    -17.973  0.0000E+00  0.1600E+02
    -17.606  0.0000E+00  0.1600E+02
    -17.239  0.0000E+00  0.1600E+02
    -16.872  0.0000E+00  0.1600E+02
    -16.504  0.0000E+00  0.1600E+02
    -16.137  0.0000E+00  0.1600E+02
    -15.770  0.0000E+00  0.1600E+02
    -15.403  0.0000E+00  0.1600E+02
    -15.036  0.0000E+00  0.1600E+02
    -14.668  0.0000E+00  0.1600E+02
    -14.301  0.0000E+00  0.1600E+02
    -13.934  0.0000E+00  0.1600E+02
    -13.567  0.0000E+00  0.1600E+02
    -13.199  0.0000E+00  0.1600E+02
    -12.832  0.0000E+00  0.1600E+02
    -12.465  0.0000E+00  0.1600E+02
    -12.098  0.0000E+00  0.1600E+02
    -11.730  0.0000E+00  0.1600E+02
    -11.363  0.0000E+00  0.1600E+02
    -10.996  0.0000E+00  0.1600E+02
    -10.629  0.0000E+00  0.1600E+02
    -10.262  0.0000E+00  0.1600E+02
     -9.894  0.0000E+00  0.1600E+02
     -9.527  0.0000E+00  0.1600E+02
     -9.160  0.0000E+00  0.1600E+02
     -8.793  0.0000E+00  0.1600E+02
     -8.425  0.0000E+00  0.1600E+02
     -8.058  0.0000E+00  0.1600E+02
     -7.691  0.0000E+00  0.1600E+02
     -7.324  0.0000E+00  0.1600E+02
     -6.957  0.0000E+00  0.1600E+02
     -6.589  0.0000E+00  0.1600E+02
     -6.222  0.0000E+00  0.1600E+02
     -5.855  0.0000E+00  0.1600E+02
     -5.488  0.0000E+00  0.1600E+02
     -5.120  0.0000E+00  0.1600E+02
     -4.753  0.0000E+00  0.1600E+02
     -4.386  0.0000E+00  0.1600E+02
     -4.019  0.0000E+00  0.1600E+02
     -3.651  0.0000E+00  0.1600E+02
     -3.284  0.0000E+00  0.1600E+02
     -2.917  0.0000E+00  0.1600E+02
     -2.550  0.0000E+00  0.1600E+02
     -2.183  0.0000E+00  0.1600E+02
     -1.815  0.0000E+00  0.1600E+02
     -1.448  0.0000E+00  0.1600E+02
     -1.081  0.0000E+00  0.1600E+02
     -0.714  0.0000E+00  0.1600E+02
     -0.346  0.0000E+00  0.1600E+02
      0.021  0.0000E+00  0.1600E+02
      0.388  0.0000E+00  0.1600E+02
      0.755  0.0000E+00  0.1600E+02
      1.122  0.0000E+00  0.1600E+02
      1.490  0.0000E+00  0.1600E+02
      1.857  0.0000E+00  0.1600E+02
      2.224  0.0000E+00  0.1600E+02
      2.591  0.0000E+00  0.1600E+02
      2.959  0.0000E+00  0.1600E+02
      3.326  0.0000E+00  0.1600E+02
      3.693  0.0000E+00  0.1600E+02
      4.060  0.0000E+00  0.1600E+02
      4.428  0.0000E+00  0.1600E+02
      4.795  0.9182E-15  0.1600E+02
      5.162  0.7095E-02  0.1600E+02
      5.529  0.7776E-01  0.1603E+02
      5.896  0.1638E+00  0.1609E+02
      6.264  0.1297E+00  0.1614E+02
      6.631  0.2364E+00  0.1623E+02
      6.998  0.2187E+00  0.1631E+02
      7.365  0.6661E+00  0.1656E+02
      7.733  0.1591E+01  0.1714E+02
      8.100  0.2529E+01  0.1807E+02
      8.467  0.2498E+01  0.1900E+02
      8.834  0.2796E+01  0.2004E+02
      9.202  0.1130E+01  0.2046E+02
      9.569  0.2908E+01  0.2153E+02
      9.936  0.3820E+01  0.2295E+02
     10.303  0.2337E+01  0.2382E+02
     10.670  0.3068E+01  0.2495E+02
     11.038  0.3594E+01  0.2629E+02
     11.405  0.1932E+01  0.2701E+02
     11.772  0.9727E+00  0.2737E+02
     12.139  0.1012E+01  0.2775E+02
     12.507  0.8615E+00  0.2806E+02
     12.874  0.1823E+01  0.2873E+02
     13.241  0.1805E+01  0.2940E+02
     13.608  0.2212E+01  0.3022E+02
     13.975  0.2665E+01  0.3121E+02
     14.343  0.2934E+01  0.3230E+02
     14.710  0.2895E+01  0.3338E+02
     15.077  0.4914E+01  0.3519E+02
     15.444  0.2253E+01  0.3603E+02
     15.812  0.1392E+01  0.3655E+02
     16.179  0.1216E+01  0.3700E+02
     16.546  0.1328E+01  0.3749E+02
     16.913  0.6961E+00  0.3775E+02
     17.281  0.7649E+00  0.3804E+02
     17.648  0.5736E+00  0.3825E+02
     18.015  0.7483E+00  0.3853E+02
     18.382  0.5857E+00  0.3874E+02
     18.749  0.6192E+00  0.3897E+02
     19.117  0.5403E+00  0.3917E+02
     19.484  0.5072E+00  0.3936E+02
     19.851  0.7368E+00  0.3963E+02
     20.218  0.1234E+00  0.3968E+02
     20.586  0.5979E+00  0.3990E+02
     20.953  0.4561E+00  0.4007E+02
     21.320  0.5179E+00  0.4026E+02
     21.687  0.1014E+01  0.4064E+02
     22.054  0.9857E+00  0.4101E+02
     22.422  0.1085E+01  0.4141E+02
     22.789  0.1376E+01  0.4192E+02
     23.156  0.1430E+01  0.4245E+02
     23.523  0.1718E+01  0.4309E+02
     23.891  0.1397E+01  0.4361E+02
     24.258  0.2424E+01  0.4450E+02
     24.625  0.1293E+01  0.4498E+02
     24.992  0.1551E+01  0.4555E+02
     25.360  0.1154E+01  0.4597E+02
     25.727  0.2326E+01  0.4683E+02
     26.094  0.1363E+01  0.4734E+02
     26.461  0.1319E+01  0.4783E+02
     26.828  0.1694E+01  0.4846E+02
     27.196  0.2075E+01  0.4924E+02
     27.563  0.1380E+01  0.4974E+02
     27.930  0.1412E+01  0.5027E+02
     28.297  0.1069E+01  0.5067E+02
     28.665  0.9586E+00  0.5102E+02
     29.032  0.1196E+01  0.5146E+02
     29.399  0.1009E+01  0.5183E+02
     29.766  0.2049E+01  0.5259E+02
     30.133  0.2006E+01  0.5334E+02
     30.501  0.1447E+01  0.5389E+02
     30.868  0.1478E+01  0.5443E+02
     31.235  0.1114E+01  0.5485E+02
     31.602  0.1081E+01  0.5525E+02
     31.970  0.1023E+01  0.5563E+02
     32.337  0.1425E+01  0.5616E+02
     32.704  0.9598E+00  0.5651E+02
     33.071  0.1138E+01  0.5694E+02
     33.439  0.1774E+01  0.5760E+02
     33.806  0.1615E+01  0.5819E+02
     34.173  0.1532E+01  0.5876E+02
     34.540  0.1603E+01  0.5935E+02
     34.907  0.1558E+01  0.5994E+02
     35.275  0.1349E+01  0.6044E+02
     35.642  0.1574E+01  0.6102E+02
     36.009  0.1289E+01  0.6150E+02
     36.376  0.1915E+01  0.6222E+02
     36.744  0.2040E+01  0.6297E+02
     37.111  0.1701E+01  0.6361E+02
     37.478  0.1693E+01  0.6423E+02
     37.845  0.1740E+01  0.6487E+02
     38.212  0.1923E+01  0.6558E+02
     38.580  0.2250E+01  0.6641E+02
     38.947  0.2599E+01  0.6736E+02
     39.314  0.9028E+00  0.6770E+02
     39.681  0.1239E+01  0.6816E+02
     40.049  0.1413E+01  0.6868E+02
     40.416  0.2251E+01  0.6951E+02
     40.783  0.2291E+01  0.7035E+02
     41.150  0.1704E+01  0.7098E+02
     41.518  0.1948E+01  0.7172E+02
     41.885  0.1635E+01  0.7232E+02
     42.252  0.1612E+01  0.7291E+02
     42.619  0.1260E+01  0.7338E+02
     42.986  0.1428E+01  0.7391E+02
     43.354  0.1431E+01  0.7444E+02
     43.721  0.2679E+01  0.7543E+02
     44.088  0.2214E+01  0.7626E+02
     44.455  0.2859E+01  0.7732E+02
     44.823  0.1817E+01  0.7799E+02
     45.190  0.1875E+01  0.7868E+02
     45.557  0.1700E+01  0.7931E+02
     45.924  0.2044E+01  0.8006E+02
     46.292  0.1205E+01  0.8051E+02
     46.659  0.2423E+01  0.8141E+02
     47.026  0.2080E+01  0.8218E+02
     47.393  0.2019E+01  0.8293E+02
     47.760  0.2521E+01  0.8386E+02
     48.128  0.1669E+01  0.8448E+02
     48.495  0.2330E+01  0.8534E+02
     48.862  0.1727E+01  0.8598E+02
     49.229  0.1847E+01  0.8667E+02
     49.597  0.1483E+01  0.8722E+02
     49.964  0.1785E+01  0.8788E+02
     50.331  0.1346E+01  0.8838E+02
     50.698  0.1614E+01  0.8897E+02
     51.065  0.1424E+01  0.8951E+02
     51.433  0.1326E+01  0.9000E+02
     51.800  0.1006E+01  0.9037E+02
     52.167  0.1969E+01  0.9110E+02
     52.534  0.2027E+01  0.9184E+02
     52.902  0.2760E+01  0.9286E+02
     53.269  0.2062E+01  0.9362E+02
     53.636  0.1663E+01  0.9424E+02
     54.003  0.1484E+01  0.9479E+02
     54.371  0.8664E+00  0.9511E+02
     54.738  0.9841E+00  0.9547E+02
     55.105  0.4800E+00  0.9565E+02
     55.472  0.4315E+00  0.9581E+02
     55.839  0.1883E+00  0.9588E+02
     56.207  0.2613E+00  0.9598E+02
     56.574  0.1891E-01  0.9599E+02
     56.941  0.3782E-01  0.9600E+02
     57.308  0.0000E+00  0.9600E+02
     57.676  0.0000E+00  0.9600E+02
     58.043  0.0000E+00  0.9600E+02
     58.410  0.0000E+00  0.9600E+02
     58.777  0.0000E+00  0.9600E+02
     59.144  0.0000E+00  0.9600E+02
     59.512  0.0000E+00  0.9600E+02
     59.879  0.0000E+00  0.9600E+02
     60.246  0.0000E+00  0.9600E+02
     60.613  0.0000E+00  0.9600E+02
     60.981  0.0000E+00  0.9600E+02
     61.348  0.0000E+00  0.9600E+02
     61.715  0.0000E+00  0.9600E+02
