Unloading intel-oneapi-compilers/2021.4.0 <aL>
  Unloading dependent: vasp/6.4.3 intel-mpi/2019-intel
  Unloading useless requirement: wannier90/3.1.0-intel21-impi intel-mkl/2020
intel-mpi: using intel wrappers for mpicc, mpif77, etc

Loading vasp/6.4.3
  Loading requirement: wannier90/3.1.0-intel21-impi
    intel-oneapi-compilers/2021.4.0 intel-mpi/2019-intel intel-mkl/2020
 running   64 mpi-ranks, with   12 threads/rank, on   16 nodes
 distrk:  each k-point on   64 cores,    1 groups
 distr:  one band on    1 cores,   64 groups
 vasp.6.4.3 19Mar24 (build Jun 27 2024 09:34:32) complex                        
  
 POSCAR found type information on POSCAR Nb
 POSCAR found :  1 types and       2 ions
 scaLAPACK will be used
 LDA part: xc-table for (Slater+PW92), standard interpolation
 POSCAR, INCAR and KPOINTS ok, starting setup
 FFT: planning ... GRIDC
 FFT: planning ... GRID_SOFT
 FFT: planning ... GRID
 WAVECAR not read
 WARNING: random wavefunctions but no delay for mixing, default for NELMDL
 entering main loop
       N       E                     dE             d eps       ncg     rms          rms(c)
DAV:   1     0.276472689965E+02    0.27647E+02   -0.15497E+04 10816   0.340E+02
DAV:   2    -0.212681007426E+02   -0.48915E+02   -0.48747E+02 16064   0.625E+01
DAV:   3    -0.213110949800E+02   -0.42994E-01   -0.42993E-01 11008   0.232E+00
DAV:   4    -0.213111424810E+02   -0.47501E-04   -0.47501E-04 20736   0.708E-02
DAV:   5    -0.213111424810E+02   -0.17280E-10   -0.35829E-09 11008   0.139E-04    0.103E+01
DAV:   6    -0.205135580693E+02    0.79758E+00   -0.17348E+00 12544   0.348E+00    0.358E+00
DAV:   7    -0.204157866096E+02    0.97771E-01   -0.50676E-01 16768   0.184E+00    0.129E+00
DAV:   8    -0.204234562108E+02   -0.76696E-02   -0.18241E-02 10752   0.433E-01    0.848E-02
DAV:   9    -0.204234831114E+02   -0.26901E-04   -0.48507E-04 16704   0.663E-02
forrtl: severe (174): SIGSEGV, segmentation fault occurred
Image              PC                Routine            Line        Source             
vasp_omp_std       0000000001EE2F5A  for__signal_handl     Unknown  Unknown
libpthread-2.31.s  00007FCA1F4D08C0  Unknown               Unknown  Unknown
vasp_omp_std       0000000001ECD07A  for_dealloc_all_n     Unknown  Unknown
vasp_omp_std       0000000000BEAE7B  Unknown               Unknown  Unknown
vasp_omp_std       000000000119C6E1  Unknown               Unknown  Unknown
vasp_omp_std       0000000001E89F8E  Unknown               Unknown  Unknown
vasp_omp_std       000000000041A292  Unknown               Unknown  Unknown
libc-2.31.so       00007FCA1EDAF2BD  __libc_start_main     Unknown  Unknown
vasp_omp_std       000000000041A1AA  Unknown               Unknown  Unknown
forrtl: severe (174): SIGSEGV, segmentation fault occurred
Image              PC                Routine            Line        Source             
vasp_omp_std       0000000001EE2F5A  for__signal_handl     Unknown  Unknown
libpthread-2.31.s  00007F4090E528C0  Unknown               Unknown  Unknown
vasp_omp_std       0000000001ECD07A  for_dealloc_all_n     Unknown  Unknown
vasp_omp_std       0000000000BEAE7B  Unknown               Unknown  Unknown
vasp_omp_std       000000000119C6E1  Unknown               Unknown  Unknown
vasp_omp_std       0000000001E89F8E  Unknown               Unknown  Unknown
vasp_omp_std       000000000041A292  Unknown               Unknown  Unknown
libc-2.31.so       00007F40907312BD  __libc_start_main     Unknown  Unknown
vasp_omp_std       000000000041A1AA  Unknown               Unknown  Unknown
forrtl: severe (174): SIGSEGV, segmentation fault occurred
Image              PC                Routine            Line        Source             
vasp_omp_std       0000000001EE2F5A  for__signal_handl     Unknown  Unknown
libpthread-2.31.s  00007F82122078C0  Unknown               Unknown  Unknown
vasp_omp_std       0000000001ECD07A  for_dealloc_all_n     Unknown  Unknown
vasp_omp_std       0000000000BEAE7B  Unknown               Unknown  Unknown
vasp_omp_std       000000000119C6E1  Unknown               Unknown  Unknown
vasp_omp_std       0000000001E89F8E  Unknown               Unknown  Unknown
vasp_omp_std       000000000041A292  Unknown               Unknown  Unknown
libc-2.31.so       00007F8211AE62BD  __libc_start_main     Unknown  Unknown
vasp_omp_std       000000000041A1AA  Unknown               Unknown  Unknown
forrtl: severe (174): SIGSEGV, segmentation fault occurred
Image              PC                Routine            Line        Source             
vasp_omp_std       0000000001EE2F5A  for__signal_handl     Unknown  Unknown
libpthread-2.31.s  00007F7C0EA988C0  Unknown               Unknown  Unknown
vasp_omp_std       0000000001ECD07A  for_dealloc_all_n     Unknown  Unknown
vasp_omp_std       0000000000BEAE7B  Unknown               Unknown  Unknown
vasp_omp_std       000000000119C6E1  Unknown               Unknown  Unknown
vasp_omp_std       0000000001E89F8E  Unknown               Unknown  Unknown
vasp_omp_std       000000000041A292  Unknown               Unknown  Unknown
libc-2.31.so       00007F7C0E3772BD  __libc_start_main     Unknown  Unknown
vasp_omp_std       000000000041A1AA  Unknown               Unknown  Unknown
forrtl: severe (174): SIGSEGV, segmentation fault occurred
Image              PC                Routine            Line        Source             
vasp_omp_std       0000000001EE2F5A  for__signal_handl     Unknown  Unknown
libpthread-2.31.s  00007F632687C8C0  Unknown               Unknown  Unknown
vasp_omp_std       0000000001ECD07A  for_dealloc_all_n     Unknown  Unknown
vasp_omp_std       0000000000BEAE7B  Unknown               Unknown  Unknown
vasp_omp_std       000000000119C6E1  Unknown               Unknown  Unknown
vasp_omp_std       0000000001E89F8E  Unknown               Unknown  Unknown
vasp_omp_std       000000000041A292  Unknown               Unknown  Unknown
libc-2.31.so       00007F632615B2BD  __libc_start_main     Unknown  Unknown
vasp_omp_std       000000000041A1AA  Unknown               Unknown  Unknown
forrtl: severe (174): SIGSEGV, segmentation fault occurred
Image              PC                Routine            Line        Source             
vasp_omp_std       0000000001EE2F5A  for__signal_handl     Unknown  Unknown
libpthread-2.31.s  00007F3C783228C0  Unknown               Unknown  Unknown
vasp_omp_std       0000000001ECD07A  for_dealloc_all_n     Unknown  Unknown
vasp_omp_std       0000000000BEAE7B  Unknown               Unknown  Unknown
vasp_omp_std       000000000119C6E1  Unknown               Unknown  Unknown
vasp_omp_std       0000000001E89F8E  Unknown               Unknown  Unknown
vasp_omp_std       000000000041A292  Unknown               Unknown  Unknown
libc-2.31.so       00007F3C77C012BD  __libc_start_main     Unknown  Unknown
vasp_omp_std       000000000041A1AA  Unknown               Unknown  Unknown
forrtl: severe (174): SIGSEGV, segmentation fault occurred
Image              PC                Routine            Line        Source             
vasp_omp_std       0000000001EE2F5A  for__signal_handl     Unknown  Unknown
libpthread-2.31.s  00007F5FFBF248C0  Unknown               Unknown  Unknown
vasp_omp_std       0000000001ECD07A  for_dealloc_all_n     Unknown  Unknown
vasp_omp_std       0000000000BEAE7B  Unknown               Unknown  Unknown
vasp_omp_std       000000000119C6E1  Unknown               Unknown  Unknown
vasp_omp_std       0000000001E89F8E  Unknown               Unknown  Unknown
vasp_omp_std       000000000041A292  Unknown               Unknown  Unknown
libc-2.31.so       00007F5FFB8032BD  __libc_start_main     Unknown  Unknown
vasp_omp_std       000000000041A1AA  Unknown               Unknown  Unknown
forrtl: severe (174): SIGSEGV, segmentation fault occurred
Image              PC                Routine            Line        Source             
vasp_omp_std       0000000001EE2F5A  for__signal_handl     Unknown  Unknown
libpthread-2.31.s  00007FEEA446F8C0  Unknown               Unknown  Unknown
vasp_omp_std       0000000001ECD07A  for_dealloc_all_n     Unknown  Unknown
vasp_omp_std       0000000000BEAE7B  Unknown               Unknown  Unknown
vasp_omp_std       000000000119C6E1  Unknown               Unknown  Unknown
vasp_omp_std       0000000001E89F8E  Unknown               Unknown  Unknown
vasp_omp_std       000000000041A292  Unknown               Unknown  Unknown
libc-2.31.so       00007FEEA3D4E2BD  __libc_start_main     Unknown  Unknown
vasp_omp_std       000000000041A1AA  Unknown               Unknown  Unknown
forrtl: severe (174): SIGSEGV, segmentation fault occurred
Image              PC                Routine            Line        Source             
vasp_omp_std       0000000001EE2F5A  for__signal_handl     Unknown  Unknown
libpthread-2.31.s  00007F14DD79E8C0  Unknown               Unknown  Unknown
vasp_omp_std       0000000001ECD07A  for_dealloc_all_n     Unknown  Unknown
vasp_omp_std       0000000000BEAE7B  Unknown               Unknown  Unknown
vasp_omp_std       000000000119C6E1  Unknown               Unknown  Unknown
vasp_omp_std       0000000001E89F8E  Unknown               Unknown  Unknown
vasp_omp_std       000000000041A292  Unknown               Unknown  Unknown
libc-2.31.so       00007F14DD07D2BD  __libc_start_main     Unknown  Unknown
vasp_omp_std       000000000041A1AA  Unknown               Unknown  Unknown
forrtl: severe (174): SIGSEGV, segmentation fault occurred
Image              PC                Routine            Line        Source             
vasp_omp_std       0000000001EE2F5A  for__signal_handl     Unknown  Unknown
libpthread-2.31.s  00007F555F4448C0  Unknown               Unknown  Unknown
vasp_omp_std       0000000001ECD07A  for_dealloc_all_n     Unknown  Unknown
vasp_omp_std       0000000000BEAE7B  Unknown               Unknown  Unknown
vasp_omp_std       000000000119C6E1  Unknown               Unknown  Unknown
vasp_omp_std       0000000001E89F8E  Unknown               Unknown  Unknown
vasp_omp_std       000000000041A292  Unknown               Unknown  Unknown
libc-2.31.so       00007F555ED232BD  __libc_start_main     Unknown  Unknown
vasp_omp_std       000000000041A1AA  Unknown               Unknown  Unknown
forrtl: severe (174): SIGSEGV, segmentation fault occurred
Image              PC                Routine            Line        Source             
vasp_omp_std       0000000001EE2F5A  for__signal_handl     Unknown  Unknown
libpthread-2.31.s  00007FECFA7888C0  Unknown               Unknown  Unknown
vasp_omp_std       0000000001ECD07A  for_dealloc_all_n     Unknown  Unknown
vasp_omp_std       0000000000BEAE7B  Unknown               Unknown  Unknown
vasp_omp_std       000000000119C6E1  Unknown               Unknown  Unknown
vasp_omp_std       0000000001E89F8E  Unknown               Unknown  Unknown
vasp_omp_std       000000000041A292  Unknown               Unknown  Unknown
libc-2.31.so       00007FECFA0672BD  __libc_start_main     Unknown  Unknown
vasp_omp_std       000000000041A1AA  Unknown               Unknown  Unknown
forrtl: severe (174): SIGSEGV, segmentation fault occurred
Image              PC                Routine            Line        Source             
vasp_omp_std       0000000001EE2F5A  for__signal_handl     Unknown  Unknown
libpthread-2.31.s  00007F27FF8168C0  Unknown               Unknown  Unknown
vasp_omp_std       0000000001ECD07A  for_dealloc_all_n     Unknown  Unknown
vasp_omp_std       0000000000BEAE7B  Unknown               Unknown  Unknown
vasp_omp_std       000000000119C6E1  Unknown               Unknown  Unknown
vasp_omp_std       0000000001E89F8E  Unknown               Unknown  Unknown
vasp_omp_std       000000000041A292  Unknown               Unknown  Unknown
libc-2.31.so       00007F27FF0F52BD  __libc_start_main     Unknown  Unknown
vasp_omp_std       000000000041A1AA  Unknown               Unknown  Unknown
forrtl: severe (174): SIGSEGV, segmentation fault occurred
Image              PC                Routine            Line        Source             
vasp_omp_std       0000000001EE2F5A  for__signal_handl     Unknown  Unknown
libpthread-2.31.s  00007F68A579A8C0  Unknown               Unknown  Unknown
vasp_omp_std       0000000001ECD07A  for_dealloc_all_n     Unknown  Unknown
vasp_omp_std       0000000000BEAE7B  Unknown               Unknown  Unknown
vasp_omp_std       000000000119C6E1  Unknown               Unknown  Unknown
vasp_omp_std       0000000001E89F8E  Unknown               Unknown  Unknown
vasp_omp_std       000000000041A292  Unknown               Unknown  Unknown
libc-2.31.so       00007F68A50792BD  __libc_start_main     Unknown  Unknown
vasp_omp_std       000000000041A1AA  Unknown               Unknown  Unknown
forrtl: severe (174): SIGSEGV, segmentation fault occurred
Image              PC                Routine            Line        Source             
vasp_omp_std       0000000001EE2F5A  for__signal_handl     Unknown  Unknown
libpthread-2.31.s  00007F0CA11B38C0  Unknown               Unknown  Unknown
vasp_omp_std       0000000001ECD07A  for_dealloc_all_n     Unknown  Unknown
vasp_omp_std       0000000000BEAE7B  Unknown               Unknown  Unknown
vasp_omp_std       000000000119C6E1  Unknown               Unknown  Unknown
vasp_omp_std       0000000001E89F8E  Unknown               Unknown  Unknown
vasp_omp_std       000000000041A292  Unknown               Unknown  Unknown
libc-2.31.so       00007F0CA0A922BD  __libc_start_main     Unknown  Unknown
vasp_omp_std       000000000041A1AA  Unknown               Unknown  Unknown
forrtl: severe (174): SIGSEGV, segmentation fault occurred
Image              PC                Routine            Line        Source             
vasp_omp_std       0000000001EE2F5A  for__signal_handl     Unknown  Unknown
libpthread-2.31.s  00007F57399F28C0  Unknown               Unknown  Unknown
vasp_omp_std       0000000001ECD07A  for_dealloc_all_n     Unknown  Unknown
vasp_omp_std       0000000000BEAE7B  Unknown               Unknown  Unknown
vasp_omp_std       000000000119C6E1  Unknown               Unknown  Unknown
vasp_omp_std       0000000001E89F8E  Unknown               Unknown  Unknown
vasp_omp_std       000000000041A292  Unknown               Unknown  Unknown
libc-2.31.so       00007F57392D12BD  __libc_start_main     Unknown  Unknown
vasp_omp_std       000000000041A1AA  Unknown               Unknown  Unknown
forrtl: severe (174): SIGSEGV, segmentation fault occurred
Image              PC                Routine            Line        Source             
vasp_omp_std       0000000001EE2F5A  for__signal_handl     Unknown  Unknown
libpthread-2.31.s  00007F10D206F8C0  Unknown               Unknown  Unknown
vasp_omp_std       0000000001ECD07A  for_dealloc_all_n     Unknown  Unknown
vasp_omp_std       0000000000BEAE7B  Unknown               Unknown  Unknown
vasp_omp_std       000000000119C6E1  Unknown               Unknown  Unknown
vasp_omp_std       0000000001E89F8E  Unknown               Unknown  Unknown
vasp_omp_std       000000000041A292  Unknown               Unknown  Unknown
libc-2.31.so       00007F10D194E2BD  __libc_start_main     Unknown  Unknown
vasp_omp_std       000000000041A1AA  Unknown               Unknown  Unknown
forrtl: severe (174): SIGSEGV, segmentation fault occurred
Image              PC                Routine            Line        Source             
vasp_omp_std       0000000001EE2F5A  for__signal_handl     Unknown  Unknown
libpthread-2.31.s  00007F534117E8C0  Unknown               Unknown  Unknown
vasp_omp_std       0000000001ECD07A  for_dealloc_all_n     Unknown  Unknown
vasp_omp_std       0000000000BEAE7B  Unknown               Unknown  Unknown
vasp_omp_std       000000000119C6E1  Unknown               Unknown  Unknown
vasp_omp_std       0000000001E89F8E  Unknown               Unknown  Unknown
vasp_omp_std       000000000041A292  Unknown               Unknown  Unknown
libc-2.31.so       00007F5340A5D2BD  __libc_start_main     Unknown  Unknown
vasp_omp_std       000000000041A1AA  Unknown               Unknown  Unknown
forrtl: severe (174): SIGSEGV, segmentation fault occurred
Image              PC                Routine            Line        Source             
vasp_omp_std       0000000001EE2F5A  for__signal_handl     Unknown  Unknown
libpthread-2.31.s  00007F246CEB28C0  Unknown               Unknown  Unknown
vasp_omp_std       0000000001ECD07A  for_dealloc_all_n     Unknown  Unknown
vasp_omp_std       0000000000BEAE7B  Unknown               Unknown  Unknown
vasp_omp_std       000000000119C6E1  Unknown               Unknown  Unknown
vasp_omp_std       0000000001E89F8E  Unknown               Unknown  Unknown
vasp_omp_std       000000000041A292  Unknown               Unknown  Unknown
libc-2.31.so       00007F246C7912BD  __libc_start_main     Unknown  Unknown
vasp_omp_std       000000000041A1AA  Unknown               Unknown  Unknown
forrtl: severe (174): SIGSEGV, segmentation fault occurred
Image              PC                Routine            Line        Source             
vasp_omp_std       0000000001EE2F5A  for__signal_handl     Unknown  Unknown
libpthread-2.31.s  00007FA03C3538C0  Unknown               Unknown  Unknown
vasp_omp_std       0000000001ECD07A  for_dealloc_all_n     Unknown  Unknown
vasp_omp_std       0000000000BEAE7B  Unknown               Unknown  Unknown
vasp_omp_std       000000000119C6E1  Unknown               Unknown  Unknown
vasp_omp_std       0000000001E89F8E  Unknown               Unknown  Unknown
vasp_omp_std       000000000041A292  Unknown               Unknown  Unknown
libc-2.31.so       00007FA03BC322BD  __libc_start_main     Unknown  Unknown
vasp_omp_std       000000000041A1AA  Unknown               Unknown  Unknown
forrtl: severe (174): SIGSEGV, segmentation fault occurred
Image              PC                Routine            Line        Source             
vasp_omp_std       0000000001EE2F5A  for__signal_handl     Unknown  Unknown
libpthread-2.31.s  00007F7BFD8E08C0  Unknown               Unknown  Unknown
vasp_omp_std       0000000001ECD07A  for_dealloc_all_n     Unknown  Unknown
vasp_omp_std       0000000000BEAE7B  Unknown               Unknown  Unknown
vasp_omp_std       000000000119C6E1  Unknown               Unknown  Unknown
vasp_omp_std       0000000001E89F8E  Unknown               Unknown  Unknown
vasp_omp_std       000000000041A292  Unknown               Unknown  Unknown
libc-2.31.so       00007F7BFD1BF2BD  __libc_start_main     Unknown  Unknown
vasp_omp_std       000000000041A1AA  Unknown               Unknown  Unknown
forrtl: severe (174): SIGSEGV, segmentation fault occurred
Image              PC                Routine            Line        Source             
vasp_omp_std       0000000001EE2F5A  for__signal_handl     Unknown  Unknown
libpthread-2.31.s  00007F29292F08C0  Unknown               Unknown  Unknown
vasp_omp_std       0000000001ECD07A  for_dealloc_all_n     Unknown  Unknown
vasp_omp_std       0000000000BEAE7B  Unknown               Unknown  Unknown
vasp_omp_std       000000000119C6E1  Unknown               Unknown  Unknown
vasp_omp_std       0000000001E89F8E  Unknown               Unknown  Unknown
vasp_omp_std       000000000041A292  Unknown               Unknown  Unknown
libc-2.31.so       00007F2928BCF2BD  __libc_start_main     Unknown  Unknown
vasp_omp_std       000000000041A1AA  Unknown               Unknown  Unknown
forrtl: severe (174): SIGSEGV, segmentation fault occurred
Image              PC                Routine            Line        Source             
vasp_omp_std       0000000001EE2F5A  for__signal_handl     Unknown  Unknown
libpthread-2.31.s  00007FBC2E7708C0  Unknown               Unknown  Unknown
vasp_omp_std       0000000001ECD07A  for_dealloc_all_n     Unknown  Unknown
vasp_omp_std       0000000000BEAE7B  Unknown               Unknown  Unknown
vasp_omp_std       000000000119C6E1  Unknown               Unknown  Unknown
vasp_omp_std       0000000001E89F8E  Unknown               Unknown  Unknown
vasp_omp_std       000000000041A292  Unknown               Unknown  Unknown
libc-2.31.so       00007FBC2E04F2BD  __libc_start_main     Unknown  Unknown
vasp_omp_std       000000000041A1AA  Unknown               Unknown  Unknown
forrtl: severe (174): SIGSEGV, segmentation fault occurred
Image              PC                Routine            Line        Source             
vasp_omp_std       0000000001EE2F5A  for__signal_handl     Unknown  Unknown
libpthread-2.31.s  00007F34B63D48C0  Unknown               Unknown  Unknown
vasp_omp_std       0000000001ECD07A  for_dealloc_all_n     Unknown  Unknown
vasp_omp_std       0000000000BEAE7B  Unknown               Unknown  Unknown
vasp_omp_std       000000000119C6E1  Unknown               Unknown  Unknown
vasp_omp_std       0000000001E89F8E  Unknown               Unknown  Unknown
vasp_omp_std       000000000041A292  Unknown               Unknown  Unknown
libc-2.31.so       00007F34B5CB32BD  __libc_start_main     Unknown  Unknown
vasp_omp_std       000000000041A1AA  Unknown               Unknown  Unknown
forrtl: severe (174): SIGSEGV, segmentation fault occurred
Image              PC                Routine            Line        Source             
vasp_omp_std       0000000001EE2F5A  for__signal_handl     Unknown  Unknown
libpthread-2.31.s  00007FCE160C68C0  Unknown               Unknown  Unknown
vasp_omp_std       0000000001ECD07A  for_dealloc_all_n     Unknown  Unknown
vasp_omp_std       0000000000BEAE7B  Unknown               Unknown  Unknown
vasp_omp_std       000000000119C6E1  Unknown               Unknown  Unknown
vasp_omp_std       0000000001E89F8E  Unknown               Unknown  Unknown
vasp_omp_std       000000000041A292  Unknown               Unknown  Unknown
libc-2.31.so       00007FCE159A52BD  __libc_start_main     Unknown  Unknown
vasp_omp_std       000000000041A1AA  Unknown               Unknown  Unknown
forrtl: severe (174): SIGSEGV, segmentation fault occurred
Image              PC                Routine            Line        Source             
vasp_omp_std       0000000001EE2F5A  for__signal_handl     Unknown  Unknown
libpthread-2.31.s  00007F3AF8FAE8C0  Unknown               Unknown  Unknown
vasp_omp_std       0000000001ECD07A  for_dealloc_all_n     Unknown  Unknown
vasp_omp_std       0000000000BEAE7B  Unknown               Unknown  Unknown
vasp_omp_std       000000000119C6E1  Unknown               Unknown  Unknown
vasp_omp_std       0000000001E89F8E  Unknown               Unknown  Unknown
vasp_omp_std       000000000041A292  Unknown               Unknown  Unknown
libc-2.31.so       00007F3AF888D2BD  __libc_start_main     Unknown  Unknown
vasp_omp_std       000000000041A1AA  Unknown               Unknown  Unknown
forrtl: severe (174): SIGSEGV, segmentation fault occurred
Image              PC                Routine            Line        Source             
vasp_omp_std       0000000001EE2F5A  for__signal_handl     Unknown  Unknown
libpthread-2.31.s  00007F8C0E8A58C0  Unknown               Unknown  Unknown
vasp_omp_std       0000000001ECD07A  for_dealloc_all_n     Unknown  Unknown
vasp_omp_std       0000000000BEAE7B  Unknown               Unknown  Unknown
vasp_omp_std       000000000119C6E1  Unknown               Unknown  Unknown
vasp_omp_std       0000000001E89F8E  Unknown               Unknown  Unknown
vasp_omp_std       000000000041A292  Unknown               Unknown  Unknown
libc-2.31.so       00007F8C0E1842BD  __libc_start_main     Unknown  Unknown
vasp_omp_std       000000000041A1AA  Unknown               Unknown  Unknown
forrtl: severe (174): SIGSEGV, segmentation fault occurred
Image              PC                Routine            Line        Source             
vasp_omp_std       0000000001EE2F5A  for__signal_handl     Unknown  Unknown
libpthread-2.31.s  00007FD6548B48C0  Unknown               Unknown  Unknown
vasp_omp_std       0000000001ECD07A  for_dealloc_all_n     Unknown  Unknown
vasp_omp_std       0000000000BEAE7B  Unknown               Unknown  Unknown
vasp_omp_std       000000000119C6E1  Unknown               Unknown  Unknown
vasp_omp_std       0000000001E89F8E  Unknown               Unknown  Unknown
vasp_omp_std       000000000041A292  Unknown               Unknown  Unknown
libc-2.31.so       00007FD6541932BD  __libc_start_main     Unknown  Unknown
vasp_omp_std       000000000041A1AA  Unknown               Unknown  Unknown
forrtl: severe (174): SIGSEGV, segmentation fault occurred
Image              PC                Routine            Line        Source             
vasp_omp_std       0000000001EE2F5A  for__signal_handl     Unknown  Unknown
libpthread-2.31.s  00007F50885278C0  Unknown               Unknown  Unknown
vasp_omp_std       0000000001ECD07A  for_dealloc_all_n     Unknown  Unknown
vasp_omp_std       0000000000BEAE7B  Unknown               Unknown  Unknown
vasp_omp_std       000000000119C6E1  Unknown               Unknown  Unknown
vasp_omp_std       0000000001E89F8E  Unknown               Unknown  Unknown
vasp_omp_std       000000000041A292  Unknown               Unknown  Unknown
libc-2.31.so       00007F5087E062BD  __libc_start_main     Unknown  Unknown
vasp_omp_std       000000000041A1AA  Unknown               Unknown  Unknown
forrtl: severe (174): SIGSEGV, segmentation fault occurred
Image              PC                Routine            Line        Source             
vasp_omp_std       0000000001EE2F5A  for__signal_handl     Unknown  Unknown
libpthread-2.31.s  00007F3D8BF518C0  Unknown               Unknown  Unknown
vasp_omp_std       0000000001ECD07A  for_dealloc_all_n     Unknown  Unknown
vasp_omp_std       0000000000BEAE7B  Unknown               Unknown  Unknown
vasp_omp_std       000000000119C6E1  Unknown               Unknown  Unknown
vasp_omp_std       0000000001E89F8E  Unknown               Unknown  Unknown
vasp_omp_std       000000000041A292  Unknown               Unknown  Unknown
libc-2.31.so       00007F3D8B8302BD  __libc_start_main     Unknown  Unknown
vasp_omp_std       000000000041A1AA  Unknown               Unknown  Unknown
forrtl: severe (174): SIGSEGV, segmentation fault occurred
Image              PC                Routine            Line        Source             
vasp_omp_std       0000000001EE2F5A  for__signal_handl     Unknown  Unknown
libpthread-2.31.s  00007F67E676F8C0  Unknown               Unknown  Unknown
vasp_omp_std       0000000001ECD07A  for_dealloc_all_n     Unknown  Unknown
vasp_omp_std       0000000000BEAE7B  Unknown               Unknown  Unknown
vasp_omp_std       000000000119C6E1  Unknown               Unknown  Unknown
vasp_omp_std       0000000001E89F8E  Unknown               Unknown  Unknown
vasp_omp_std       000000000041A292  Unknown               Unknown  Unknown
libc-2.31.so       00007F67E604E2BD  __libc_start_main     Unknown  Unknown
vasp_omp_std       000000000041A1AA  Unknown               Unknown  Unknown
forrtl: severe (174): SIGSEGV, segmentation fault occurred
Image              PC                Routine            Line        Source             
vasp_omp_std       0000000001EE2F5A  for__signal_handl     Unknown  Unknown
libpthread-2.31.s  00007FE3C7AE38C0  Unknown               Unknown  Unknown
vasp_omp_std       0000000001ECD07A  for_dealloc_all_n     Unknown  Unknown
vasp_omp_std       0000000000BEAE7B  Unknown               Unknown  Unknown
vasp_omp_std       000000000119C6E1  Unknown               Unknown  Unknown
vasp_omp_std       0000000001E89F8E  Unknown               Unknown  Unknown
vasp_omp_std       000000000041A292  Unknown               Unknown  Unknown
libc-2.31.so       00007FE3C73C22BD  __libc_start_main     Unknown  Unknown
vasp_omp_std       000000000041A1AA  Unknown               Unknown  Unknown
forrtl: severe (174): SIGSEGV, segmentation fault occurred
Image              PC                Routine            Line        Source             
vasp_omp_std       0000000001EE2F5A  for__signal_handl     Unknown  Unknown
libpthread-2.31.s  00007EFC995A68C0  Unknown               Unknown  Unknown
vasp_omp_std       0000000001ECD07A  for_dealloc_all_n     Unknown  Unknown
vasp_omp_std       0000000000BEAE7B  Unknown               Unknown  Unknown
vasp_omp_std       000000000119C6E1  Unknown               Unknown  Unknown
vasp_omp_std       0000000001E89F8E  Unknown               Unknown  Unknown
vasp_omp_std       000000000041A292  Unknown               Unknown  Unknown
libc-2.31.so       00007EFC98E852BD  __libc_start_main     Unknown  Unknown
vasp_omp_std       000000000041A1AA  Unknown               Unknown  Unknown
forrtl: severe (174): SIGSEGV, segmentation fault occurred
Image              PC                Routine            Line        Source             
vasp_omp_std       0000000001EE2F5A  for__signal_handl     Unknown  Unknown
libpthread-2.31.s  00007FCDA81848C0  Unknown               Unknown  Unknown
vasp_omp_std       0000000001ECD07A  for_dealloc_all_n     Unknown  Unknown
vasp_omp_std       0000000000BEAE7B  Unknown               Unknown  Unknown
vasp_omp_std       000000000119C6E1  Unknown               Unknown  Unknown
vasp_omp_std       0000000001E89F8E  Unknown               Unknown  Unknown
vasp_omp_std       000000000041A292  Unknown               Unknown  Unknown
libc-2.31.so       00007FCDA7A632BD  __libc_start_main     Unknown  Unknown
vasp_omp_std       000000000041A1AA  Unknown               Unknown  Unknown
forrtl: severe (174): SIGSEGV, segmentation fault occurred
Image              PC                Routine            Line        Source             
vasp_omp_std       0000000001EE2F5A  for__signal_handl     Unknown  Unknown
libpthread-2.31.s  00007F3C7B4C58C0  Unknown               Unknown  Unknown
vasp_omp_std       0000000001ECD07A  for_dealloc_all_n     Unknown  Unknown
vasp_omp_std       0000000000BEAE7B  Unknown               Unknown  Unknown
vasp_omp_std       000000000119C6E1  Unknown               Unknown  Unknown
vasp_omp_std       0000000001E89F8E  Unknown               Unknown  Unknown
vasp_omp_std       000000000041A292  Unknown               Unknown  Unknown
libc-2.31.so       00007F3C7ADA42BD  __libc_start_main     Unknown  Unknown
vasp_omp_std       000000000041A1AA  Unknown               Unknown  Unknown
forrtl: severe (174): SIGSEGV, segmentation fault occurred
Image              PC                Routine            Line        Source             
vasp_omp_std       0000000001EE2F5A  for__signal_handl     Unknown  Unknown
libpthread-2.31.s  00007FE59EFC98C0  Unknown               Unknown  Unknown
vasp_omp_std       0000000001ECD07A  for_dealloc_all_n     Unknown  Unknown
vasp_omp_std       0000000000BEAE7B  Unknown               Unknown  Unknown
vasp_omp_std       000000000119C6E1  Unknown               Unknown  Unknown
vasp_omp_std       0000000001E89F8E  Unknown               Unknown  Unknown
vasp_omp_std       000000000041A292  Unknown               Unknown  Unknown
libc-2.31.so       00007FE59E8A82BD  __libc_start_main     Unknown  Unknown
vasp_omp_std       000000000041A1AA  Unknown               Unknown  Unknown
forrtl: severe (174): SIGSEGV, segmentation fault occurred
Image              PC                Routine            Line        Source             
vasp_omp_std       0000000001EE2F5A  for__signal_handl     Unknown  Unknown
libpthread-2.31.s  00007F4AEA3698C0  Unknown               Unknown  Unknown
vasp_omp_std       0000000001ECD07A  for_dealloc_all_n     Unknown  Unknown
vasp_omp_std       0000000000BEAE7B  Unknown               Unknown  Unknown
vasp_omp_std       000000000119C6E1  Unknown               Unknown  Unknown
vasp_omp_std       0000000001E89F8E  Unknown               Unknown  Unknown
vasp_omp_std       000000000041A292  Unknown               Unknown  Unknown
libc-2.31.so       00007F4AE9C482BD  __libc_start_main     Unknown  Unknown
vasp_omp_std       000000000041A1AA  Unknown               Unknown  Unknown
forrtl: severe (174): SIGSEGV, segmentation fault occurred
Image              PC                Routine            Line        Source             
vasp_omp_std       0000000001EE2F5A  for__signal_handl     Unknown  Unknown
libpthread-2.31.s  00007FE7393058C0  Unknown               Unknown  Unknown
vasp_omp_std       0000000001ECD07A  for_dealloc_all_n     Unknown  Unknown
vasp_omp_std       0000000000BEAE7B  Unknown               Unknown  Unknown
vasp_omp_std       000000000119C6E1  Unknown               Unknown  Unknown
vasp_omp_std       0000000001E89F8E  Unknown               Unknown  Unknown
vasp_omp_std       000000000041A292  Unknown               Unknown  Unknown
libc-2.31.so       00007FE738BE42BD  __libc_start_main     Unknown  Unknown
vasp_omp_std       000000000041A1AA  Unknown               Unknown  Unknown
forrtl: severe (174): SIGSEGV, segmentation fault occurred
Image              PC                Routine            Line        Source             
vasp_omp_std       0000000001EE2F5A  for__signal_handl     Unknown  Unknown
libpthread-2.31.s  00007F666B2D78C0  Unknown               Unknown  Unknown
vasp_omp_std       0000000001ECD07A  for_dealloc_all_n     Unknown  Unknown
vasp_omp_std       0000000000BEAE7B  Unknown               Unknown  Unknown
vasp_omp_std       000000000119C6E1  Unknown               Unknown  Unknown
vasp_omp_std       0000000001E89F8E  Unknown               Unknown  Unknown
vasp_omp_std       000000000041A292  Unknown               Unknown  Unknown
libc-2.31.so       00007F666ABB62BD  __libc_start_main     Unknown  Unknown
vasp_omp_std       000000000041A1AA  Unknown               Unknown  Unknown
forrtl: severe (174): SIGSEGV, segmentation fault occurred
Image              PC                Routine            Line        Source             
vasp_omp_std       0000000001EE2F5A  for__signal_handl     Unknown  Unknown
libpthread-2.31.s  00007FEA02CB28C0  Unknown               Unknown  Unknown
vasp_omp_std       0000000001ECD07A  for_dealloc_all_n     Unknown  Unknown
vasp_omp_std       0000000000BEAE7B  Unknown               Unknown  Unknown
vasp_omp_std       000000000119C6E1  Unknown               Unknown  Unknown
vasp_omp_std       0000000001E89F8E  Unknown               Unknown  Unknown
vasp_omp_std       000000000041A292  Unknown               Unknown  Unknown
libc-2.31.so       00007FEA025912BD  __libc_start_main     Unknown  Unknown
vasp_omp_std       000000000041A1AA  Unknown               Unknown  Unknown
forrtl: severe (174): SIGSEGV, segmentation fault occurred
Image              PC                Routine            Line        Source             
vasp_omp_std       0000000001EE2F5A  for__signal_handl     Unknown  Unknown
libpthread-2.31.s  00007F510BE758C0  Unknown               Unknown  Unknown
vasp_omp_std       0000000001ECD07A  for_dealloc_all_n     Unknown  Unknown
vasp_omp_std       0000000000BEAE7B  Unknown               Unknown  Unknown
vasp_omp_std       000000000119C6E1  Unknown               Unknown  Unknown
vasp_omp_std       0000000001E89F8E  Unknown               Unknown  Unknown
vasp_omp_std       000000000041A292  Unknown               Unknown  Unknown
libc-2.31.so       00007F510B7542BD  __libc_start_main     Unknown  Unknown
vasp_omp_std       000000000041A1AA  Unknown               Unknown  Unknown
forrtl: severe (174): SIGSEGV, segmentation fault occurred
Image              PC                Routine            Line        Source             
vasp_omp_std       0000000001EE2F5A  for__signal_handl     Unknown  Unknown
libpthread-2.31.s  00007F84030608C0  Unknown               Unknown  Unknown
vasp_omp_std       0000000001ECD07A  for_dealloc_all_n     Unknown  Unknown
vasp_omp_std       0000000000BEAE7B  Unknown               Unknown  Unknown
vasp_omp_std       000000000119C6E1  Unknown               Unknown  Unknown
vasp_omp_std       0000000001E89F8E  Unknown               Unknown  Unknown
vasp_omp_std       000000000041A292  Unknown               Unknown  Unknown
libc-2.31.so       00007F840293F2BD  __libc_start_main     Unknown  Unknown
vasp_omp_std       000000000041A1AA  Unknown               Unknown  Unknown
forrtl: severe (174): SIGSEGV, segmentation fault occurred
Image              PC                Routine            Line        Source             
vasp_omp_std       0000000001EE2F5A  for__signal_handl     Unknown  Unknown
libpthread-2.31.s  00007F2BC4C318C0  Unknown               Unknown  Unknown
vasp_omp_std       0000000001ECD07A  for_dealloc_all_n     Unknown  Unknown
vasp_omp_std       0000000000BEAE7B  Unknown               Unknown  Unknown
vasp_omp_std       000000000119C6E1  Unknown               Unknown  Unknown
vasp_omp_std       0000000001E89F8E  Unknown               Unknown  Unknown
vasp_omp_std       000000000041A292  Unknown               Unknown  Unknown
libc-2.31.so       00007F2BC45102BD  __libc_start_main     Unknown  Unknown
vasp_omp_std       000000000041A1AA  Unknown               Unknown  Unknown
forrtl: severe (174): SIGSEGV, segmentation fault occurred
Image              PC                Routine            Line        Source             
vasp_omp_std       0000000001EE2F5A  for__signal_handl     Unknown  Unknown
libpthread-2.31.s  00007FBB5B6818C0  Unknown               Unknown  Unknown
vasp_omp_std       0000000001ECD07A  for_dealloc_all_n     Unknown  Unknown
vasp_omp_std       0000000000BEAE7B  Unknown               Unknown  Unknown
vasp_omp_std       000000000119C6E1  Unknown               Unknown  Unknown
vasp_omp_std       0000000001E89F8E  Unknown               Unknown  Unknown
vasp_omp_std       000000000041A292  Unknown               Unknown  Unknown
libc-2.31.so       00007FBB5AF602BD  __libc_start_main     Unknown  Unknown
vasp_omp_std       000000000041A1AA  Unknown               Unknown  Unknown
forrtl: severe (174): SIGSEGV, segmentation fault occurred
Image              PC                Routine            Line        Source             
vasp_omp_std       0000000001EE2F5A  for__signal_handl     Unknown  Unknown
libpthread-2.31.s  00007F13721648C0  Unknown               Unknown  Unknown
vasp_omp_std       0000000001ECD07A  for_dealloc_all_n     Unknown  Unknown
vasp_omp_std       0000000000BEAE7B  Unknown               Unknown  Unknown
vasp_omp_std       000000000119C6E1  Unknown               Unknown  Unknown
vasp_omp_std       0000000001E89F8E  Unknown               Unknown  Unknown
vasp_omp_std       000000000041A292  Unknown               Unknown  Unknown
libc-2.31.so       00007F1371A432BD  __libc_start_main     Unknown  Unknown
vasp_omp_std       000000000041A1AA  Unknown               Unknown  Unknown
forrtl: severe (174): SIGSEGV, segmentation fault occurred
Image              PC                Routine            Line        Source             
vasp_omp_std       0000000001EE2F5A  for__signal_handl     Unknown  Unknown
libpthread-2.31.s  00007F9ECFD608C0  Unknown               Unknown  Unknown
vasp_omp_std       0000000001ECD07A  for_dealloc_all_n     Unknown  Unknown
vasp_omp_std       0000000000BEAE7B  Unknown               Unknown  Unknown
vasp_omp_std       000000000119C6E1  Unknown               Unknown  Unknown
vasp_omp_std       0000000001E89F8E  Unknown               Unknown  Unknown
vasp_omp_std       000000000041A292  Unknown               Unknown  Unknown
libc-2.31.so       00007F9ECF63F2BD  __libc_start_main     Unknown  Unknown
vasp_omp_std       000000000041A1AA  Unknown               Unknown  Unknown
forrtl: severe (174): SIGSEGV, segmentation fault occurred
Image              PC                Routine            Line        Source             
vasp_omp_std       0000000001EE2F5A  for__signal_handl     Unknown  Unknown
libpthread-2.31.s  00007F05C746F8C0  Unknown               Unknown  Unknown
vasp_omp_std       0000000001ECD07A  for_dealloc_all_n     Unknown  Unknown
vasp_omp_std       0000000000BEAE7B  Unknown               Unknown  Unknown
vasp_omp_std       000000000119C6E1  Unknown               Unknown  Unknown
vasp_omp_std       0000000001E89F8E  Unknown               Unknown  Unknown
vasp_omp_std       000000000041A292  Unknown               Unknown  Unknown
libc-2.31.so       00007F05C6D4E2BD  __libc_start_main     Unknown  Unknown
vasp_omp_std       000000000041A1AA  Unknown               Unknown  Unknown
forrtl: severe (174): SIGSEGV, segmentation fault occurred
Image              PC                Routine            Line        Source             
vasp_omp_std       0000000001EE2F5A  for__signal_handl     Unknown  Unknown
libpthread-2.31.s  00007F91910BA8C0  Unknown               Unknown  Unknown
vasp_omp_std       0000000001ECD07A  for_dealloc_all_n     Unknown  Unknown
vasp_omp_std       0000000000BEAE7B  Unknown               Unknown  Unknown
vasp_omp_std       000000000119C6E1  Unknown               Unknown  Unknown
vasp_omp_std       0000000001E89F8E  Unknown               Unknown  Unknown
vasp_omp_std       000000000041A292  Unknown               Unknown  Unknown
libc-2.31.so       00007F91909992BD  __libc_start_main     Unknown  Unknown
vasp_omp_std       000000000041A1AA  Unknown               Unknown  Unknown
forrtl: severe (174): SIGSEGV, segmentation fault occurred
Image              PC                Routine            Line        Source             
vasp_omp_std       0000000001EE2F5A  for__signal_handl     Unknown  Unknown
libpthread-2.31.s  00007F53B59258C0  Unknown               Unknown  Unknown
vasp_omp_std       0000000001ECD07A  for_dealloc_all_n     Unknown  Unknown
vasp_omp_std       0000000000BEAE7B  Unknown               Unknown  Unknown
vasp_omp_std       000000000119C6E1  Unknown               Unknown  Unknown
vasp_omp_std       0000000001E89F8E  Unknown               Unknown  Unknown
vasp_omp_std       000000000041A292  Unknown               Unknown  Unknown
libc-2.31.so       00007F53B52042BD  __libc_start_main     Unknown  Unknown
vasp_omp_std       000000000041A1AA  Unknown               Unknown  Unknown
forrtl: severe (174): SIGSEGV, segmentation fault occurred
Image              PC                Routine            Line        Source             
vasp_omp_std       0000000001EE2F5A  for__signal_handl     Unknown  Unknown
libpthread-2.31.s  00007F744CA298C0  Unknown               Unknown  Unknown
vasp_omp_std       0000000001ECD07A  for_dealloc_all_n     Unknown  Unknown
vasp_omp_std       0000000000BEAE7B  Unknown               Unknown  Unknown
vasp_omp_std       000000000119C6E1  Unknown               Unknown  Unknown
vasp_omp_std       0000000001E89F8E  Unknown               Unknown  Unknown
vasp_omp_std       000000000041A292  Unknown               Unknown  Unknown
libc-2.31.so       00007F744C3082BD  __libc_start_main     Unknown  Unknown
vasp_omp_std       000000000041A1AA  Unknown               Unknown  Unknown
forrtl: severe (174): SIGSEGV, segmentation fault occurred
Image              PC                Routine            Line        Source             
vasp_omp_std       0000000001EE2F5A  for__signal_handl     Unknown  Unknown
libpthread-2.31.s  00007F84236F88C0  Unknown               Unknown  Unknown
vasp_omp_std       0000000001ECD07A  for_dealloc_all_n     Unknown  Unknown
vasp_omp_std       0000000000BEAE7B  Unknown               Unknown  Unknown
vasp_omp_std       000000000119C6E1  Unknown               Unknown  Unknown
vasp_omp_std       0000000001E89F8E  Unknown               Unknown  Unknown
vasp_omp_std       000000000041A292  Unknown               Unknown  Unknown
libc-2.31.so       00007F8422FD72BD  __libc_start_main     Unknown  Unknown
vasp_omp_std       000000000041A1AA  Unknown               Unknown  Unknown
forrtl: severe (174): SIGSEGV, segmentation fault occurred
Image              PC                Routine            Line        Source             
vasp_omp_std       0000000001EE2F5A  for__signal_handl     Unknown  Unknown
libpthread-2.31.s  00007FB622AB18C0  Unknown               Unknown  Unknown
vasp_omp_std       0000000001ECD07A  for_dealloc_all_n     Unknown  Unknown
vasp_omp_std       0000000000BEAE7B  Unknown               Unknown  Unknown
vasp_omp_std       000000000119C6E1  Unknown               Unknown  Unknown
vasp_omp_std       0000000001E89F8E  Unknown               Unknown  Unknown
vasp_omp_std       000000000041A292  Unknown               Unknown  Unknown
libc-2.31.so       00007FB6223902BD  __libc_start_main     Unknown  Unknown
vasp_omp_std       000000000041A1AA  Unknown               Unknown  Unknown
forrtl: severe (174): SIGSEGV, segmentation fault occurred
Image              PC                Routine            Line        Source             
vasp_omp_std       0000000001EE2F5A  for__signal_handl     Unknown  Unknown
libpthread-2.31.s  00007F1C3A9AC8C0  Unknown               Unknown  Unknown
vasp_omp_std       0000000001ECD07A  for_dealloc_all_n     Unknown  Unknown
vasp_omp_std       0000000000BEAE7B  Unknown               Unknown  Unknown
vasp_omp_std       000000000119C6E1  Unknown               Unknown  Unknown
vasp_omp_std       0000000001E89F8E  Unknown               Unknown  Unknown
vasp_omp_std       000000000041A292  Unknown               Unknown  Unknown
libc-2.31.so       00007F1C3A28B2BD  __libc_start_main     Unknown  Unknown
vasp_omp_std       000000000041A1AA  Unknown               Unknown  Unknown
forrtl: severe (174): SIGSEGV, segmentation fault occurred
Image              PC                Routine            Line        Source             
vasp_omp_std       0000000001EE2F5A  for__signal_handl     Unknown  Unknown
libpthread-2.31.s  00007F2DD8AF68C0  Unknown               Unknown  Unknown
vasp_omp_std       0000000001ECD07A  for_dealloc_all_n     Unknown  Unknown
vasp_omp_std       0000000000BEAE7B  Unknown               Unknown  Unknown
vasp_omp_std       000000000119C6E1  Unknown               Unknown  Unknown
vasp_omp_std       0000000001E89F8E  Unknown               Unknown  Unknown
vasp_omp_std       000000000041A292  Unknown               Unknown  Unknown
libc-2.31.so       00007F2DD83D52BD  __libc_start_main     Unknown  Unknown
vasp_omp_std       000000000041A1AA  Unknown               Unknown  Unknown
forrtl: severe (174): SIGSEGV, segmentation fault occurred
Image              PC                Routine            Line        Source             
vasp_omp_std       0000000001EE2F5A  for__signal_handl     Unknown  Unknown
libpthread-2.31.s  00007EFDAED968C0  Unknown               Unknown  Unknown
vasp_omp_std       0000000001ECD07A  for_dealloc_all_n     Unknown  Unknown
vasp_omp_std       0000000000BEAE7B  Unknown               Unknown  Unknown
vasp_omp_std       000000000119C6E1  Unknown               Unknown  Unknown
vasp_omp_std       0000000001E89F8E  Unknown               Unknown  Unknown
vasp_omp_std       000000000041A292  Unknown               Unknown  Unknown
libc-2.31.so       00007EFDAE6752BD  __libc_start_main     Unknown  Unknown
vasp_omp_std       000000000041A1AA  Unknown               Unknown  Unknown
forrtl: severe (174): SIGSEGV, segmentation fault occurred
Image              PC                Routine            Line        Source             
vasp_omp_std       0000000001EE2F5A  for__signal_handl     Unknown  Unknown
libpthread-2.31.s  00007F5B1A75A8C0  Unknown               Unknown  Unknown
vasp_omp_std       0000000001ECD07A  for_dealloc_all_n     Unknown  Unknown
vasp_omp_std       0000000000BEAE7B  Unknown               Unknown  Unknown
vasp_omp_std       000000000119C6E1  Unknown               Unknown  Unknown
vasp_omp_std       0000000001E89F8E  Unknown               Unknown  Unknown
vasp_omp_std       000000000041A292  Unknown               Unknown  Unknown
libc-2.31.so       00007F5B1A0392BD  __libc_start_main     Unknown  Unknown
vasp_omp_std       000000000041A1AA  Unknown               Unknown  Unknown
forrtl: severe (174): SIGSEGV, segmentation fault occurred
Image              PC                Routine            Line        Source             
vasp_omp_std       0000000001EE2F5A  for__signal_handl     Unknown  Unknown
libpthread-2.31.s  00007FC014DB58C0  Unknown               Unknown  Unknown
vasp_omp_std       0000000001ECD07A  for_dealloc_all_n     Unknown  Unknown
vasp_omp_std       0000000000BEAE7B  Unknown               Unknown  Unknown
vasp_omp_std       000000000119C6E1  Unknown               Unknown  Unknown
vasp_omp_std       0000000001E89F8E  Unknown               Unknown  Unknown
vasp_omp_std       000000000041A292  Unknown               Unknown  Unknown
libc-2.31.so       00007FC0146942BD  __libc_start_main     Unknown  Unknown
vasp_omp_std       000000000041A1AA  Unknown               Unknown  Unknown
forrtl: severe (174): SIGSEGV, segmentation fault occurred
Image              PC                Routine            Line        Source             
vasp_omp_std       0000000001EE2F5A  for__signal_handl     Unknown  Unknown
libpthread-2.31.s  00007F35778D58C0  Unknown               Unknown  Unknown
vasp_omp_std       0000000001ECD07A  for_dealloc_all_n     Unknown  Unknown
vasp_omp_std       0000000000BEAE7B  Unknown               Unknown  Unknown
vasp_omp_std       000000000119C6E1  Unknown               Unknown  Unknown
vasp_omp_std       0000000001E89F8E  Unknown               Unknown  Unknown
vasp_omp_std       000000000041A292  Unknown               Unknown  Unknown
libc-2.31.so       00007F35771B42BD  __libc_start_main     Unknown  Unknown
vasp_omp_std       000000000041A1AA  Unknown               Unknown  Unknown
forrtl: severe (174): SIGSEGV, segmentation fault occurred
Image              PC                Routine            Line        Source             
vasp_omp_std       0000000001EE2F5A  for__signal_handl     Unknown  Unknown
libpthread-2.31.s  00007FE9B0E3F8C0  Unknown               Unknown  Unknown
vasp_omp_std       0000000001ECD07A  for_dealloc_all_n     Unknown  Unknown
vasp_omp_std       0000000000BEAE7B  Unknown               Unknown  Unknown
vasp_omp_std       000000000119C6E1  Unknown               Unknown  Unknown
vasp_omp_std       0000000001E89F8E  Unknown               Unknown  Unknown
vasp_omp_std       000000000041A292  Unknown               Unknown  Unknown
libc-2.31.so       00007FE9B071E2BD  __libc_start_main     Unknown  Unknown
vasp_omp_std       000000000041A1AA  Unknown               Unknown  Unknown
forrtl: severe (174): SIGSEGV, segmentation fault occurred
Image              PC                Routine            Line        Source             
vasp_omp_std       0000000001EE2F5A  for__signal_handl     Unknown  Unknown
libpthread-2.31.s  00007FED06FB48C0  Unknown               Unknown  Unknown
vasp_omp_std       0000000001ECD07A  for_dealloc_all_n     Unknown  Unknown
vasp_omp_std       0000000000BEAE7B  Unknown               Unknown  Unknown
vasp_omp_std       000000000119C6E1  Unknown               Unknown  Unknown
vasp_omp_std       0000000001E89F8E  Unknown               Unknown  Unknown
vasp_omp_std       000000000041A292  Unknown               Unknown  Unknown
libc-2.31.so       00007FED068932BD  __libc_start_main     Unknown  Unknown
vasp_omp_std       000000000041A1AA  Unknown               Unknown  Unknown
forrtl: severe (174): SIGSEGV, segmentation fault occurred
Image              PC                Routine            Line        Source             
vasp_omp_std       0000000001EE2F5A  for__signal_handl     Unknown  Unknown
libpthread-2.31.s  00007FBB8F7908C0  Unknown               Unknown  Unknown
vasp_omp_std       0000000001ECD07A  for_dealloc_all_n     Unknown  Unknown
vasp_omp_std       0000000000BEAE7B  Unknown               Unknown  Unknown
vasp_omp_std       000000000119C6E1  Unknown               Unknown  Unknown
vasp_omp_std       0000000001E89F8E  Unknown               Unknown  Unknown
vasp_omp_std       000000000041A292  Unknown               Unknown  Unknown
libc-2.31.so       00007FBB8F06F2BD  __libc_start_main     Unknown  Unknown
vasp_omp_std       000000000041A1AA  Unknown               Unknown  Unknown
forrtl: severe (174): SIGSEGV, segmentation fault occurred
Image              PC                Routine            Line        Source             
vasp_omp_std       0000000001EE2F5A  for__signal_handl     Unknown  Unknown
libpthread-2.31.s  00007F33618558C0  Unknown               Unknown  Unknown
vasp_omp_std       0000000001ECD07A  for_dealloc_all_n     Unknown  Unknown
vasp_omp_std       0000000000BEAE7B  Unknown               Unknown  Unknown
vasp_omp_std       000000000119C6E1  Unknown               Unknown  Unknown
vasp_omp_std       0000000001E89F8E  Unknown               Unknown  Unknown
vasp_omp_std       000000000041A292  Unknown               Unknown  Unknown
libc-2.31.so       00007F33611342BD  __libc_start_main     Unknown  Unknown
vasp_omp_std       000000000041A1AA  Unknown               Unknown  Unknown
forrtl: severe (174): SIGSEGV, segmentation fault occurred
Image              PC                Routine            Line        Source             
vasp_omp_std       0000000001EE2F5A  for__signal_handl     Unknown  Unknown
libpthread-2.31.s  00007FECBA2FA8C0  Unknown               Unknown  Unknown
vasp_omp_std       0000000001ECD07A  for_dealloc_all_n     Unknown  Unknown
vasp_omp_std       0000000000BEAE7B  Unknown               Unknown  Unknown
vasp_omp_std       000000000119C6E1  Unknown               Unknown  Unknown
vasp_omp_std       0000000001E89F8E  Unknown               Unknown  Unknown
vasp_omp_std       000000000041A292  Unknown               Unknown  Unknown
libc-2.31.so       00007FECB9BD92BD  __libc_start_main     Unknown  Unknown
vasp_omp_std       000000000041A1AA  Unknown               Unknown  Unknown
forrtl: severe (174): SIGSEGV, segmentation fault occurred
Image              PC                Routine            Line        Source             
vasp_omp_std       0000000001EE2F5A  for__signal_handl     Unknown  Unknown
libpthread-2.31.s  00007F5CB62658C0  Unknown               Unknown  Unknown
vasp_omp_std       0000000001ECD07A  for_dealloc_all_n     Unknown  Unknown
vasp_omp_std       0000000000BEAE7B  Unknown               Unknown  Unknown
vasp_omp_std       000000000119C6E1  Unknown               Unknown  Unknown
vasp_omp_std       0000000001E89F8E  Unknown               Unknown  Unknown
vasp_omp_std       000000000041A292  Unknown               Unknown  Unknown
libc-2.31.so       00007F5CB5B442BD  __libc_start_main     Unknown  Unknown
vasp_omp_std       000000000041A1AA  Unknown               Unknown  Unknown
forrtl: severe (174): SIGSEGV, segmentation fault occurred
Image              PC                Routine            Line        Source             
vasp_omp_std       0000000001EE2F5A  for__signal_handl     Unknown  Unknown
libpthread-2.31.s  00007F49235898C0  Unknown               Unknown  Unknown
vasp_omp_std       0000000001ECD07A  for_dealloc_all_n     Unknown  Unknown
vasp_omp_std       0000000000BEAE7B  Unknown               Unknown  Unknown
vasp_omp_std       000000000119C6E1  Unknown               Unknown  Unknown
vasp_omp_std       0000000001E89F8E  Unknown               Unknown  Unknown
vasp_omp_std       000000000041A292  Unknown               Unknown  Unknown
libc-2.31.so       00007F4922E682BD  __libc_start_main     Unknown  Unknown
vasp_omp_std       000000000041A1AA  Unknown               Unknown  Unknown
/lrz/sys/applications/vasp6/bin/vasp6: Exit status from command is 174
