Nb                                      
           1
     3.322390    0.000000    0.000000
     0.000000    3.322390    0.000000
     0.000000    0.000000    3.322390
   Nb
     2
Direct configuration=     1
   0.00000000  0.00000000  0.00000000
   0.50000000  0.50000000  0.50000000
