Ga                                      
   1.00000000000000     
     4.566890    0.000000    0.000000
     0.000000    7.753300    0.000000
     0.000000    0.000000    4.599780
   Ga
     8
Direct
  0.000000  0.156420  0.081200
  0.000000  0.843580  0.918800
  0.000000  0.343580  0.581200
  0.000000  0.656420  0.418800
  0.500000  0.656420  0.081200
  0.500000  0.343580  0.918800
  0.500000  0.843580  0.581200
  0.500000  0.156420  0.418800
 
   48   72   48
  59.185      58.479      56.424      53.205      49.088      44.382      39.393      34.392      29.599      25.172    
  21.215      17.778      14.871      12.468      10.521      8.9694      7.7482      6.7980      6.0679      5.5162    
  5.1096      4.8220      4.6326      4.5256      4.4911      4.5256      4.6326      4.8220      5.1096      5.5162    
  6.0679      6.7980      7.7482      8.9694      10.521      12.468      14.871      17.778      21.215      25.172    
  29.599      34.392      39.393      44.382      49.088      53.205      56.424      58.479      60.860      60.112    
  57.937      54.539      50.211      45.290      40.106      34.945      30.028      25.511      21.488      18.002    
  15.056      12.621      10.648      9.0766      7.8419      6.8833      6.1485      5.5942      5.1864      4.8979    
  4.7078      4.6003      4.5656      4.6003      4.7078      4.8979      5.1864      5.5942      6.1485      6.8833    
  7.8419      9.0766      10.648      12.621      15.056      18.002      21.488      25.511      30.028      34.945    
  40.106      45.290      50.211      54.539      57.937      60.112      66.187      65.313      62.779      58.834    
  53.846      48.237      42.414      36.715      31.382      26.560      22.318      18.673      15.605      13.075    
  11.027      9.3981      8.1235      7.1394      6.3891      5.8258      5.4123      5.1199      4.9266      4.8170    
  4.7816      4.8170      4.9266      5.1199      5.4123      5.8258      6.3891      7.1394      8.1235      9.3981    
  11.027      13.075      15.605      18.673      22.318      26.560      31.382      36.715      42.414      48.237    
  53.846      58.834      62.779      65.313      77.342      75.929      72.085      66.720      60.549      53.736    
  46.735      40.000      33.839      28.405      23.733      19.788      16.507      13.819      11.652      9.9342    
  8.5962      7.5696      6.7924      6.2119      5.7869      5.4861      5.2867      5.1730      5.1361      5.1730    
  5.2867      5.4861      5.7869      6.2119      6.7924      7.5696      8.5962      9.9342      11.652      13.819    
  16.507      19.788      23.733      28.405      33.839      40.000      46.735      53.736      60.549      66.720    
  72.085      75.929      116.94      113.04      102.53      88.402      74.245      62.575      53.439      45.120    
  37.620      31.166      25.777      21.351      17.749      14.841      12.517      10.686      9.2664      8.1843    
  7.3710      6.7677      6.3279      6.0169      5.8104      5.6924      5.6540      5.6924      5.8104      6.0169    
  6.3279      6.7677      7.3710      8.1843      9.2664      10.686      12.517      14.841      17.749      21.351    
  25.777      31.166      37.620      45.120      53.439      62.575      74.245      88.402      102.53      113.04    
  217.53      208.70      184.42      150.70      115.36      85.440      64.704      52.139      42.829      34.920    
  28.483      23.362      19.319      16.128      13.615      11.653      10.141      8.9960      8.1425      7.5151    
  7.0613      6.7422      6.5308      6.4099      6.3705      6.4099      6.5308      6.7422      7.0613      7.5151    
  8.1425      8.9960      10.141      11.653      13.615      16.128      19.319      23.362      28.483      34.920    
  42.829      52.139      64.704      85.440      115.36      150.70      184.42      208.70      397.15      380.97    
  335.99      271.93      201.97      139.04      92.160      63.813      49.281      39.599      31.820      25.797    
  21.192      17.660      14.934      12.831      11.223      10.013      9.1183      8.4681      8.0030      7.6789    
  7.4655      7.3439      7.3044      7.3439      7.4655      7.6789      8.0030      8.4681      9.1183      10.013    
  11.223      12.831      14.934      17.660      21.192      25.797      31.820      39.599      49.281      63.813    
  92.160      139.04      201.97      271.93      335.99      380.97      650.27      624.92      553.97      451.39    
  336.39      228.63      143.29      87.394      58.277      44.905      35.635      28.569      23.316      19.402    
  16.451      14.208      12.508      11.238      10.307      9.6384      9.1671      8.8427      8.6313      8.5118    
  8.4731      8.5118      8.6313      8.8427      9.1671      9.6384      10.307      11.238      12.508      14.208    
  16.451      19.402      23.316      28.569      35.635      44.905      58.277      87.394      143.29      228.63    
  336.39      451.39      553.97      624.92      946.19      910.89      811.73      667.10      502.48      344.33    
  214.09      123.59      72.765      50.541      39.625      31.508      25.590      21.295      18.131      15.766    
  13.993      12.680      11.729      11.057      10.593      10.280      10.080      9.9690      9.9333      9.9690    
  10.080      10.280      10.593      11.057      11.729      12.680      13.993      15.766      18.131      21.295    
  25.590      31.508      39.625      50.541      72.765      123.59      214.09      344.33      502.48      667.10    
  811.73      910.89      1234.4      1189.8      1064.3      880.37      669.29      463.58      290.20      165.21    
  91.043      56.993      43.374      34.364      27.873      23.258      19.930      17.485      15.679      14.359    
  13.422      12.777      12.348      12.070      11.898      11.806      11.777      11.806      11.898      12.070    
  12.348      12.777      13.422      14.359      15.679      17.485      19.930      23.258      27.873      34.364    
  43.374      56.993      91.043      165.21      290.20      463.58      669.29      880.37      1064.3      1189.8    
  1456.7      1405.0      1259.5      1045.9      799.84      558.30      352.17      200.54      107.64      63.202    
  46.452      36.862      30.004      25.202      21.804      19.354      17.576      16.306      15.432      14.860    
  14.503      14.289      14.169      14.110      14.092      14.110      14.169      14.289      14.503      14.860    
  15.432      16.306      17.576      19.354      21.804      25.202      30.004      36.862      46.452      63.202    
  107.64      200.54      352.17      558.30      799.84      1045.9      1259.5      1405.0      1563.1      1508.0    
  1352.9      1125.2      862.62      604.20      382.67      218.44      116.58      67.000      48.517      38.769    
  31.843      27.055      23.723      21.368      19.702      18.554      17.807      17.362      17.125      17.016    
  16.977      16.968      16.968      16.968      16.977      17.016      17.125      17.362      17.807      18.554    
  19.702      21.368      23.723      27.055      31.843      38.769      48.517      67.000      116.58      218.44    
  382.67      604.20      862.62      1125.2      1352.9      1508.0      1528.7      1474.7      1322.5      1099.2    
  841.95      589.15      372.92      213.15      114.56      66.988      49.373      39.950      33.309      28.772    
  25.669      23.531      22.079      21.142      20.604      20.361      20.313      20.368      20.457      20.531    
  20.559      20.531      20.457      20.368      20.313      20.361      20.604      21.142      22.079      23.531    
  25.669      28.772      33.309      39.950      49.373      66.988      114.56      213.15      372.92      589.15    
  841.95      1099.2      1322.5      1474.7      1361.9      1313.1      1175.7      974.40      743.20      517.31    
  325.89      186.57      102.65      63.573      49.024      40.396      34.388      30.341      27.636      25.850    
  24.728      24.117      23.904      23.981      24.236      24.561      24.864      25.077      25.153      25.077    
  24.864      24.561      24.236      23.981      23.904      24.117      24.728      25.850      27.636      30.341    
  34.388      40.396      49.024      63.573      102.65      186.57      325.89      517.31      743.20      974.40    
  1175.7      1313.1      1101.2      1060.6      946.71      780.43      590.71      407.47      255.08      147.46    
  85.640      58.621      47.648      40.215      35.127      31.774      29.624      28.328      27.680      27.552    
  27.840      28.430      29.189      29.974      30.650      31.107      31.268      31.107      30.650      29.974    
  29.189      28.430      27.840      27.552      27.680      28.328      29.624      31.774      35.127      40.215    
  47.648      58.621      85.640      147.46      255.08      407.47      590.71      780.43      946.71      1060.6    
  801.68      770.96      684.90      560.15      419.56      286.54      179.48      107.68      69.571      53.911    
  45.547      39.581      35.602      33.091      31.636      30.986      30.999      31.588      32.661      34.087    
  35.687      37.251      38.561      39.432      39.738      39.432      38.561      37.251      35.687      34.087    
  32.661      31.588      30.999      30.986      31.636      33.091      35.602      39.581      45.547      53.911    
  69.571      107.68      179.48      286.54      419.56      560.15      684.90      770.96      519.02      498.11    
  439.88      356.52      264.60      180.60      116.62      77.177      58.332      49.443      43.073      38.679    
  35.888      34.314      33.689      33.877      34.822      36.485      38.777      41.522      44.447      47.216    
  49.487      50.993      51.534      50.993      49.487      47.216      44.447      41.522      38.777      36.485    
  34.822      33.877      33.689      34.314      35.888      38.679      43.073      49.443      58.332      77.177    
  116.62      180.60      264.60      356.52      439.88      498.11      295.15      282.80      248.72      201.00    
  150.29      106.61      76.199      59.507      51.079      44.947      40.528      37.651      36.039      35.467    
  35.824      37.106      39.356      42.577      46.644      51.260      56.432      62.885      69.798      75.213    
  77.268      75.213      69.798      62.885      56.432      51.260      46.644      42.577      39.356      37.106    
  35.824      35.467      36.039      37.651      40.528      44.947      51.079      59.507      76.199      106.61    
  150.29      201.00      248.72      282.80      149.73      143.79      127.68      105.97      84.308      67.331    
  56.672      50.076      44.781      40.785      38.094      36.574      36.087      36.574      38.094      40.785    
  44.781      50.076      56.672      67.331      84.308      105.97      127.68      143.79      149.73      143.79    
  127.68      105.97      84.308      67.331      56.672      50.076      44.781      40.785      38.094      36.574    
  36.087      36.574      38.094      40.785      44.781      50.076      56.672      67.331      84.308      105.97    
  127.68      143.79      77.268      75.213      69.798      62.885      56.432      51.260      46.644      42.577    
  39.356      37.106      35.824      35.467      36.039      37.651      40.528      44.947      51.079      59.507    
  76.199      106.61      150.29      201.00      248.72      282.80      295.15      282.80      248.72      201.00    
  150.29      106.61      76.199      59.507      51.079      44.947      40.528      37.651      36.039      35.467    
  35.824      37.106      39.356      42.577      46.644      51.260      56.432      62.885      69.798      75.213    
  51.534      50.993      49.487      47.216      44.447      41.522      38.777      36.485      34.822      33.877    
  33.689      34.314      35.888      38.679      43.073      49.443      58.332      77.177      116.62      180.60    
  264.60      356.52      439.88      498.11      519.02      498.11      439.88      356.52      264.60      180.60    
  116.62      77.177      58.332      49.443      43.073      38.679      35.888      34.314      33.689      33.877    
  34.822      36.485      38.777      41.522      44.447      47.216      49.487      50.993      39.738      39.432    
  38.561      37.251      35.687      34.087      32.661      31.588      30.999      30.986      31.636      33.091    
  35.602      39.581      45.547      53.911      69.571      107.68      179.48      286.54      419.56      560.15    
  684.90      770.96      801.68      770.96      684.90      560.15      419.56      286.54      179.48      107.68    
  69.571      53.911      45.547      39.581      35.602      33.091      31.636      30.986      30.999      31.588    
  32.661      34.087      35.687      37.251      38.561      39.432      31.268      31.107      30.650      29.974    
  29.189      28.430      27.840      27.552      27.680      28.328      29.624      31.774      35.127      40.215    
  47.648      58.621      85.640      147.46      255.08      407.47      590.71      780.43      946.71      1060.6    
  1101.2      1060.6      946.71      780.43      590.71      407.47      255.08      147.46      85.640      58.621    
  47.648      40.215      35.127      31.774      29.624      28.328      27.680      27.552      27.840      28.430    
  29.189      29.974      30.650      31.107      25.153      25.077      24.864      24.561      24.236      23.981    
  23.904      24.117      24.728      25.850      27.636      30.341      34.388      40.396      49.024      63.573    
  102.65      186.57      325.89      517.31      743.20      974.40      1175.7      1313.1      1361.9      1313.1    
  1175.7      974.40      743.20      517.31      325.89      186.57      102.65      63.573      49.024      40.396    
  34.388      30.341      27.636      25.850      24.728      24.117      23.904      23.981      24.236      24.561    
  24.864      25.077      20.559      20.531      20.457      20.368      20.313      20.361      20.604      21.142    
  22.079      23.531      25.669      28.772      33.309      39.950      49.373      66.988      114.56      213.15    
  372.92      589.15      841.95      1099.2      1322.5      1474.7      1528.7      1474.7      1322.5      1099.2    
  841.95      589.15      372.92      213.15      114.56      66.988      49.373      39.950      33.309      28.772    
  25.669      23.531      22.079      21.142      20.604      20.361      20.313      20.368      20.457      20.531    
  16.968      16.968      16.977      17.016      17.125      17.362      17.807      18.554      19.702      21.368    
  23.723      27.055      31.843      38.769      48.517      67.000      116.58      218.44      382.67      604.20    
  862.62      1125.2      1352.9      1508.0      1563.1      1508.0      1352.9      1125.2      862.62      604.20    
  382.67      218.44      116.58      67.000      48.517      38.769      31.843      27.055      23.723      21.368    
  19.702      18.554      17.807      17.362      17.125      17.016      16.977      16.968      14.092      14.110    
  14.169      14.289      14.503      14.860      15.432      16.306      17.576      19.354      21.804      25.202    
  30.004      36.862      46.452      63.202      107.64      200.54      352.17      558.30      799.84      1045.9    
  1259.5      1405.0      1456.7      1405.0      1259.5      1045.9      799.84      558.30      352.17      200.54    
  107.64      63.202      46.452      36.862      30.004      25.202      21.804      19.354      17.576      16.306    
  15.432      14.860      14.503      14.289      14.169      14.110      11.777      11.806      11.898      12.070    
  12.348      12.777      13.422      14.359      15.679      17.485      19.930      23.258      27.873      34.364    
  43.374      56.993      91.043      165.21      290.20      463.58      669.29      880.37      1064.3      1189.8    
  1234.4      1189.8      1064.3      880.37      669.29      463.58      290.20      165.21      91.043      56.993    
  43.374      34.364      27.873      23.258      19.930      17.485      15.679      14.359      13.422      12.777    
  12.348      12.070      11.898      11.806      9.9333      9.9690      10.080      10.280      10.593      11.057    
  11.729      12.680      13.993      15.766      18.131      21.295      25.590      31.508      39.625      50.541    
  72.765      123.59      214.09      344.33      502.48      667.10      811.73      910.89      946.19      910.89    
  811.73      667.10      502.48      344.33      214.09      123.59      72.765      50.541      39.625      31.508    
  25.590      21.295      18.131      15.766      13.993      12.680      11.729      11.057      10.593      10.280    
  10.080      9.9690      8.4731      8.5118      8.6313      8.8427      9.1671      9.6384      10.307      11.238    
  12.508      14.208      16.451      19.402      23.316      28.569      35.635      44.905      58.277      87.394    
  143.29      228.63      336.39      451.39      553.97      624.92      650.27      624.92      553.97      451.39    
  336.39      228.63      143.29      87.394      58.277      44.905      35.635      28.569      23.316      19.402    
  16.451      14.208      12.508      11.238      10.307      9.6384      9.1671      8.8427      8.6313      8.5118    
  7.3044      7.3439      7.4655      7.6789      8.0030      8.4681      9.1183      10.013      11.223      12.831    
  14.934      17.660      21.192      25.797      31.820      39.599      49.281      63.813      92.160      139.04    
  201.97      271.93      335.99      380.97      397.15      380.97      335.99      271.93      201.97      139.04    
  92.160      63.813      49.281      39.599      31.820      25.797      21.192      17.660      14.934      12.831    
  11.223      10.013      9.1183      8.4681      8.0030      7.6789      7.4655      7.3439      6.3705      6.4099    
  6.5308      6.7422      7.0613      7.5151      8.1425      8.9960      10.141      11.653      13.615      16.128    
  19.319      23.362      28.483      34.920      42.829      52.139      64.704      85.440      115.36      150.70    
  184.42      208.70      217.53      208.70      184.42      150.70      115.36      85.440      64.704      52.139    
  42.829      34.920      28.483      23.362      19.319      16.128      13.615      11.653      10.141      8.9960    
  8.1425      7.5151      7.0613      6.7422      6.5308      6.4099      5.6540      5.6924      5.8104      6.0169    
  6.3279      6.7677      7.3710      8.1843      9.2664      10.686      12.517      14.841      17.749      21.351    
  25.777      31.166      37.620      45.120      53.439      62.575      74.245      88.402      102.53      113.04    
  116.94      113.04      102.53      88.402      74.245      62.575      53.439      45.120      37.620      31.166    
  25.777      21.351      17.749      14.841      12.517      10.686      9.2664      8.1843      7.3710      6.7677    
  6.3279      6.0169      5.8104      5.6924      5.1361      5.1730      5.2867      5.4861      5.7869      6.2119    
  6.7924      7.5696      8.5962      9.9342      11.652      13.819      16.507      19.788      23.733      28.405    
  33.839      40.000      46.735      53.736      60.549      66.720      72.085      75.929      77.342      75.929    
  72.085      66.720      60.549      53.736      46.735      40.000      33.839      28.405      23.733      19.788    
  16.507      13.819      11.652      9.9342      8.5962      7.5696      6.7924      6.2119      5.7869      5.4861    
  5.2867      5.1730      4.7816      4.8170      4.9266      5.1199      5.4123      5.8258      6.3891      7.1394    
  8.1235      9.3981      11.027      13.075      15.605      18.673      22.318      26.560      31.382      36.715    
  42.414      48.237      53.846      58.834      62.779      65.313      66.187      65.313      62.779      58.834    
  53.846      48.237      42.414      36.715      31.382      26.560      22.318      18.673      15.605      13.075    
  11.027      9.3981      8.1235      7.1394      6.3891      5.8258      5.4123      5.1199      4.9266      4.8170    
  4.5656      4.6003      4.7078      4.8979      5.1864      5.5942      6.1485      6.8833      7.8419      9.0766    
  10.648      12.621      15.056      18.002      21.488      25.511      30.028      34.945      40.106      45.290    
  50.211      54.539      57.937      60.112      60.860      60.112      57.937      54.539      50.211      45.290    
  40.106      34.945      30.028      25.511      21.488      18.002      15.056      12.621      10.648      9.0766    
  7.8419      6.8833      6.1485      5.5942      5.1864      4.8979      4.7078      4.6003      4.4911      4.5256    
  4.6326      4.8220      5.1096      5.5162      6.0679      6.7980      7.7482      8.9694      10.521      12.468    
  14.871      17.778      21.215      25.172      29.599      34.392      39.393      44.382      49.088      53.205    
  56.424      58.479      59.185      58.479      56.424      53.205      49.088      44.382      39.393      34.392    
  29.599      25.172      21.215      17.778      14.871      12.468      10.521      8.9694      7.7482      6.7980    
  6.0679      5.5162      5.1096      4.8220      4.6326      4.5256      4.5656      4.6003      4.7078      4.8979    
  5.1864      5.5942      6.1485      6.8833      7.8419      9.0766      10.648      12.621      15.056      18.002    
  21.488      25.511      30.028      34.945      40.106      45.290      50.211      54.539      57.937      60.112    
  60.860      60.112      57.937      54.539      50.211      45.290      40.106      34.945      30.028      25.511    
  21.488      18.002      15.056      12.621      10.648      9.0766      7.8419      6.8833      6.1485      5.5942    
  5.1864      4.8979      4.7078      4.6003      4.7816      4.8170      4.9266      5.1199      5.4123      5.8258    
  6.3891      7.1394      8.1235      9.3981      11.027      13.075      15.605      18.673      22.318      26.560    
  31.382      36.715      42.414      48.237      53.846      58.834      62.779      65.313      66.187      65.313    
  62.779      58.834      53.846      48.237      42.414      36.715      31.382      26.560      22.318      18.673    
  15.605      13.075      11.027      9.3981      8.1235      7.1394      6.3891      5.8258      5.4123      5.1199    
  4.9266      4.8170      5.1361      5.1730      5.2867      5.4861      5.7869      6.2119      6.7924      7.5696    
  8.5962      9.9342      11.652      13.819      16.507      19.788      23.733      28.405      33.839      40.000    
  46.735      53.736      60.549      66.720      72.085      75.929      77.342      75.929      72.085      66.720    
  60.549      53.736      46.735      40.000      33.839      28.405      23.733      19.788      16.507      13.819    
  11.652      9.9342      8.5962      7.5696      6.7924      6.2119      5.7869      5.4861      5.2867      5.1730    
  5.6540      5.6924      5.8104      6.0169      6.3279      6.7677      7.3710      8.1843      9.2664      10.686    
  12.517      14.841      17.749      21.351      25.777      31.166      37.620      45.120      53.439      62.575    
  74.245      88.402      102.53      113.04      116.94      113.04      102.53      88.402      74.245      62.575    
  53.439      45.120      37.620      31.166      25.777      21.351      17.749      14.841      12.517      10.686    
  9.2664      8.1843      7.3710      6.7677      6.3279      6.0169      5.8104      5.6924      6.3705      6.4099    
  6.5308      6.7422      7.0613      7.5151      8.1425      8.9960      10.141      11.653      13.615      16.128    
  19.319      23.362      28.483      34.920      42.829      52.139      64.704      85.440      115.36      150.70    
  184.42      208.70      217.53      208.70      184.42      150.70      115.36      85.440      64.704      52.139    
  42.829      34.920      28.483      23.362      19.319      16.128      13.615      11.653      10.141      8.9960    
  8.1425      7.5151      7.0613      6.7422      6.5308      6.4099      7.3044      7.3439      7.4655      7.6789    
  8.0030      8.4681      9.1183      10.013      11.223      12.831      14.934      17.660      21.192      25.797    
  31.820      39.599      49.281      63.813      92.160      139.04      201.97      271.93      335.99      380.97    
  397.15      380.97      335.99      271.93      201.97      139.04      92.160      63.813      49.281      39.599    
  31.820      25.797      21.192      17.660      14.934      12.831      11.223      10.013      9.1183      8.4681    
  8.0030      7.6789      7.4655      7.3439      8.4731      8.5118      8.6313      8.8427      9.1671      9.6384    
  10.307      11.238      12.508      14.208      16.451      19.402      23.316      28.569      35.635      44.905    
  58.277      87.394      143.29      228.63      336.39      451.39      553.97      624.92      650.27      624.92    
  553.97      451.39      336.39      228.63      143.29      87.394      58.277      44.905      35.635      28.569    
  23.316      19.402      16.451      14.208      12.508      11.238      10.307      9.6384      9.1671      8.8427    
  8.6313      8.5118      9.9333      9.9690      10.080      10.280      10.593      11.057      11.729      12.680    
  13.993      15.766      18.131      21.295      25.590      31.508      39.625      50.541      72.765      123.59    
  214.09      344.33      502.48      667.10      811.73      910.89      946.19      910.89      811.73      667.10    
  502.48      344.33      214.09      123.59      72.765      50.541      39.625      31.508      25.590      21.295    
  18.131      15.766      13.993      12.680      11.729      11.057      10.593      10.280      10.080      9.9690    
  11.777      11.806      11.898      12.070      12.348      12.777      13.422      14.359      15.679      17.485    
  19.930      23.258      27.873      34.364      43.374      56.993      91.043      165.21      290.20      463.58    
  669.29      880.37      1064.3      1189.8      1234.4      1189.8      1064.3      880.37      669.29      463.58    
  290.20      165.21      91.043      56.993      43.374      34.364      27.873      23.258      19.930      17.485    
  15.679      14.359      13.422      12.777      12.348      12.070      11.898      11.806      14.092      14.110    
  14.169      14.289      14.503      14.860      15.432      16.306      17.576      19.354      21.804      25.202    
  30.004      36.862      46.452      63.202      107.64      200.54      352.17      558.30      799.84      1045.9    
  1259.5      1405.0      1456.7      1405.0      1259.5      1045.9      799.84      558.30      352.17      200.54    
  107.64      63.202      46.452      36.862      30.004      25.202      21.804      19.354      17.576      16.306    
  15.432      14.860      14.503      14.289      14.169      14.110      16.968      16.968      16.977      17.016    
  17.125      17.362      17.807      18.554      19.702      21.368      23.723      27.055      31.843      38.769    
  48.517      67.000      116.58      218.44      382.67      604.20      862.62      1125.2      1352.9      1508.0    
  1563.1      1508.0      1352.9      1125.2      862.62      604.20      382.67      218.44      116.58      67.000    
  48.517      38.769      31.843      27.055      23.723      21.368      19.702      18.554      17.807      17.362    
  17.125      17.016      16.977      16.968      20.559      20.531      20.457      20.368      20.313      20.361    
  20.604      21.142      22.079      23.531      25.669      28.772      33.309      39.950      49.373      66.988    
  114.56      213.15      372.92      589.15      841.95      1099.2      1322.5      1474.7      1528.7      1474.7    
  1322.5      1099.2      841.95      589.15      372.92      213.15      114.56      66.988      49.373      39.950    
  33.309      28.772      25.669      23.531      22.079      21.142      20.604      20.361      20.313      20.368    
  20.457      20.531      25.153      25.077      24.864      24.561      24.236      23.981      23.904      24.117    
  24.728      25.850      27.636      30.341      34.388      40.396      49.024      63.573      102.65      186.57    
  325.89      517.31      743.20      974.40      1175.7      1313.1      1361.9      1313.1      1175.7      974.40    
  743.20      517.31      325.89      186.57      102.65      63.573      49.024      40.396      34.388      30.341    
  27.636      25.850      24.728      24.117      23.904      23.981      24.236      24.561      24.864      25.077    
  31.268      31.107      30.650      29.974      29.189      28.430      27.840      27.552      27.680      28.328    
  29.624      31.774      35.127      40.215      47.648      58.621      85.640      147.46      255.08      407.47    
  590.71      780.43      946.71      1060.6      1101.2      1060.6      946.71      780.43      590.71      407.47    
  255.08      147.46      85.640      58.621      47.648      40.215      35.127      31.774      29.624      28.328    