Ga                                      
   1.00000000000000     
     4.566890    0.000000    0.000000
     0.000000    7.753300    0.000000
     0.000000    0.000000    4.599780
   Ga
     8
Direct
  0.000000  0.156420  0.081200
  0.000000  0.843580  0.918800
  0.000000  0.343580  0.581200
  0.000000  0.656420  0.418800
  0.500000  0.656420  0.081200
  0.500000  0.343580  0.918800
  0.500000  0.843580  0.581200
  0.500000  0.156420  0.418800
 
   48   72   48
 0.59185437304E+02 0.58478878604E+02 0.56424364393E+02 0.53204930494E+02 0.49088153658E+02
 0.44382168948E+02 0.39393018502E+02 0.34392340016E+02 0.29598871025E+02 0.25172214407E+02
 0.21214804007E+02 0.17778136081E+02 0.14870884439E+02 0.12468093647E+02 0.10521343202E+02
 0.89694184494E+01 0.77481872505E+01 0.67980353229E+01 0.60678935458E+01 0.55161506590E+01
 0.51096456750E+01 0.48220463542E+01 0.46325687807E+01 0.45255718788E+01 0.44910634625E+01
 0.45255718788E+01 0.46325687807E+01 0.48220463542E+01 0.51096456750E+01 0.55161506590E+01
 0.60678935458E+01 0.67980353229E+01 0.77481872505E+01 0.89694184494E+01 0.10521343202E+02
 0.12468093647E+02 0.14870884439E+02 0.17778136081E+02 0.21214804007E+02 0.25172214407E+02
 0.29598871025E+02 0.34392340016E+02 0.39393018502E+02 0.44382168948E+02 0.49088153658E+02
 0.53204930494E+02 0.56424364393E+02 0.58478878604E+02 0.60860327773E+02 0.60111620689E+02
 0.57937295095E+02 0.54539025778E+02 0.50211127104E+02 0.45290347401E+02 0.40106412830E+02
 0.34944981462E+02 0.30028249260E+02 0.25511301604E+02 0.21488237220E+02 0.18002176935E+02
 0.15055714543E+02 0.12620784710E+02 0.10648136075E+02 0.90766240567E+01 0.78418865144E+01
 0.68833370882E+01 0.61484615589E+01 0.55942252202E+01 0.51863799566E+01 0.48979197193E+01
 0.47077653535E+01 0.46002716025E+01 0.45655737348E+01 0.46002716025E+01 0.47077653535E+01
 0.48979197193E+01 0.51863799566E+01 0.55942252202E+01 0.61484615589E+01 0.68833370882E+01
 0.78418865144E+01 0.90766240567E+01 0.10648136075E+02 0.12620784710E+02 0.15055714543E+02
 0.18002176935E+02 0.21488237220E+02 0.25511301604E+02 0.30028249260E+02 0.34944981462E+02
 0.40106412830E+02 0.45290347401E+02 0.50211127104E+02 0.54539025778E+02 0.57937295095E+02
 0.60111620689E+02 0.66186654943E+02 0.65312585910E+02 0.62778521219E+02 0.58833859088E+02
 0.53846069707E+02 0.48236991895E+02 0.42413981983E+02 0.36715070688E+02 0.31381670914E+02
 0.26559617873E+02 0.22318061260E+02 0.18672773373E+02 0.15605122769E+02 0.13074573960E+02
 0.11026536666E+02 0.93981314252E+01 0.81235470008E+01 0.71393679563E+01 0.63891117218E+01
 0.58258268275E+01 0.54123263155E+01 0.51198634734E+01 0.49266420303E+01 0.48170472915E+01
 0.47815814036E+01 0.48170472915E+01 0.49266420303E+01 0.51198634734E+01 0.54123263155E+01
 0.58258268275E+01 0.63891117218E+01 0.71393679563E+01 0.81235470008E+01 0.93981314252E+01
 0.11026536666E+02 0.13074573960E+02 0.15605122769E+02 0.18672773373E+02 0.22318061260E+02
 0.26559617873E+02 0.31381670914E+02 0.36715070688E+02 0.42413981983E+02 0.48236991895E+02
 0.53846069707E+02 0.58833859088E+02 0.62778521219E+02 0.65312585910E+02 0.77342180719E+02
 0.75929302902E+02 0.72085483116E+02 0.66720344593E+02 0.60548986930E+02 0.53736494494E+02
 0.46734712260E+02 0.39999584256E+02 0.33838781724E+02 0.28405272796E+02 0.23733244015E+02
 0.19788290931E+02 0.16507174630E+02 0.13818840090E+02 0.11651575747E+02 0.99341737010E+01
 0.85961861016E+01 0.75696110416E+01 0.67923637395E+01 0.62119169945E+01 0.57868807530E+01
 0.54860663397E+01 0.52866611845E+01 0.51730290492E+01 0.51361283781E+01 0.51730290492E+01
 0.52866611845E+01 0.54860663397E+01 0.57868807530E+01 0.62119169945E+01 0.67923637395E+01
 0.75696110416E+01 0.85961861016E+01 0.99341737010E+01 0.11651575747E+02 0.13818840090E+02
 0.16507174630E+02 0.19788290931E+02 0.23733244015E+02 0.28405272796E+02 0.33838781724E+02
 0.39999584256E+02 0.46734712260E+02 0.53736494494E+02 0.60548986930E+02 0.66720344593E+02
 0.72085483116E+02 0.75929302902E+02 0.11693571146E+03 0.11304371461E+03 0.10252940444E+03
 0.88401984005E+02 0.74244851120E+02 0.62574731676E+02 0.53438582532E+02 0.45119860428E+02
 0.37619819082E+02 0.31166111286E+02 0.25777138931E+02 0.21351172577E+02 0.17749252498E+02
 0.14840969496E+02 0.12517008705E+02 0.10685741337E+02 0.92663586841E+01 0.81842640385E+01
 0.73710245880E+01 0.67677392440E+01 0.63278538000E+01 0.60168986841E+01 0.58104337490E+01
 0.56923898672E+01 0.56539528371E+01 0.56923898672E+01 0.58104337490E+01 0.60168986841E+01
 0.63278538000E+01 0.67677392440E+01 0.73710245880E+01 0.81842640385E+01 0.92663586841E+01
 0.10685741337E+02 0.12517008705E+02 0.14840969496E+02 0.17749252498E+02 0.21351172577E+02
 0.25777138931E+02 0.31166111286E+02 0.37619819082E+02 0.45119860428E+02 0.53438582532E+02
 0.62574731676E+02 0.74244851120E+02 0.88401984005E+02 0.10252940444E+03 0.11304371461E+03
 0.21753468232E+03 0.20869620007E+03 0.18441817353E+03 0.15069954473E+03 0.11536158669E+03
 0.85440483713E+02 0.64704194253E+02 0.52138701634E+02 0.42829001128E+02 0.34919793849E+02
 0.28482552509E+02 0.23362263346E+02 0.19318702274E+02 0.16127679233E+02 0.13615254587E+02
 0.11652847185E+02 0.10141096634E+02 0.89960171971E+01 0.81425019131E+01 0.75151153853E+01
 0.70613064214E+01 0.67421958081E+01 0.65307893890E+01 0.64099240145E+01 0.63705430795E+01
 0.64099240145E+01 0.65307893890E+01 0.67421958081E+01 0.70613064214E+01 0.75151153853E+01
 0.81425019131E+01 0.89960171971E+01 0.10141096634E+02 0.11652847185E+02 0.13615254587E+02
 0.16127679233E+02 0.19318702274E+02 0.23362263346E+02 0.28482552509E+02 0.34919793849E+02
 0.42829001128E+02 0.52138701634E+02 0.64704194253E+02 0.85440483713E+02 0.11536158669E+03
 0.15069954473E+03 0.18441817353E+03 0.20869620007E+03 0.39714980618E+03 0.38096559011E+03
 0.33598502286E+03 0.27193104112E+03 0.20197295494E+03 0.13904288584E+03 0.92160458470E+02
 0.63812785806E+02 0.49280642033E+02 0.39598750834E+02 0.31819574681E+02 0.25796966460E+02
 0.21192021007E+02 0.17659754572E+02 0.14934007283E+02 0.12830885869E+02 0.11222775878E+02
 0.10012621806E+02 0.91182733183E+01 0.84680646234E+01 0.80030173749E+01 0.76789262515E+01
 0.74654917690E+01 0.73439062401E+01 0.73043626102E+01 0.73439062401E+01 0.74654917690E+01
 0.76789262515E+01 0.80030173749E+01 0.84680646234E+01 0.91182733183E+01 0.10012621806E+02
 0.11222775878E+02 0.12830885869E+02 0.14934007283E+02 0.17659754572E+02 0.21192021007E+02
 0.25796966460E+02 0.31819574681E+02 0.39598750834E+02 0.49280642033E+02 0.63812785806E+02
 0.92160458470E+02 0.13904288584E+03 0.20197295494E+03 0.27193104112E+03 0.33598502286E+03
 0.38096559011E+03 0.65026697007E+03 0.62491818547E+03 0.55397089832E+03 0.45138698740E+03
 0.33639226964E+03 0.22862978382E+03 0.14328938780E+03 0.87394147577E+02 0.58277213600E+02
 0.44904981288E+02 0.35634823601E+02 0.28569497488E+02 0.23315565666E+02 0.19401916120E+02
 0.16450952999E+02 0.14207914410E+02 0.12508059337E+02 0.11237579717E+02 0.10306816385E+02
 0.96384275627E+01 0.91670658683E+01 0.88427137600E+01 0.86312567464E+01 0.85117500554E+01
 0.84730719399E+01 0.85117500554E+01 0.86312567464E+01 0.88427137600E+01 0.91670658683E+01
 0.96384275627E+01 0.10306816385E+02 0.11237579717E+02 0.12508059337E+02 0.14207914410E+02
 0.16450952999E+02 0.19401916120E+02 0.23315565666E+02 0.28569497488E+02 0.35634823601E+02
 0.44904981288E+02 0.58277213600E+02 0.87394147577E+02 0.14328938780E+03 0.22862978382E+03
 0.33639226964E+03 0.45138698740E+03 0.55397089832E+03 0.62491818547E+03 0.94618718805E+03
 0.91089198400E+03 0.81172626445E+03 0.66710096914E+03 0.50248406727E+03 0.34432656527E+03
 0.21408512954E+03 0.12358725930E+03 0.72765411712E+02 0.50541159041E+02 0.39624534638E+02
 0.31507954743E+02 0.25590057234E+02 0.21294889884E+02 0.18130932421E+02 0.15765765075E+02
 0.13992886878E+02 0.12679642651E+02 0.11728536735E+02 0.11056880924E+02 0.10592932213E+02
 0.10280288021E+02 0.10080253797E+02 0.99689734635E+01 0.99333123426E+01 0.99689734635E+01
 0.10080253797E+02 0.10280288021E+02 0.10592932213E+02 0.11056880924E+02 0.11728536735E+02
 0.12679642651E+02 0.13992886878E+02 0.15765765075E+02 0.18130932421E+02 0.21294889884E+02
 0.25590057234E+02 0.31507954743E+02 0.39624534638E+02 0.50541159041E+02 0.72765411712E+02
 0.12358725930E+03 0.21408512954E+03 0.34432656527E+03 0.50248406727E+03 0.66710096914E+03
 0.81172626445E+03 0.91089198400E+03 0.12344465330E+04 0.11898398843E+04 0.10642825896E+04
 0.88036664375E+03 0.66929036951E+03 0.46358492614E+03 0.29019943467E+03 0.16521023875E+03
 0.91042901087E+02 0.56992861062E+02 0.43373893842E+02 0.34364097540E+02 0.27872919695E+02
 0.23257656345E+02 0.19929730543E+02 0.17485419050E+02 0.15678867030E+02 0.14359356677E+02
 0.13421616057E+02 0.12777380889E+02 0.12347981444E+02 0.12069731906E+02 0.11898291602E+02
 0.11805956789E+02 0.11776958372E+02 0.11805956789E+02 0.11898291602E+02 0.12069731906E+02
 0.12347981444E+02 0.12777380889E+02 0.13421616057E+02 0.14359356677E+02 0.15678867030E+02
 0.17485419050E+02 0.19929730543E+02 0.23257656345E+02 0.27872919695E+02 0.34364097540E+02
 0.43373893842E+02 0.56992861062E+02 0.91042901087E+02 0.16521023875E+03 0.29019943467E+03
 0.46358492614E+03 0.66929036951E+03 0.88036664375E+03 0.10642825896E+04 0.11898398843E+04
 0.14566741270E+04 0.14050044730E+04 0.12594674942E+04 0.10458968576E+04 0.79983865739E+03
 0.55830340559E+03 0.35217391530E+03 0.20053625401E+03 0.10764066908E+03 0.63202273154E+02
 0.46451608315E+02 0.36862460945E+02 0.30003635340E+02 0.25202287791E+02 0.21804194138E+02
 0.19353867072E+02 0.17576131285E+02 0.16306283551E+02 0.15432151368E+02 0.14859600129E+02
 0.14502557667E+02 0.14289419939E+02 0.14169318444E+02 0.14109874700E+02 0.14092227042E+02
 0.14109874700E+02 0.14169318444E+02 0.14289419939E+02 0.14502557667E+02 0.14859600129E+02
 0.15432151368E+02 0.16306283551E+02 0.17576131285E+02 0.19353867072E+02 0.21804194138E+02
 0.25202287791E+02 0.30003635340E+02 0.36862460945E+02 0.46451608315E+02 0.63202273154E+02
 0.10764066908E+03 0.20053625401E+03 0.35217391530E+03 0.55830340559E+03 0.79983865739E+03
 0.10458968576E+04 0.12594674942E+04 0.14050044730E+04 0.15630966038E+04 0.15080364498E+04
 0.13529353807E+04 0.11252402949E+04 0.86261906981E+03 0.60420306596E+03 0.38267122060E+03
 0.21844416033E+03 0.11657895113E+03 0.67000079333E+02 0.48517280643E+02 0.38769025385E+02
 0.31843123567E+02 0.27054978190E+02 0.23722674624E+02 0.21367852049E+02 0.19702200865E+02
 0.18554276564E+02 0.17807372255E+02 0.17361989176E+02 0.17124764275E+02 0.17015800009E+02
 0.16976512060E+02 0.16968339016E+02 0.16968279590E+02 0.16968339016E+02 0.16976512060E+02
 0.17015800009E+02 0.17124764275E+02 0.17361989176E+02 0.17807372255E+02 0.18554276564E+02
 0.19702200865E+02 0.21367852049E+02 0.23722674624E+02 0.27054978190E+02 0.31843123567E+02
 0.38769025385E+02 0.48517280643E+02 0.67000079333E+02 0.11657895113E+03 0.21844416033E+03
 0.38267122060E+03 0.60420306596E+03 0.86261906981E+03 0.11252402949E+04 0.13529353807E+04
 0.15080364498E+04 0.15287114373E+04 0.14746778465E+04 0.13225061409E+04 0.10992323547E+04
 0.84194932083E+03 0.58915401084E+03 0.37291668156E+03 0.21314742292E+03 0.11456437862E+03
 0.66987665378E+02 0.49372642804E+02 0.39949642229E+02 0.33308681530E+02 0.28771808035E+02
 0.25668687773E+02 0.23531410680E+02 0.22078541950E+02 0.21141830084E+02 0.20604034735E+02
 0.20361373213E+02 0.20312770324E+02 0.20367990153E+02 0.20456968282E+02 0.20530657383E+02
 0.20558753845E+02 0.20530657383E+02 0.20456968283E+02 0.20367990153E+02 0.20312770324E+02
 0.20361373213E+02 0.20604034735E+02 0.21141830084E+02 0.22078541950E+02 0.23531410680E+02
 0.25668687773E+02 0.28771808035E+02 0.33308681530E+02 0.39949642229E+02 0.49372642804E+02
 0.66987665378E+02 0.11456437862E+03 0.21314742292E+03 0.37291668156E+03 0.58915401084E+03
 0.84194932083E+03 0.10992323547E+04 0.13225061409E+04 0.14746778465E+04 0.13619193868E+04
 0.13130948368E+04 0.11756847019E+04 0.97439955219E+03 0.74319586669E+03 0.51730564284E+03
 0.32588517068E+03 0.18656711580E+03 0.10264806187E+03 0.63573111539E+02 0.49024452269E+02
 0.40396405511E+02 0.34387963043E+02 0.30341155190E+02 0.27636427971E+02 0.25849717463E+02
 0.24727643311E+02 0.24116602833E+02 0.23903570332E+02 0.23980645348E+02 0.24235574965E+02
 0.24560690365E+02 0.24864454945E+02 0.25076988115E+02 0.25153138214E+02 0.25076988115E+02
 0.24864454945E+02 0.24560690365E+02 0.24235574965E+02 0.23980645348E+02 0.23903570332E+02
 0.24116602833E+02 0.24727643311E+02 0.25849717463E+02 0.27636427971E+02 0.30341155190E+02
 0.34387963043E+02 0.40396405511E+02 0.49024452269E+02 0.63573111539E+02 0.10264806187E+03
 0.18656711580E+03 0.32588517068E+03 0.51730564284E+03 0.74319586669E+03 0.97439955219E+03
 0.11756847019E+04 0.13130948368E+04 0.11011626978E+04 0.10606250799E+04 0.94670818111E+03
 0.78042808975E+03 0.59070639289E+03 0.40746576054E+03 0.25507948831E+03 0.14745549931E+03
 0.85640100919E+02 0.58620733800E+02 0.47647779690E+02 0.40215253119E+02 0.35127180568E+02
 0.31773967066E+02 0.29624496581E+02 0.28328168987E+02 0.27679548165E+02 0.27551504556E+02
 0.27839864023E+02 0.28430122266E+02 0.29188880977E+02 0.29973883033E+02 0.30650424941E+02
 0.31106694899E+02 0.31267659572E+02 0.31106694899E+02 0.30650424941E+02 0.29973883033E+02
 0.29188880977E+02 0.28430122266E+02 0.27839864023E+02 0.27551504556E+02 0.27679548165E+02
 0.28328168987E+02 0.29624496581E+02 0.31773967066E+02 0.35127180568E+02 0.40215253119E+02
 0.47647779690E+02 0.58620733800E+02 0.85640100919E+02 0.14745549931E+03 0.25507948831E+03
 0.40746576054E+03 0.59070639289E+03 0.78042808975E+03 0.94670818111E+03 0.10606250799E+04
 0.80167845043E+03 0.77095993741E+03 0.68489975414E+03 0.56014713487E+03 0.41956321207E+03
 0.28654048240E+03 0.17948237145E+03 0.10768368076E+03 0.69570893259E+02 0.53911131494E+02
 0.45546613929E+02 0.39581333708E+02 0.35602167256E+02 0.33090702572E+02 0.31636341170E+02
 0.30985526494E+02 0.30998920420E+02 0.31588125892E+02 0.32660986711E+02 0.34086797284E+02
 0.35687250692E+02 0.37250772719E+02 0.38561371931E+02 0.39432459708E+02 0.39737706881E+02
 0.39432459708E+02 0.38561371931E+02 0.37250772719E+02 0.35687250692E+02 0.34086797284E+02
 0.32660986711E+02 0.31588125892E+02 0.30998920420E+02 0.30985526494E+02 0.31636341170E+02
 0.33090702572E+02 0.35602167256E+02 0.39581333708E+02 0.45546613929E+02 0.53911131494E+02
 0.69570893259E+02 0.10768368076E+03 0.17948237145E+03 0.28654048240E+03 0.41956321207E+03
 0.56014713487E+03 0.68489975414E+03 0.77095993741E+03 0.51901548359E+03 0.49811141664E+03
 0.43987994300E+03 0.35651796215E+03 0.26459516480E+03 0.18060461608E+03 0.11661723238E+03
 0.77176878231E+02 0.58331720232E+02 0.49442851929E+02 0.43073106003E+02 0.38679218360E+02
 0.35887906482E+02 0.34313739988E+02 0.33689444163E+02 0.33877375723E+02 0.34822178739E+02
 0.36484521408E+02 0.38777131345E+02 0.41522456601E+02 0.44447310982E+02 0.47215889905E+02
 0.49487177324E+02 0.50993497813E+02 0.51533813370E+02 0.50993497813E+02 0.49487177324E+02
 0.47215889905E+02 0.44447310982E+02 0.41522456601E+02 0.38777131345E+02 0.36484521408E+02
 0.34822178739E+02 0.33877375723E+02 0.33689444163E+02 0.34313739988E+02 0.35887906482E+02
 0.38679218360E+02 0.43073106003E+02 0.49442851929E+02 0.58331720232E+02 0.77176878231E+02
 0.11661723238E+03 0.18060461608E+03 0.26459516480E+03 0.35651796215E+03 0.43987994300E+03
 0.49811141664E+03 0.29515370477E+03 0.28279836500E+03 0.24872493602E+03 0.20099763474E+03
 0.15029029888E+03 0.10661323033E+03 0.76199207382E+02 0.59506550329E+02 0.51079008882E+02
 0.44947328110E+02 0.40528332984E+02 0.37651390985E+02 0.36039349251E+02 0.35466826074E+02
 0.35823990485E+02 0.37106073103E+02 0.39355787231E+02 0.42576534036E+02 0.46644294217E+02
 0.51260439927E+02 0.56432310429E+02 0.62884999474E+02 0.69798425786E+02 0.75213183549E+02
 0.77267968442E+02 0.75213183549E+02 0.69798425786E+02 0.62884999474E+02 0.56432310429E+02
 0.51260439927E+02 0.46644294217E+02 0.42576534036E+02 0.39355787231E+02 0.37106073103E+02
 0.35823990485E+02 0.35466826074E+02 0.36039349251E+02 0.37651390985E+02 0.40528332984E+02
 0.44947328110E+02 0.51079008882E+02 0.59506550329E+02 0.76199207382E+02 0.10661323033E+03
 0.15029029888E+03 0.20099763474E+03 0.24872493602E+03 0.28279836500E+03 0.14972762314E+03
 0.14378590702E+03 0.12768496011E+03 0.10596722092E+03 0.84308034493E+02 0.67330947843E+02
 0.56671992072E+02 0.50075594739E+02 0.44781181479E+02 0.40784877804E+02 0.38093905225E+02
 0.36574472890E+02 0.36086760558E+02 0.36574472890E+02 0.38093905225E+02 0.40784877804E+02
 0.44781181479E+02 0.50075594739E+02 0.56671992072E+02 0.67330947843E+02 0.84308034493E+02
 0.10596722092E+03 0.12768496011E+03 0.14378590702E+03 0.14972762314E+03 0.14378590702E+03
 0.12768496011E+03 0.10596722092E+03 0.84308034493E+02 0.67330947843E+02 0.56671992072E+02
 0.50075594739E+02 0.44781181479E+02 0.40784877804E+02 0.38093905225E+02 0.36574472890E+02
 0.36086760558E+02 0.36574472890E+02 0.38093905225E+02 0.40784877804E+02 0.44781181479E+02
 0.50075594739E+02 0.56671992072E+02 0.67330947843E+02 0.84308034493E+02 0.10596722092E+03
 0.12768496011E+03 0.14378590702E+03 0.77267968442E+02 0.75213183549E+02 0.69798425786E+02
 0.62884999474E+02 0.56432310429E+02 0.51260439928E+02 0.46644294217E+02 0.42576534036E+02
 0.39355787231E+02 0.37106073103E+02 0.35823990485E+02 0.35466826074E+02 0.36039349251E+02
 0.37651390985E+02 0.40528332984E+02 0.44947328110E+02 0.51079008882E+02 0.59506550329E+02
 0.76199207382E+02 0.10661323033E+03 0.15029029888E+03 0.20099763474E+03 0.24872493602E+03
 0.28279836500E+03 0.29515370477E+03 0.28279836500E+03 0.24872493602E+03 0.20099763474E+03
 0.15029029888E+03 0.10661323033E+03 0.76199207382E+02 0.59506550329E+02 0.51079008882E+02
 0.44947328110E+02 0.40528332984E+02 0.37651390985E+02 0.36039349251E+02 0.35466826074E+02
 0.35823990485E+02 0.37106073103E+02 0.39355787231E+02 0.42576534036E+02 0.46644294217E+02
 0.51260439927E+02 0.56432310429E+02 0.62884999474E+02 0.69798425786E+02 0.75213183549E+02
 0.51533813370E+02 0.50993497813E+02 0.49487177324E+02 0.47215889905E+02 0.44447310982E+02
 0.41522456601E+02 0.38777131345E+02 0.36484521408E+02 0.34822178739E+02 0.33877375723E+02
 0.33689444163E+02 0.34313739988E+02 0.35887906482E+02 0.38679218360E+02 0.43073106003E+02
 0.49442851929E+02 0.58331720232E+02 0.77176878231E+02 0.11661723238E+03 0.18060461608E+03
 0.26459516480E+03 0.35651796215E+03 0.43987994300E+03 0.49811141664E+03 0.51901548359E+03
 0.49811141664E+03 0.43987994300E+03 0.35651796215E+03 0.26459516480E+03 0.18060461608E+03
 0.11661723238E+03 0.77176878231E+02 0.58331720232E+02 0.49442851929E+02 0.43073106003E+02
 0.38679218360E+02 0.35887906482E+02 0.34313739988E+02 0.33689444163E+02 0.33877375723E+02
 0.34822178739E+02 0.36484521408E+02 0.38777131345E+02 0.41522456601E+02 0.44447310982E+02
 0.47215889905E+02 0.49487177324E+02 0.50993497813E+02 0.39737706881E+02 0.39432459708E+02
 0.38561371931E+02 0.37250772719E+02 0.35687250692E+02 0.34086797284E+02 0.32660986711E+02
 0.31588125892E+02 0.30998920420E+02 0.30985526494E+02 0.31636341170E+02 0.33090702572E+02
 0.35602167256E+02 0.39581333708E+02 0.45546613929E+02 0.53911131494E+02 0.69570893259E+02
 0.10768368076E+03 0.17948237145E+03 0.28654048240E+03 0.41956321207E+03 0.56014713487E+03
 0.68489975414E+03 0.77095993741E+03 0.80167845043E+03 0.77095993741E+03 0.68489975414E+03
 0.56014713487E+03 0.41956321207E+03 0.28654048240E+03 0.17948237145E+03 0.10768368076E+03
 0.69570893259E+02 0.53911131494E+02 0.45546613929E+02 0.39581333708E+02 0.35602167256E+02
 0.33090702572E+02 0.31636341170E+02 0.30985526494E+02 0.30998920420E+02 0.31588125892E+02
 0.32660986711E+02 0.34086797284E+02 0.35687250692E+02 0.37250772719E+02 0.38561371931E+02
 0.39432459708E+02 0.31267659572E+02 0.31106694899E+02 0.30650424941E+02 0.29973883033E+02
 0.29188880977E+02 0.28430122266E+02 0.27839864023E+02 0.27551504556E+02 0.27679548165E+02
 0.28328168987E+02 0.29624496581E+02 0.31773967066E+02 0.35127180568E+02 0.40215253119E+02
 0.47647779690E+02 0.58620733800E+02 0.85640100919E+02 0.14745549931E+03 0.25507948831E+03
 0.40746576054E+03 0.59070639289E+03 0.78042808975E+03 0.94670818111E+03 0.10606250799E+04
 0.11011626978E+04 0.10606250799E+04 0.94670818111E+03 0.78042808975E+03 0.59070639289E+03
 0.40746576054E+03 0.25507948831E+03 0.14745549931E+03 0.85640100919E+02 0.58620733800E+02
 0.47647779690E+02 0.40215253119E+02 0.35127180568E+02 0.31773967066E+02 0.29624496581E+02
 0.28328168987E+02 0.27679548165E+02 0.27551504556E+02 0.27839864023E+02 0.28430122266E+02
 0.29188880977E+02 0.29973883033E+02 0.30650424941E+02 0.31106694899E+02 0.25153138214E+02
 0.25076988115E+02 0.24864454945E+02 0.24560690365E+02 0.24235574965E+02 0.23980645348E+02
 0.23903570332E+02 0.24116602833E+02 0.24727643311E+02 0.25849717463E+02 0.27636427971E+02
 0.30341155190E+02 0.34387963043E+02 0.40396405511E+02 0.49024452269E+02 0.63573111539E+02
 0.10264806187E+03 0.18656711580E+03 0.32588517068E+03 0.51730564284E+03 0.74319586669E+03
 0.97439955219E+03 0.11756847019E+04 0.13130948368E+04 0.13619193868E+04 0.13130948368E+04
 0.11756847019E+04 0.97439955219E+03 0.74319586669E+03 0.51730564284E+03 0.32588517068E+03
 0.18656711580E+03 0.10264806187E+03 0.63573111539E+02 0.49024452269E+02 0.40396405511E+02
 0.34387963043E+02 0.30341155190E+02 0.27636427971E+02 0.25849717463E+02 0.24727643311E+02
 0.24116602833E+02 0.23903570332E+02 0.23980645348E+02 0.24235574965E+02 0.24560690365E+02
 0.24864454945E+02 0.25076988115E+02 0.20558753845E+02 0.20530657383E+02 0.20456968283E+02
 0.20367990153E+02 0.20312770324E+02 0.20361373213E+02 0.20604034735E+02 0.21141830084E+02
 0.22078541950E+02 0.23531410680E+02 0.25668687773E+02 0.28771808035E+02 0.33308681530E+02
 0.39949642229E+02 0.49372642804E+02 0.66987665378E+02 0.11456437862E+03 0.21314742292E+03
 0.37291668156E+03 0.58915401084E+03 0.84194932083E+03 0.10992323547E+04 0.13225061409E+04
 0.14746778465E+04 0.15287114373E+04 0.14746778465E+04 0.13225061409E+04 0.10992323547E+04
 0.84194932083E+03 0.58915401084E+03 0.37291668156E+03 0.21314742292E+03 0.11456437862E+03
 0.66987665378E+02 0.49372642804E+02 0.39949642229E+02 0.33308681530E+02 0.28771808035E+02
 0.25668687773E+02 0.23531410680E+02 0.22078541950E+02 0.21141830084E+02 0.20604034735E+02
 0.20361373213E+02 0.20312770324E+02 0.20367990153E+02 0.20456968283E+02 0.20530657383E+02
 0.16968279590E+02 0.16968339016E+02 0.16976512060E+02 0.17015800009E+02 0.17124764275E+02
 0.17361989176E+02 0.17807372255E+02 0.18554276564E+02 0.19702200865E+02 0.21367852049E+02
 0.23722674624E+02 0.27054978190E+02 0.31843123567E+02 0.38769025385E+02 0.48517280643E+02
 0.67000079333E+02 0.11657895113E+03 0.21844416033E+03 0.38267122060E+03 0.60420306596E+03
 0.86261906981E+03 0.11252402949E+04 0.13529353807E+04 0.15080364498E+04 0.15630966038E+04
 0.15080364498E+04 0.13529353807E+04 0.11252402949E+04 0.86261906981E+03 0.60420306596E+03
 0.38267122060E+03 0.21844416033E+03 0.11657895113E+03 0.67000079333E+02 0.48517280643E+02
 0.38769025385E+02 0.31843123567E+02 0.27054978190E+02 0.23722674624E+02 0.21367852049E+02
 0.19702200865E+02 0.18554276564E+02 0.17807372255E+02 0.17361989176E+02 0.17124764275E+02
 0.17015800009E+02 0.16976512060E+02 0.16968339016E+02 0.14092227042E+02 0.14109874700E+02
 0.14169318444E+02 0.14289419939E+02 0.14502557667E+02 0.14859600129E+02 0.15432151368E+02
 0.16306283551E+02 0.17576131285E+02 0.19353867072E+02 0.21804194138E+02 0.25202287791E+02
 0.30003635340E+02 0.36862460945E+02 0.46451608315E+02 0.63202273154E+02 0.10764066908E+03
 0.20053625401E+03 0.35217391530E+03 0.55830340559E+03 0.79983865739E+03 0.10458968576E+04
 0.12594674942E+04 0.14050044730E+04 0.14566741270E+04 0.14050044730E+04 0.12594674942E+04
 0.10458968576E+04 0.79983865739E+03 0.55830340559E+03 0.35217391530E+03 0.20053625401E+03
 0.10764066908E+03 0.63202273154E+02 0.46451608315E+02 0.36862460945E+02 0.30003635340E+02
 0.25202287791E+02 0.21804194138E+02 0.19353867072E+02 0.17576131285E+02 0.16306283551E+02
 0.15432151368E+02 0.14859600129E+02 0.14502557667E+02 0.14289419939E+02 0.14169318444E+02
 0.14109874700E+02 0.11776958372E+02 0.11805956789E+02 0.11898291602E+02 0.12069731906E+02
 0.12347981444E+02 0.12777380889E+02 0.13421616057E+02 0.14359356677E+02 0.15678867030E+02
 0.17485419050E+02 0.19929730543E+02 0.23257656345E+02 0.27872919695E+02 0.34364097540E+02
 0.43373893842E+02 0.56992861062E+02 0.91042901087E+02 0.16521023875E+03 0.29019943467E+03
 0.46358492614E+03 0.66929036951E+03 0.88036664375E+03 0.10642825896E+04 0.11898398843E+04
 0.12344465330E+04 0.11898398843E+04 0.10642825896E+04 0.88036664375E+03 0.66929036951E+03
 0.46358492614E+03 0.29019943467E+03 0.16521023875E+03 0.91042901087E+02 0.56992861062E+02
 0.43373893842E+02 0.34364097540E+02 0.27872919695E+02 0.23257656345E+02 0.19929730543E+02
 0.17485419050E+02 0.15678867030E+02 0.14359356677E+02 0.13421616057E+02 0.12777380889E+02
 0.12347981444E+02 0.12069731906E+02 0.11898291602E+02 0.11805956789E+02 0.99333123426E+01
 0.99689734636E+01 0.10080253797E+02 0.10280288021E+02 0.10592932213E+02 0.11056880924E+02
 0.11728536735E+02 0.12679642651E+02 0.13992886878E+02 0.15765765075E+02 0.18130932421E+02
 0.21294889884E+02 0.25590057234E+02 0.31507954743E+02 0.39624534638E+02 0.50541159041E+02
 0.72765411712E+02 0.12358725930E+03 0.21408512954E+03 0.34432656527E+03 0.50248406727E+03
 0.66710096914E+03 0.81172626445E+03 0.91089198400E+03 0.94618718805E+03 0.91089198400E+03
 0.81172626445E+03 0.66710096914E+03 0.50248406727E+03 0.34432656527E+03 0.21408512954E+03
 0.12358725930E+03 0.72765411712E+02 0.50541159041E+02 0.39624534638E+02 0.31507954743E+02
 0.25590057234E+02 0.21294889884E+02 0.18130932421E+02 0.15765765075E+02 0.13992886878E+02
 0.12679642651E+02 0.11728536735E+02 0.11056880924E+02 0.10592932213E+02 0.10280288021E+02
 0.10080253797E+02 0.99689734636E+01 0.84730719400E+01 0.85117500554E+01 0.86312567464E+01
 0.88427137600E+01 0.91670658683E+01 0.96384275627E+01 0.10306816385E+02 0.11237579717E+02
 0.12508059337E+02 0.14207914410E+02 0.16450952999E+02 0.19401916120E+02 0.23315565666E+02
 0.28569497488E+02 0.35634823601E+02 0.44904981288E+02 0.58277213600E+02 0.87394147577E+02
 0.14328938780E+03 0.22862978382E+03 0.33639226964E+03 0.45138698740E+03 0.55397089832E+03
 0.62491818547E+03 0.65026697007E+03 0.62491818547E+03 0.55397089832E+03 0.45138698740E+03
 0.33639226964E+03 0.22862978382E+03 0.14328938780E+03 0.87394147577E+02 0.58277213600E+02
 0.44904981288E+02 0.35634823601E+02 0.28569497488E+02 0.23315565666E+02 0.19401916120E+02
 0.16450952999E+02 0.14207914410E+02 0.12508059337E+02 0.11237579717E+02 0.10306816385E+02
 0.96384275627E+01 0.91670658683E+01 0.88427137600E+01 0.86312567464E+01 0.85117500554E+01
 0.73043626102E+01 0.73439062401E+01 0.74654917690E+01 0.76789262515E+01 0.80030173749E+01
 0.84680646234E+01 0.91182733183E+01 0.10012621806E+02 0.11222775878E+02 0.12830885869E+02
 0.14934007283E+02 0.17659754572E+02 0.21192021007E+02 0.25796966460E+02 0.31819574681E+02
 0.39598750834E+02 0.49280642033E+02 0.63812785806E+02 0.92160458470E+02 0.13904288584E+03
 0.20197295494E+03 0.27193104112E+03 0.33598502286E+03 0.38096559011E+03 0.39714980618E+03
 0.38096559011E+03 0.33598502286E+03 0.27193104112E+03 0.20197295494E+03 0.13904288584E+03
 0.92160458470E+02 0.63812785806E+02 0.49280642033E+02 0.39598750834E+02 0.31819574681E+02
 0.25796966460E+02 0.21192021007E+02 0.17659754572E+02 0.14934007283E+02 0.12830885869E+02
 0.11222775878E+02 0.10012621806E+02 0.91182733183E+01 0.84680646234E+01 0.80030173749E+01
 0.76789262515E+01 0.74654917690E+01 0.73439062401E+01 0.63705430795E+01 0.64099240145E+01
 0.65307893890E+01 0.67421958081E+01 0.70613064214E+01 0.75151153853E+01 0.81425019131E+01
 0.89960171971E+01 0.10141096634E+02 0.11652847185E+02 0.13615254587E+02 0.16127679233E+02
 0.19318702274E+02 0.23362263346E+02 0.28482552509E+02 0.34919793849E+02 0.42829001128E+02
 0.52138701634E+02 0.64704194253E+02 0.85440483713E+02 0.11536158669E+03 0.15069954473E+03
 0.18441817353E+03 0.20869620007E+03 0.21753468232E+03 0.20869620007E+03 0.18441817353E+03
 0.15069954473E+03 0.11536158669E+03 0.85440483713E+02 0.64704194253E+02 0.52138701634E+02
 0.42829001128E+02 0.34919793849E+02 0.28482552509E+02 0.23362263346E+02 0.19318702274E+02
 0.16127679233E+02 0.13615254587E+02 0.11652847185E+02 0.10141096634E+02 0.89960171971E+01
 0.81425019131E+01 0.75151153853E+01 0.70613064214E+01 0.67421958081E+01 0.65307893890E+01
 0.64099240145E+01 0.56539528371E+01 0.56923898672E+01 0.58104337490E+01 0.60168986841E+01
 0.63278538000E+01 0.67677392440E+01 0.73710245880E+01 0.81842640385E+01 0.92663586841E+01
 0.10685741337E+02 0.12517008705E+02 0.14840969496E+02 0.17749252498E+02 0.21351172577E+02
 0.25777138931E+02 0.31166111286E+02 0.37619819082E+02 0.45119860428E+02 0.53438582532E+02
 0.62574731676E+02 0.74244851120E+02 0.88401984005E+02 0.10252940444E+03 0.11304371461E+03
 0.11693571146E+03 0.11304371461E+03 0.10252940444E+03 0.88401984005E+02 0.74244851120E+02
 0.62574731676E+02 0.53438582532E+02 0.45119860428E+02 0.37619819082E+02 0.31166111286E+02
 0.25777138931E+02 0.21351172577E+02 0.17749252498E+02 0.14840969496E+02 0.12517008705E+02
 0.10685741337E+02 0.92663586841E+01 0.81842640385E+01 0.73710245880E+01 0.67677392440E+01
 0.63278538000E+01 0.60168986841E+01 0.58104337490E+01 0.56923898672E+01 0.51361283781E+01
 0.51730290492E+01 0.52866611845E+01 0.54860663397E+01 0.57868807530E+01 0.62119169945E+01
 0.67923637395E+01 0.75696110416E+01 0.85961861016E+01 0.99341737010E+01 0.11651575747E+02
 0.13818840090E+02 0.16507174630E+02 0.19788290931E+02 0.23733244015E+02 0.28405272796E+02
 0.33838781724E+02 0.39999584256E+02 0.46734712260E+02 0.53736494494E+02 0.60548986930E+02
 0.66720344593E+02 0.72085483116E+02 0.75929302902E+02 0.77342180719E+02 0.75929302902E+02
 0.72085483116E+02 0.66720344593E+02 0.60548986930E+02 0.53736494494E+02 0.46734712260E+02
 0.39999584256E+02 0.33838781724E+02 0.28405272796E+02 0.23733244015E+02 0.19788290931E+02