   8   8   0   0
  0.2035890E+02  0.4566890E-09  0.7753300E-09  0.4599780E-09  0.5000000E-15
  1.000000000000000E-004
  CAR 
 Ga                                      
     27.69265422    -12.25559949  301      4.66633780      1.00000000
    -12.256  0.0000E+00  0.0000E+00
    -12.122  0.0000E+00  0.0000E+00
    -11.989  0.0000E+00  0.0000E+00
    -11.856  0.0000E+00  0.0000E+00
    -11.723  0.0000E+00  0.0000E+00
    -11.590  0.0000E+00  0.0000E+00
    -11.457  0.0000E+00  0.0000E+00
    -11.323  0.0000E+00  0.0000E+00
    -11.190  0.0000E+00  0.0000E+00
    -11.057  0.0000E+00  0.0000E+00
    -10.924  0.0000E+00  0.0000E+00
    -10.791  0.0000E+00  0.0000E+00
    -10.658  0.5085E-09  0.6771E-10
    -10.525  0.3415E-01  0.4548E-02
    -10.391  0.4191E+02  0.5586E+01
    -10.258  0.1675E+03  0.2789E+02
    -10.125  0.1279E+03  0.4492E+02
     -9.992  0.1605E+03  0.6630E+02
     -9.859  0.1005E+03  0.7968E+02
     -9.726  0.2390E+01  0.8000E+02
     -9.592  0.7975E-05  0.8000E+02
     -9.459  0.0000E+00  0.8000E+02
     -9.326  0.0000E+00  0.8000E+02
     -9.193  0.0000E+00  0.8000E+02
     -9.060  0.0000E+00  0.8000E+02
     -8.927  0.0000E+00  0.8000E+02
     -8.793  0.0000E+00  0.8000E+02
     -8.660  0.0000E+00  0.8000E+02
     -8.527  0.0000E+00  0.8000E+02
     -8.394  0.0000E+00  0.8000E+02
     -8.261  0.0000E+00  0.8000E+02
     -8.128  0.0000E+00  0.8000E+02
     -7.994  0.0000E+00  0.8000E+02
     -7.861  0.0000E+00  0.8000E+02
     -7.728  0.0000E+00  0.8000E+02
     -7.595  0.0000E+00  0.8000E+02
     -7.462  0.0000E+00  0.8000E+02
     -7.329  0.0000E+00  0.8000E+02
     -7.195  0.0000E+00  0.8000E+02
     -7.062  0.0000E+00  0.8000E+02
     -6.929  0.0000E+00  0.8000E+02
     -6.796  0.0000E+00  0.8000E+02
     -6.663  0.0000E+00  0.8000E+02
     -6.530  0.0000E+00  0.8000E+02
     -6.397  0.0000E+00  0.8000E+02
     -6.263  0.2006E-09  0.8000E+02
     -6.130  0.6722E-03  0.8000E+02
     -5.997  0.1239E+00  0.8002E+02
     -5.864  0.3923E+00  0.8007E+02
     -5.731  0.6544E+00  0.8016E+02
     -5.598  0.6661E+00  0.8024E+02
     -5.464  0.8920E+00  0.8036E+02
     -5.331  0.9248E+00  0.8049E+02
     -5.198  0.1052E+01  0.8063E+02
     -5.065  0.1203E+01  0.8079E+02
     -4.932  0.1176E+01  0.8094E+02
     -4.799  0.1291E+01  0.8112E+02
     -4.665  0.1468E+01  0.8131E+02
     -4.532  0.1559E+01  0.8152E+02
     -4.399  0.1651E+01  0.8174E+02
     -4.266  0.1577E+01  0.8195E+02
     -4.133  0.1824E+01  0.8219E+02
     -4.000  0.2010E+01  0.8246E+02
     -3.866  0.1590E+01  0.8267E+02
     -3.733  0.1709E+01  0.8290E+02
     -3.600  0.1707E+01  0.8313E+02
     -3.467  0.1837E+01  0.8337E+02
     -3.334  0.1955E+01  0.8363E+02
     -3.201  0.1800E+01  0.8387E+02
     -3.068  0.1697E+01  0.8410E+02
     -2.934  0.1598E+01  0.8431E+02
     -2.801  0.2019E+01  0.8458E+02
     -2.668  0.1941E+01  0.8484E+02
     -2.535  0.1886E+01  0.8509E+02
     -2.402  0.2192E+01  0.8538E+02
     -2.269  0.2030E+01  0.8565E+02
     -2.135  0.1972E+01  0.8591E+02
     -2.002  0.2411E+01  0.8623E+02
     -1.869  0.2540E+01  0.8657E+02
     -1.736  0.2117E+01  0.8685E+02
     -1.603  0.1661E+01  0.8707E+02
     -1.470  0.2026E+01  0.8734E+02
     -1.336  0.1870E+01  0.8759E+02
     -1.203  0.1812E+01  0.8783E+02
     -1.070  0.2542E+01  0.8817E+02
     -0.937  0.2568E+01  0.8852E+02
     -0.804  0.2442E+01  0.8884E+02
     -0.671  0.2684E+01  0.8920E+02
     -0.537  0.2308E+01  0.8951E+02
     -0.404  0.2353E+01  0.8982E+02
     -0.271  0.2278E+01  0.9012E+02
     -0.138  0.3197E+01  0.9055E+02
     -0.005  0.2900E+01  0.9093E+02
      0.128  0.2128E+01  0.9122E+02
      0.262  0.2092E+01  0.9150E+02
      0.395  0.2319E+01  0.9180E+02
      0.528  0.2245E+01  0.9210E+02
      0.661  0.1968E+01  0.9237E+02
      0.794  0.1929E+01  0.9262E+02
      0.927  0.2032E+01  0.9289E+02
      1.060  0.1889E+01  0.9314E+02
      1.194  0.1704E+01  0.9337E+02
      1.327  0.1903E+01  0.9362E+02
      1.460  0.2874E+01  0.9401E+02
      1.593  0.2404E+01  0.9433E+02
      1.726  0.2814E+01  0.9470E+02
      1.859  0.3317E+01  0.9514E+02
      1.993  0.2671E+01  0.9550E+02
      2.126  0.2430E+01  0.9582E+02
      2.259  0.2927E+01  0.9621E+02
      2.392  0.2586E+01  0.9656E+02
      2.525  0.2702E+01  0.9692E+02
      2.658  0.2949E+01  0.9731E+02
      2.792  0.2676E+01  0.9767E+02
      2.925  0.3543E+01  0.9814E+02
      3.058  0.3606E+01  0.9862E+02
      3.191  0.3785E+01  0.9912E+02
      3.324  0.3939E+01  0.9965E+02
      3.457  0.3664E+01  0.1001E+03
      3.591  0.4971E+01  0.1008E+03
      3.724  0.3900E+01  0.1013E+03
      3.857  0.3657E+01  0.1018E+03
      3.990  0.3465E+01  0.1023E+03
      4.123  0.2585E+01  0.1026E+03
      4.256  0.3610E+01  0.1031E+03
      4.390  0.2685E+01  0.1034E+03
      4.523  0.1833E+01  0.1037E+03
      4.656  0.2171E+01  0.1040E+03
      4.789  0.1182E+01  0.1041E+03
      4.922  0.1368E+01  0.1043E+03
      5.055  0.2023E+01  0.1046E+03
      5.188  0.2189E+01  0.1049E+03
      5.322  0.2607E+01  0.1052E+03
      5.455  0.3124E+01  0.1056E+03
      5.588  0.4305E+01  0.1062E+03
      5.721  0.4292E+01  0.1068E+03
      5.854  0.4235E+01  0.1074E+03
      5.987  0.3920E+01  0.1079E+03
      6.121  0.3730E+01  0.1084E+03
      6.254  0.4267E+01  0.1089E+03
      6.387  0.3103E+01  0.1094E+03
      6.520  0.2774E+01  0.1097E+03
      6.653  0.3038E+01  0.1101E+03
      6.786  0.2685E+01  0.1105E+03
      6.920  0.3259E+01  0.1109E+03
      7.053  0.3474E+01  0.1114E+03
      7.186  0.4290E+01  0.1120E+03
      7.319  0.3785E+01  0.1125E+03
      7.452  0.3365E+01  0.1129E+03
      7.585  0.4558E+01  0.1135E+03
      7.719  0.3753E+01  0.1140E+03
      7.852  0.3612E+01  0.1145E+03
      7.985  0.3597E+01  0.1150E+03
      8.118  0.4135E+01  0.1155E+03
      8.251  0.4000E+01  0.1161E+03
      8.384  0.3912E+01  0.1166E+03
      8.517  0.4229E+01  0.1171E+03
      8.651  0.3948E+01  0.1177E+03
      8.784  0.3587E+01  0.1181E+03
      8.917  0.4005E+01  0.1187E+03
      9.050  0.4287E+01  0.1192E+03
      9.183  0.4725E+01  0.1199E+03
      9.316  0.3600E+01  0.1204E+03
      9.450  0.4390E+01  0.1209E+03
      9.583  0.4875E+01  0.1216E+03
      9.716  0.4683E+01  0.1222E+03
      9.849  0.3865E+01  0.1227E+03
      9.982  0.3797E+01  0.1232E+03
     10.115  0.4091E+01  0.1238E+03
     10.249  0.3351E+01  0.1242E+03
     10.382  0.3916E+01  0.1247E+03
     10.515  0.3776E+01  0.1252E+03
     10.648  0.4960E+01  0.1259E+03
     10.781  0.3841E+01  0.1264E+03
     10.914  0.4328E+01  0.1270E+03
     11.048  0.4691E+01  0.1276E+03
     11.181  0.4303E+01  0.1282E+03
     11.314  0.3487E+01  0.1287E+03
     11.447  0.3759E+01  0.1292E+03
     11.580  0.3734E+01  0.1297E+03
     11.713  0.4186E+01  0.1302E+03
     11.847  0.4511E+01  0.1308E+03
     11.980  0.3860E+01  0.1313E+03
     12.113  0.4824E+01  0.1320E+03
     12.246  0.4224E+01  0.1325E+03
     12.379  0.4354E+01  0.1331E+03
     12.512  0.4327E+01  0.1337E+03
     12.645  0.4375E+01  0.1343E+03
     12.779  0.4730E+01  0.1349E+03
     12.912  0.4501E+01  0.1355E+03
     13.045  0.5101E+01  0.1362E+03
     13.178  0.5210E+01  0.1369E+03
     13.311  0.4861E+01  0.1375E+03
     13.444  0.3914E+01  0.1380E+03
     13.578  0.4038E+01  0.1386E+03
     13.711  0.4756E+01  0.1392E+03
     13.844  0.5483E+01  0.1399E+03
     13.977  0.4151E+01  0.1405E+03
     14.110  0.4417E+01  0.1411E+03
     14.243  0.5296E+01  0.1418E+03
     14.377  0.5107E+01  0.1425E+03
     14.510  0.5060E+01  0.1431E+03
     14.643  0.4857E+01  0.1438E+03
     14.776  0.4955E+01  0.1444E+03
     14.909  0.4910E+01  0.1451E+03
     15.042  0.4716E+01  0.1457E+03
     15.176  0.4757E+01  0.1464E+03
     15.309  0.4211E+01  0.1469E+03
     15.442  0.4332E+01  0.1475E+03
     15.575  0.4082E+01  0.1480E+03
     15.708  0.4038E+01  0.1486E+03
     15.841  0.4054E+01  0.1491E+03
     15.974  0.4712E+01  0.1498E+03
     16.108  0.4645E+01  0.1504E+03
     16.241  0.4436E+01  0.1510E+03
     16.374  0.5200E+01  0.1517E+03
     16.507  0.4580E+01  0.1523E+03
     16.640  0.4641E+01  0.1529E+03
     16.773  0.5358E+01  0.1536E+03
     16.907  0.4061E+01  0.1541E+03
     17.040  0.5330E+01  0.1548E+03
     17.173  0.5089E+01  0.1555E+03
     17.306  0.4989E+01  0.1562E+03
     17.439  0.4352E+01  0.1568E+03
     17.572  0.4599E+01  0.1574E+03
     17.706  0.4773E+01  0.1580E+03
     17.839  0.5575E+01  0.1588E+03
     17.972  0.5220E+01  0.1595E+03
     18.105  0.4791E+01  0.1601E+03
     18.238  0.5195E+01  0.1608E+03
     18.371  0.5274E+01  0.1615E+03
     18.505  0.5200E+01  0.1622E+03
     18.638  0.4769E+01  0.1628E+03
     18.771  0.4757E+01  0.1634E+03
     18.904  0.5329E+01  0.1642E+03
     19.037  0.6181E+01  0.1650E+03
     19.170  0.5665E+01  0.1657E+03
     19.304  0.5717E+01  0.1665E+03
     19.437  0.5210E+01  0.1672E+03
     19.570  0.5279E+01  0.1679E+03
     19.703  0.5408E+01  0.1686E+03
     19.836  0.4874E+01  0.1693E+03
     19.969  0.5164E+01  0.1699E+03
     20.102  0.4702E+01  0.1706E+03
     20.236  0.4059E+01  0.1711E+03
     20.369  0.4866E+01  0.1718E+03
     20.502  0.4595E+01  0.1724E+03
     20.635  0.4849E+01  0.1730E+03
     20.768  0.4618E+01  0.1736E+03
     20.901  0.5477E+01  0.1744E+03
     21.035  0.4599E+01  0.1750E+03
     21.168  0.3947E+01  0.1755E+03
     21.301  0.4390E+01  0.1761E+03
     21.434  0.4629E+01  0.1767E+03
     21.567  0.5227E+01  0.1774E+03
     21.700  0.5440E+01  0.1781E+03
     21.834  0.5709E+01  0.1789E+03
     21.967  0.4748E+01  0.1795E+03
     22.100  0.5605E+01  0.1803E+03
     22.233  0.5594E+01  0.1810E+03
     22.366  0.6358E+01  0.1819E+03
     22.499  0.6723E+01  0.1827E+03
     22.633  0.5582E+01  0.1835E+03
     22.766  0.5652E+01  0.1842E+03
     22.899  0.5728E+01  0.1850E+03
     23.032  0.6296E+01  0.1858E+03
     23.165  0.5645E+01  0.1866E+03
     23.298  0.5713E+01  0.1874E+03
     23.432  0.4438E+01  0.1879E+03
     23.565  0.4727E+01  0.1886E+03
     23.698  0.3952E+01  0.1891E+03
     23.831  0.3352E+01  0.1895E+03
     23.964  0.3236E+01  0.1900E+03
     24.097  0.2722E+01  0.1903E+03
     24.230  0.2836E+01  0.1907E+03
     24.364  0.1680E+01  0.1909E+03
     24.497  0.1256E+01  0.1911E+03
     24.630  0.1398E+01  0.1913E+03
     24.763  0.1448E+01  0.1915E+03
     24.896  0.1296E+01  0.1917E+03
     25.029  0.7089E+00  0.1918E+03
     25.163  0.4145E+00  0.1918E+03
     25.296  0.5556E+00  0.1919E+03
     25.429  0.3185E+00  0.1919E+03
     25.562  0.2025E+00  0.1920E+03
     25.695  0.1233E+00  0.1920E+03
     25.828  0.8080E-01  0.1920E+03
     25.962  0.1307E+00  0.1920E+03
     26.095  0.6645E-03  0.1920E+03
     26.228  0.2521E-10  0.1920E+03
     26.361  0.0000E+00  0.1920E+03
     26.494  0.0000E+00  0.1920E+03
     26.627  0.0000E+00  0.1920E+03
     26.761  0.0000E+00  0.1920E+03
     26.894  0.0000E+00  0.1920E+03
     27.027  0.0000E+00  0.1920E+03
     27.160  0.0000E+00  0.1920E+03
     27.293  0.0000E+00  0.1920E+03
     27.426  0.0000E+00  0.1920E+03
     27.559  0.0000E+00  0.1920E+03
     27.693  0.0000E+00  0.1920E+03
