Ga                                      
           1
     4.566890    0.000000    0.000000
     0.000000    7.753300    0.000000
     0.000000    0.000000    4.599780
   Ga
     8
Direct configuration=     1
   0.00000000  0.15642000  0.08120000
   0.00000000  0.84358000  0.91880000
   0.00000000  0.34358000  0.58120000
   0.00000000  0.65642000  0.41880000
   0.50000000  0.65642000  0.08120000
   0.50000000  0.34358000  0.91880000
   0.50000000  0.84358000  0.58120000
   0.50000000  0.15642000  0.41880000
