 DBCSR| CPU Multiplication driver                                           BLAS (U)
 DBCSR| Multrec recursion limit                                              512 (U)
 DBCSR| Multiplication stack size                                           1000 (D)
 DBCSR| Maximum elements for images                                    UNLIMITED (U)
 DBCSR| Multiplicative factor virtual images                                   1 (U)
 DBCSR| Use multiplication densification                                       T (D)
 DBCSR| Multiplication size stacks                                             3 (U)
 DBCSR| Use memory pool for CPU allocation                                     F (U)
 DBCSR| Number of 3D layers                                               SINGLE (U)
 DBCSR| Use MPI memory allocation                                              F (U)
 DBCSR| Use RMA algorithm                                                      F (U)
 DBCSR| Use Communication thread                                               T (U)
 DBCSR| Communication thread load                                             45 (D)
 DBCSR| MPI: My process id                                                     0
 DBCSR| MPI: Number of processes                                               8
 DBCSR| OMP: Current number of threads                                        12
 DBCSR| OMP: Max number of threads                                            12
 DBCSR| Split modifier for TAS multiplication algorithm                  1.0E+00 (U)


  **** **** ******  **  PROGRAM STARTED AT               2025-08-03 20:07:48.206
 ***** ** ***  *** **   PROGRAM STARTED ON                          i04r11c03s06
 **    ****   ******    PROGRAM STARTED BY                               di38fab
 ***** **    ** ** **   PROGRAM PROCESS ID                               4033645
  **** **  *******  **  PROGRAM STARTED IN /hppfs/scratch/04/di38fab/09_GTH/Delt
                                           a_Set/Sc/TZVP-MOLOPT-PBE-GTH/8x8x8

 CP2K| version string:                 CP2K version 2025.1 (Development Version)
 CP2K| source code revision number:                                  git:3130539
 CP2K| cp2kflags: omp libint fftw3 libxc parallel scalapack max_contr=4         
 CP2K| is freely available from                            https://www.cp2k.org/
 CP2K| Program compiled at                         Tue Jun  3 16:14:32 CEST 2025
 CP2K| Program compiled on                                               login01
 CP2K| Program compiled for                                        Supermuc-foss
 CP2K| Data directory path                  /hppfs/work/pn36zo/di38fab/cp2k/data
 CP2K| Input file name                                                    GW.inp

 GLOBAL| Force Environment number                                              1
 GLOBAL| Basis set file name            /hppfs/scratch/04/di38fab/09_GTH/BASIS_A
 GLOBAL| Potential file name            /hppfs/work/pn36zo/di38fab/cp2k/data/GTH
 GLOBAL| MM Potential file name                                     MM_POTENTIAL
 GLOBAL| Coordinate file name                                             Sc.cif
 GLOBAL| Method name                                                        CP2K
 GLOBAL| Project name                                                       WSe2
 GLOBAL| Run type                                                         ENERGY
 GLOBAL| FFT library                                                       FFTW3
 GLOBAL| Diagonalization library                                       ScaLAPACK
 GLOBAL| Cholesky decomposition library                                ScaLAPACK
 GLOBAL| DGEMM library                                                      BLAS
 GLOBAL| Orthonormality check for eigenvectors                          DISABLED
 GLOBAL| Matrix multiplication library                                 ScaLAPACK
 GLOBAL| All-to-all communication in single precision                          F
 GLOBAL| FFTs using library dependent lengths                                  F
 GLOBAL| Grid backend                                                       AUTO
 GLOBAL| Global print level                                               MEDIUM
 GLOBAL| MPI I/O enabled                                                       T
 GLOBAL| Total number of message passing processes                             8
 GLOBAL| Number of threads for this process                                   12
 GLOBAL| This output is from process                                           0
 GLOBAL| OpenMP stack size per thread (OMP_STACKSIZE)                    default
 GLOBAL| CPU model name             Intel(R) Xeon(R) Platinum 8174 CPU @ 3.10GHz

 MEMORY| system memory details [Kb]
 MEMORY|                        rank 0           min           max       average
 MEMORY| MemTotal             98436664      98436664      98436664      98436664
 MEMORY| MemFree              84537000      84537000      84564272      84550636
 MEMORY| Buffers                     0             0             0             0
 MEMORY| Cached                2384416       2380468       2384416       2382442
 MEMORY| Slab                  1291448       1282764       1291448       1287106
 MEMORY| SReclaimable           291312        280020        291312        285666
 MEMORY| MemLikelyFree        87212728      87212728      87224760      87218744


 *** Fundamental physical constants (SI units) ***

 *** Literature: B. J. Mohr and B. N. Taylor,
 ***             CODATA recommended values of the fundamental physical
 ***             constants: 2006, Web Version 5.1
 ***             http://physics.nist.gov/constants

 Speed of light in vacuum [m/s]                             2.99792458000000E+08
 Magnetic constant or permeability of vacuum [N/A**2]       1.25663706143592E-06
 Electric constant or permittivity of vacuum [F/m]          8.85418781762039E-12
 Planck constant (h) [J*s]                                  6.62606896000000E-34
 Planck constant (h-bar) [J*s]                              1.05457162825177E-34
 Elementary charge [C]                                      1.60217648700000E-19
 Electron mass [kg]                                         9.10938215000000E-31
 Electron g factor [ ]                                     -2.00231930436220E+00
 Proton mass [kg]                                           1.67262163700000E-27
 Fine-structure constant                                    7.29735253760000E-03
 Rydberg constant [1/m]                                     1.09737315685270E+07
 Avogadro constant [1/mol]                                  6.02214179000000E+23
 Boltzmann constant [J/K]                                   1.38065040000000E-23
 Atomic mass unit [kg]                                      1.66053878200000E-27
 Bohr radius [m]                                            5.29177208590000E-11

 *** Conversion factors ***

 [u] -> [a.u.]                                              1.82288848426455E+03
 [Angstrom] -> [Bohr] = [a.u.]                              1.88972613288564E+00
 [a.u.] = [Bohr] -> [Angstrom]                              5.29177208590000E-01
 [a.u.] -> [s]                                              2.41888432650478E-17
 [a.u.] -> [fs]                                             2.41888432650478E-02
 [a.u.] -> [J]                                              4.35974393937059E-18
 [a.u.] -> [N]                                              8.23872205491840E-08
 [a.u.] -> [K]                                              3.15774647902944E+05
 [a.u.] -> [kJ/mol]                                         2.62549961709828E+03
 [a.u.] -> [kcal/mol]                                       6.27509468713739E+02
 [a.u.] -> [Pa]                                             2.94210107994716E+13
 [a.u.] -> [bar]                                            2.94210107994716E+08
 [a.u.] -> [atm]                                            2.90362800883016E+08
 [a.u.] -> [eV]                                             2.72113838565563E+01
 [a.u.] -> [Hz]                                             6.57968392072181E+15
 [a.u.] -> [1/cm] (wave numbers)                            2.19474631370540E+05
 [a.u./Bohr**2] -> [1/cm]                                   5.14048714338585E+03
 

 CELL_TOP| Volume [angstrom^3]:                                        49.317078
 CELL_TOP| Vector a [angstrom     3.321     0.000     0.000   |a| =     3.321450
 CELL_TOP| Vector b [angstrom     1.661     2.876     0.000   |b| =     3.321450
 CELL_TOP| Vector c [angstrom     0.000     0.000     5.162   |c| =     5.161920
 CELL_TOP| Angle (b,c), alpha [degree]:                                90.000000
 CELL_TOP| Angle (a,c), beta  [degree]:                                90.000000
 CELL_TOP| Angle (a,b), gamma [degree]:                                60.000000
 CELL_TOP| Numerically orthorhombic:                                          NO
 CELL_TOP| Periodicity                                                       XYZ

 CELL_CIF| Volume [angstrom^3]:                                        49.317078
 CELL_CIF| Vector a [angstrom     3.321     0.000     0.000   |a| =     3.321450
 CELL_CIF| Vector b [angstrom     1.661     2.876     0.000   |b| =     3.321450
 CELL_CIF| Vector c [angstrom     0.000     0.000     5.162   |c| =     5.161920
 CELL_CIF| Angle (b,c), alpha [degree]:                                90.000000
 CELL_CIF| Angle (a,c), beta  [degree]:                                90.000000
 CELL_CIF| Angle (a,b), gamma [degree]:                                60.000000
 CELL_CIF| Numerically orthorhombic:                                          NO
 CELL_CIF| Periodicity                                                       XYZ

 GENERATE|  Preliminary Number of Bonds generated:                             0
 GENERATE|  Achieved consistency in connectivity generation.

 CELL| Volume [angstrom^3]:                                            49.317078
 CELL| Vector a [angstrom]:       3.321     0.000     0.000   |a| =     3.321450
 CELL| Vector b [angstrom]:       1.661     2.876     0.000   |b| =     3.321450
 CELL| Vector c [angstrom]:       0.000     0.000     5.162   |c| =     5.161920
 CELL| Angle (b,c), alpha [degree]:                                    90.000000
 CELL| Angle (a,c), beta  [degree]:                                    90.000000
 CELL| Angle (a,b), gamma [degree]:                                    60.000000
 CELL| Numerically orthorhombic:                                              NO
 CELL| Periodicity                                                           XYZ

 CELL_REF| Volume [angstrom^3]:                                        49.317078
 CELL_REF| Vector a [angstrom     3.321     0.000     0.000   |a| =     3.321450
 CELL_REF| Vector b [angstrom     1.661     2.876     0.000   |b| =     3.321450
 CELL_REF| Vector c [angstrom     0.000     0.000     5.162   |c| =     5.161920
 CELL_REF| Angle (b,c), alpha [degree]:                                90.000000
 CELL_REF| Angle (a,c), beta  [degree]:                                90.000000
 CELL_REF| Angle (a,b), gamma [degree]:                                60.000000
 CELL_REF| Numerically orthorhombic:                                          NO
 CELL_REF| Periodicity                                                       XYZ

 *** WARNING in cryssym.F:180 :: Symmetry library SPGLIB not available ***


 *******************************************************************************
                                    Kpoints
 *******************************************************************************
 BRILLOUIN| K-point scheme                                        Monkhorst-Pack
 BRILLOUIN| K-Point grid                                             8    8    8
 BRILLOUIN| Accuracy in Symmetry determination                      0.100000E-05
 BRILLOUIN| K-Point point group symmetrization                               OFF
 BRILLOUIN| Wavefunction type                                            COMPLEX
 BRILLOUIN| List of Kpoints [2 Pi/Bohr]                                      256
 BRILLOUIN| Number           Weight            X              Y              Z
 BRILLOUIN|     1           0.00391       -0.43750       -0.43750       -0.43750
 BRILLOUIN|     2           0.00391       -0.43750       -0.43750       -0.31250
 BRILLOUIN|     3           0.00391       -0.43750       -0.43750       -0.18750
 BRILLOUIN|     4           0.00391       -0.43750       -0.43750       -0.06250
 BRILLOUIN|     5           0.00391       -0.43750       -0.43750        0.06250
 BRILLOUIN|     6           0.00391       -0.43750       -0.43750        0.18750
 BRILLOUIN|     7           0.00391       -0.43750       -0.43750        0.31250
 BRILLOUIN|     8           0.00391       -0.43750       -0.43750        0.43750
 BRILLOUIN|     9           0.00391       -0.43750       -0.31250       -0.43750
 BRILLOUIN|    10           0.00391       -0.43750       -0.31250       -0.31250
 BRILLOUIN|    11           0.00391       -0.43750       -0.31250       -0.18750
 BRILLOUIN|    12           0.00391       -0.43750       -0.31250       -0.06250
 BRILLOUIN|    13           0.00391       -0.43750       -0.31250        0.06250
 BRILLOUIN|    14           0.00391       -0.43750       -0.31250        0.18750
 BRILLOUIN|    15           0.00391       -0.43750       -0.31250        0.31250
 BRILLOUIN|    16           0.00391       -0.43750       -0.31250        0.43750
 BRILLOUIN|    17           0.00391       -0.43750       -0.18750       -0.43750
 BRILLOUIN|    18           0.00391       -0.43750       -0.18750       -0.31250
 BRILLOUIN|    19           0.00391       -0.43750       -0.18750       -0.18750
 BRILLOUIN|    20           0.00391       -0.43750       -0.18750       -0.06250
 BRILLOUIN|    21           0.00391       -0.43750       -0.18750        0.06250
 BRILLOUIN|    22           0.00391       -0.43750       -0.18750        0.18750
 BRILLOUIN|    23           0.00391       -0.43750       -0.18750        0.31250
 BRILLOUIN|    24           0.00391       -0.43750       -0.18750        0.43750
 BRILLOUIN|    25           0.00391       -0.43750       -0.06250       -0.43750
 BRILLOUIN|    26           0.00391       -0.43750       -0.06250       -0.31250
 BRILLOUIN|    27           0.00391       -0.43750       -0.06250       -0.18750
 BRILLOUIN|    28           0.00391       -0.43750       -0.06250       -0.06250
 BRILLOUIN|    29           0.00391       -0.43750       -0.06250        0.06250
 BRILLOUIN|    30           0.00391       -0.43750       -0.06250        0.18750
 BRILLOUIN|    31           0.00391       -0.43750       -0.06250        0.31250
 BRILLOUIN|    32           0.00391       -0.43750       -0.06250        0.43750
 BRILLOUIN|    33           0.00391       -0.43750        0.06250       -0.43750
 BRILLOUIN|    34           0.00391       -0.43750        0.06250       -0.31250
 BRILLOUIN|    35           0.00391       -0.43750        0.06250       -0.18750
 BRILLOUIN|    36           0.00391       -0.43750        0.06250       -0.06250
 BRILLOUIN|    37           0.00391       -0.43750        0.06250        0.06250
 BRILLOUIN|    38           0.00391       -0.43750        0.06250        0.18750
 BRILLOUIN|    39           0.00391       -0.43750        0.06250        0.31250
 BRILLOUIN|    40           0.00391       -0.43750        0.06250        0.43750
 BRILLOUIN|    41           0.00391       -0.43750        0.18750       -0.43750
 BRILLOUIN|    42           0.00391       -0.43750        0.18750       -0.31250
 BRILLOUIN|    43           0.00391       -0.43750        0.18750       -0.18750
 BRILLOUIN|    44           0.00391       -0.43750        0.18750       -0.06250
 BRILLOUIN|    45           0.00391       -0.43750        0.18750        0.06250
 BRILLOUIN|    46           0.00391       -0.43750        0.18750        0.18750
 BRILLOUIN|    47           0.00391       -0.43750        0.18750        0.31250
 BRILLOUIN|    48           0.00391       -0.43750        0.18750        0.43750
 BRILLOUIN|    49           0.00391       -0.43750        0.31250       -0.43750
 BRILLOUIN|    50           0.00391       -0.43750        0.31250       -0.31250
 BRILLOUIN|    51           0.00391       -0.43750        0.31250       -0.18750
 BRILLOUIN|    52           0.00391       -0.43750        0.31250       -0.06250
 BRILLOUIN|    53           0.00391       -0.43750        0.31250        0.06250
 BRILLOUIN|    54           0.00391       -0.43750        0.31250        0.18750
 BRILLOUIN|    55           0.00391       -0.43750        0.31250        0.31250
 BRILLOUIN|    56           0.00391       -0.43750        0.31250        0.43750
 BRILLOUIN|    57           0.00391       -0.43750        0.43750       -0.43750
 BRILLOUIN|    58           0.00391       -0.43750        0.43750       -0.31250
 BRILLOUIN|    59           0.00391       -0.43750        0.43750       -0.18750
 BRILLOUIN|    60           0.00391       -0.43750        0.43750       -0.06250
 BRILLOUIN|    61           0.00391       -0.43750        0.43750        0.06250
 BRILLOUIN|    62           0.00391       -0.43750        0.43750        0.18750
 BRILLOUIN|    63           0.00391       -0.43750        0.43750        0.31250
 BRILLOUIN|    64           0.00391       -0.43750        0.43750        0.43750
 BRILLOUIN|    65           0.00391       -0.31250       -0.43750       -0.43750
 BRILLOUIN|    66           0.00391       -0.31250       -0.43750       -0.31250
 BRILLOUIN|    67           0.00391       -0.31250       -0.43750       -0.18750
 BRILLOUIN|    68           0.00391       -0.31250       -0.43750       -0.06250
 BRILLOUIN|    69           0.00391       -0.31250       -0.43750        0.06250
 BRILLOUIN|    70           0.00391       -0.31250       -0.43750        0.18750
 BRILLOUIN|    71           0.00391       -0.31250       -0.43750        0.31250
 BRILLOUIN|    72           0.00391       -0.31250       -0.43750        0.43750
 BRILLOUIN|    73           0.00391       -0.31250       -0.31250       -0.43750
 BRILLOUIN|    74           0.00391       -0.31250       -0.31250       -0.31250
 BRILLOUIN|    75           0.00391       -0.31250       -0.31250       -0.18750
 BRILLOUIN|    76           0.00391       -0.31250       -0.31250       -0.06250
 BRILLOUIN|    77           0.00391       -0.31250       -0.31250        0.06250
 BRILLOUIN|    78           0.00391       -0.31250       -0.31250        0.18750
 BRILLOUIN|    79           0.00391       -0.31250       -0.31250        0.31250
 BRILLOUIN|    80           0.00391       -0.31250       -0.31250        0.43750
 BRILLOUIN|    81           0.00391       -0.31250       -0.18750       -0.43750
 BRILLOUIN|    82           0.00391       -0.31250       -0.18750       -0.31250
 BRILLOUIN|    83           0.00391       -0.31250       -0.18750       -0.18750
 BRILLOUIN|    84           0.00391       -0.31250       -0.18750       -0.06250
 BRILLOUIN|    85           0.00391       -0.31250       -0.18750        0.06250
 BRILLOUIN|    86           0.00391       -0.31250       -0.18750        0.18750
 BRILLOUIN|    87           0.00391       -0.31250       -0.18750        0.31250
 BRILLOUIN|    88           0.00391       -0.31250       -0.18750        0.43750
 BRILLOUIN|    89           0.00391       -0.31250       -0.06250       -0.43750
 BRILLOUIN|    90           0.00391       -0.31250       -0.06250       -0.31250
 BRILLOUIN|    91           0.00391       -0.31250       -0.06250       -0.18750
 BRILLOUIN|    92           0.00391       -0.31250       -0.06250       -0.06250
 BRILLOUIN|    93           0.00391       -0.31250       -0.06250        0.06250
 BRILLOUIN|    94           0.00391       -0.31250       -0.06250        0.18750
 BRILLOUIN|    95           0.00391       -0.31250       -0.06250        0.31250
 BRILLOUIN|    96           0.00391       -0.31250       -0.06250        0.43750
 BRILLOUIN|    97           0.00391       -0.31250        0.06250       -0.43750
 BRILLOUIN|    98           0.00391       -0.31250        0.06250       -0.31250
 BRILLOUIN|    99           0.00391       -0.31250        0.06250       -0.18750
 BRILLOUIN|   100           0.00391       -0.31250        0.06250       -0.06250
 BRILLOUIN|   101           0.00391       -0.31250        0.06250        0.06250
 BRILLOUIN|   102           0.00391       -0.31250        0.06250        0.18750
 BRILLOUIN|   103           0.00391       -0.31250        0.06250        0.31250
 BRILLOUIN|   104           0.00391       -0.31250        0.06250        0.43750
 BRILLOUIN|   105           0.00391       -0.31250        0.18750       -0.43750
 BRILLOUIN|   106           0.00391       -0.31250        0.18750       -0.31250
 BRILLOUIN|   107           0.00391       -0.31250        0.18750       -0.18750
 BRILLOUIN|   108           0.00391       -0.31250        0.18750       -0.06250
 BRILLOUIN|   109           0.00391       -0.31250        0.18750        0.06250
 BRILLOUIN|   110           0.00391       -0.31250        0.18750        0.18750
 BRILLOUIN|   111           0.00391       -0.31250        0.18750        0.31250
 BRILLOUIN|   112           0.00391       -0.31250        0.18750        0.43750
 BRILLOUIN|   113           0.00391       -0.31250        0.31250       -0.43750
 BRILLOUIN|   114           0.00391       -0.31250        0.31250       -0.31250
 BRILLOUIN|   115           0.00391       -0.31250        0.31250       -0.18750
 BRILLOUIN|   116           0.00391       -0.31250        0.31250       -0.06250
 BRILLOUIN|   117           0.00391       -0.31250        0.31250        0.06250
 BRILLOUIN|   118           0.00391       -0.31250        0.31250        0.18750
 BRILLOUIN|   119           0.00391       -0.31250        0.31250        0.31250
 BRILLOUIN|   120           0.00391       -0.31250        0.31250        0.43750
 BRILLOUIN|   121           0.00391       -0.31250        0.43750       -0.43750
 BRILLOUIN|   122           0.00391       -0.31250        0.43750       -0.31250
 BRILLOUIN|   123           0.00391       -0.31250        0.43750       -0.18750
 BRILLOUIN|   124           0.00391       -0.31250        0.43750       -0.06250
 BRILLOUIN|   125           0.00391       -0.31250        0.43750        0.06250
 BRILLOUIN|   126           0.00391       -0.31250        0.43750        0.18750
 BRILLOUIN|   127           0.00391       -0.31250        0.43750        0.31250
 BRILLOUIN|   128           0.00391       -0.31250        0.43750        0.43750
 BRILLOUIN|   129           0.00391       -0.18750       -0.43750       -0.43750
 BRILLOUIN|   130           0.00391       -0.18750       -0.43750       -0.31250
 BRILLOUIN|   131           0.00391       -0.18750       -0.43750       -0.18750
 BRILLOUIN|   132           0.00391       -0.18750       -0.43750       -0.06250
 BRILLOUIN|   133           0.00391       -0.18750       -0.43750        0.06250
 BRILLOUIN|   134           0.00391       -0.18750       -0.43750        0.18750
 BRILLOUIN|   135           0.00391       -0.18750       -0.43750        0.31250
 BRILLOUIN|   136           0.00391       -0.18750       -0.43750        0.43750
 BRILLOUIN|   137           0.00391       -0.18750       -0.31250       -0.43750
 BRILLOUIN|   138           0.00391       -0.18750       -0.31250       -0.31250
 BRILLOUIN|   139           0.00391       -0.18750       -0.31250       -0.18750
 BRILLOUIN|   140           0.00391       -0.18750       -0.31250       -0.06250
 BRILLOUIN|   141           0.00391       -0.18750       -0.31250        0.06250
 BRILLOUIN|   142           0.00391       -0.18750       -0.31250        0.18750
 BRILLOUIN|   143           0.00391       -0.18750       -0.31250        0.31250
 BRILLOUIN|   144           0.00391       -0.18750       -0.31250        0.43750
 BRILLOUIN|   145           0.00391       -0.18750       -0.18750       -0.43750
 BRILLOUIN|   146           0.00391       -0.18750       -0.18750       -0.31250
 BRILLOUIN|   147           0.00391       -0.18750       -0.18750       -0.18750
 BRILLOUIN|   148           0.00391       -0.18750       -0.18750       -0.06250
 BRILLOUIN|   149           0.00391       -0.18750       -0.18750        0.06250
 BRILLOUIN|   150           0.00391       -0.18750       -0.18750        0.18750
 BRILLOUIN|   151           0.00391       -0.18750       -0.18750        0.31250
 BRILLOUIN|   152           0.00391       -0.18750       -0.18750        0.43750
 BRILLOUIN|   153           0.00391       -0.18750       -0.06250       -0.43750
 BRILLOUIN|   154           0.00391       -0.18750       -0.06250       -0.31250
 BRILLOUIN|   155           0.00391       -0.18750       -0.06250       -0.18750
 BRILLOUIN|   156           0.00391       -0.18750       -0.06250       -0.06250
 BRILLOUIN|   157           0.00391       -0.18750       -0.06250        0.06250
 BRILLOUIN|   158           0.00391       -0.18750       -0.06250        0.18750
 BRILLOUIN|   159           0.00391       -0.18750       -0.06250        0.31250
 BRILLOUIN|   160           0.00391       -0.18750       -0.06250        0.43750
 BRILLOUIN|   161           0.00391       -0.18750        0.06250       -0.43750
 BRILLOUIN|   162           0.00391       -0.18750        0.06250       -0.31250
 BRILLOUIN|   163           0.00391       -0.18750        0.06250       -0.18750
 BRILLOUIN|   164           0.00391       -0.18750        0.06250       -0.06250
 BRILLOUIN|   165           0.00391       -0.18750        0.06250        0.06250
 BRILLOUIN|   166           0.00391       -0.18750        0.06250        0.18750
 BRILLOUIN|   167           0.00391       -0.18750        0.06250        0.31250
 BRILLOUIN|   168           0.00391       -0.18750        0.06250        0.43750
 BRILLOUIN|   169           0.00391       -0.18750        0.18750       -0.43750
 BRILLOUIN|   170           0.00391       -0.18750        0.18750       -0.31250
 BRILLOUIN|   171           0.00391       -0.18750        0.18750       -0.18750
 BRILLOUIN|   172           0.00391       -0.18750        0.18750       -0.06250
 BRILLOUIN|   173           0.00391       -0.18750        0.18750        0.06250
 BRILLOUIN|   174           0.00391       -0.18750        0.18750        0.18750
 BRILLOUIN|   175           0.00391       -0.18750        0.18750        0.31250
 BRILLOUIN|   176           0.00391       -0.18750        0.18750        0.43750
 BRILLOUIN|   177           0.00391       -0.18750        0.31250       -0.43750
 BRILLOUIN|   178           0.00391       -0.18750        0.31250       -0.31250
 BRILLOUIN|   179           0.00391       -0.18750        0.31250       -0.18750
 BRILLOUIN|   180           0.00391       -0.18750        0.31250       -0.06250
 BRILLOUIN|   181           0.00391       -0.18750        0.31250        0.06250
 BRILLOUIN|   182           0.00391       -0.18750        0.31250        0.18750
 BRILLOUIN|   183           0.00391       -0.18750        0.31250        0.31250
 BRILLOUIN|   184           0.00391       -0.18750        0.31250        0.43750
 BRILLOUIN|   185           0.00391       -0.18750        0.43750       -0.43750
 BRILLOUIN|   186           0.00391       -0.18750        0.43750       -0.31250
 BRILLOUIN|   187           0.00391       -0.18750        0.43750       -0.18750
 BRILLOUIN|   188           0.00391       -0.18750        0.43750       -0.06250
 BRILLOUIN|   189           0.00391       -0.18750        0.43750        0.06250
 BRILLOUIN|   190           0.00391       -0.18750        0.43750        0.18750
 BRILLOUIN|   191           0.00391       -0.18750        0.43750        0.31250
 BRILLOUIN|   192           0.00391       -0.18750        0.43750        0.43750
 BRILLOUIN|   193           0.00391       -0.06250       -0.43750       -0.43750
 BRILLOUIN|   194           0.00391       -0.06250       -0.43750       -0.31250
 BRILLOUIN|   195           0.00391       -0.06250       -0.43750       -0.18750
 BRILLOUIN|   196           0.00391       -0.06250       -0.43750       -0.06250
 BRILLOUIN|   197           0.00391       -0.06250       -0.43750        0.06250
 BRILLOUIN|   198           0.00391       -0.06250       -0.43750        0.18750
 BRILLOUIN|   199           0.00391       -0.06250       -0.43750        0.31250
 BRILLOUIN|   200           0.00391       -0.06250       -0.43750        0.43750
 BRILLOUIN|   201           0.00391       -0.06250       -0.31250       -0.43750
 BRILLOUIN|   202           0.00391       -0.06250       -0.31250       -0.31250
 BRILLOUIN|   203           0.00391       -0.06250       -0.31250       -0.18750
 BRILLOUIN|   204           0.00391       -0.06250       -0.31250       -0.06250
 BRILLOUIN|   205           0.00391       -0.06250       -0.31250        0.06250
 BRILLOUIN|   206           0.00391       -0.06250       -0.31250        0.18750
 BRILLOUIN|   207           0.00391       -0.06250       -0.31250        0.31250
 BRILLOUIN|   208           0.00391       -0.06250       -0.31250        0.43750
 BRILLOUIN|   209           0.00391       -0.06250       -0.18750       -0.43750
 BRILLOUIN|   210           0.00391       -0.06250       -0.18750       -0.31250
 BRILLOUIN|   211           0.00391       -0.06250       -0.18750       -0.18750
 BRILLOUIN|   212           0.00391       -0.06250       -0.18750       -0.06250
 BRILLOUIN|   213           0.00391       -0.06250       -0.18750        0.06250
 BRILLOUIN|   214           0.00391       -0.06250       -0.18750        0.18750
 BRILLOUIN|   215           0.00391       -0.06250       -0.18750        0.31250
 BRILLOUIN|   216           0.00391       -0.06250       -0.18750        0.43750
 BRILLOUIN|   217           0.00391       -0.06250       -0.06250       -0.43750
 BRILLOUIN|   218           0.00391       -0.06250       -0.06250       -0.31250
 BRILLOUIN|   219           0.00391       -0.06250       -0.06250       -0.18750
 BRILLOUIN|   220           0.00391       -0.06250       -0.06250       -0.06250
 BRILLOUIN|   221           0.00391       -0.06250       -0.06250        0.06250
 BRILLOUIN|   222           0.00391       -0.06250       -0.06250        0.18750
 BRILLOUIN|   223           0.00391       -0.06250       -0.06250        0.31250
 BRILLOUIN|   224           0.00391       -0.06250       -0.06250        0.43750
 BRILLOUIN|   225           0.00391       -0.06250        0.06250       -0.43750
 BRILLOUIN|   226           0.00391       -0.06250        0.06250       -0.31250
 BRILLOUIN|   227           0.00391       -0.06250        0.06250       -0.18750
 BRILLOUIN|   228           0.00391       -0.06250        0.06250       -0.06250
 BRILLOUIN|   229           0.00391       -0.06250        0.06250        0.06250
 BRILLOUIN|   230           0.00391       -0.06250        0.06250        0.18750
 BRILLOUIN|   231           0.00391       -0.06250        0.06250        0.31250
 BRILLOUIN|   232           0.00391       -0.06250        0.06250        0.43750
 BRILLOUIN|   233           0.00391       -0.06250        0.18750       -0.43750
 BRILLOUIN|   234           0.00391       -0.06250        0.18750       -0.31250
 BRILLOUIN|   235           0.00391       -0.06250        0.18750       -0.18750
 BRILLOUIN|   236           0.00391       -0.06250        0.18750       -0.06250
 BRILLOUIN|   237           0.00391       -0.06250        0.18750        0.06250
 BRILLOUIN|   238           0.00391       -0.06250        0.18750        0.18750
 BRILLOUIN|   239           0.00391       -0.06250        0.18750        0.31250
 BRILLOUIN|   240           0.00391       -0.06250        0.18750        0.43750
 BRILLOUIN|   241           0.00391       -0.06250        0.31250       -0.43750
 BRILLOUIN|   242           0.00391       -0.06250        0.31250       -0.31250
 BRILLOUIN|   243           0.00391       -0.06250        0.31250       -0.18750
 BRILLOUIN|   244           0.00391       -0.06250        0.31250       -0.06250
 BRILLOUIN|   245           0.00391       -0.06250        0.31250        0.06250
 BRILLOUIN|   246           0.00391       -0.06250        0.31250        0.18750
 BRILLOUIN|   247           0.00391       -0.06250        0.31250        0.31250
 BRILLOUIN|   248           0.00391       -0.06250        0.31250        0.43750
 BRILLOUIN|   249           0.00391       -0.06250        0.43750       -0.43750
 BRILLOUIN|   250           0.00391       -0.06250        0.43750       -0.31250
 BRILLOUIN|   251           0.00391       -0.06250        0.43750       -0.18750
 BRILLOUIN|   252           0.00391       -0.06250        0.43750       -0.06250
 BRILLOUIN|   253           0.00391       -0.06250        0.43750        0.06250
 BRILLOUIN|   254           0.00391       -0.06250        0.43750        0.18750
 BRILLOUIN|   255           0.00391       -0.06250        0.43750        0.31250
 BRILLOUIN|   256           0.00391       -0.06250        0.43750        0.43750
 *******************************************************************************

 *******************************************************************************
 *******************************************************************************
 **                                                                           **
 **     #####                         ##              ##                      **
 **    ##   ##            ##          ##              ##                      **
 **   ##     ##                       ##            ######                    **
 **   ##     ##  ##   ##  ##   #####  ##  ##   ####   ##    #####    #####    **
 **   ##     ##  ##   ##  ##  ##      ## ##   ##      ##   ##   ##  ##   ##   **
 **   ##  ## ##  ##   ##  ##  ##      ####     ###    ##   ######   ######    **
 **    ##  ###   ##   ##  ##  ##      ## ##      ##   ##   ##       ##        **
 **     #######   #####   ##   #####  ##  ##  ####    ##    #####   ##        **
 **           ##                                                    ##        **
 **                                                                           **
 **                                                ... make the atoms dance   **
 **                                                                           **
 **            Copyright (C) by CP2K developers group (2000-2025)             **
 **                      J. Chem. Phys. 152, 194103 (2020)                    **
 **                                                                           **
 *******************************************************************************

 DFT| Spin restricted Kohn-Sham (RKS) calculation                            RKS
 DFT| Multiplicity                                                             1
 DFT| Number of spin states                                                    1
 DFT| Charge                                                                   0
 DFT| Self-interaction correction (SIC)                                       NO
 DFT| Cutoffs: density                                              1.000000E-10
 DFT|          gradient                                             1.000000E-10
 DFT|          tau                                                  1.000000E-10
 DFT|          cutoff_smoothing_range                               0.000000E+00
 DFT| XC density smoothing                                                  NONE
 DFT| XC derivatives                                                          PW

 FUNCTIONAL| PBE:
 FUNCTIONAL| J.P.Perdew, K.Burke, M.Ernzerhof, Phys. Rev. Letter, vol. 77, n 18,
 FUNCTIONAL|  pp. 3865-3868, (1996) {spin unpolarized}                          


 QS| Method:                                                                 GPW
 QS| Density plane wave grid type                        NON-SPHERICAL FULLSPACE
 QS| Number of grid levels:                                                    4
 QS| Density cutoff [a.u.]:                                                500.0
 QS| Multi grid cutoff [a.u.]: 1) grid level                               500.0
 QS|                           2) grid level                               166.7
 QS|                           3) grid level                                55.6
 QS|                           4) grid level                                18.5
 QS| Grid level progression factor:                                          3.0
 QS| Relative density cutoff [a.u.]:                                        50.0
 QS| Interaction thresholds: eps_pgf_orb:                                1.0E-16
 QS|                         eps_filter_matrix:                          0.0E+00
 QS|                         eps_core_charge:                            1.0E-18
 QS|                         eps_rho_gspace:                             1.0E-16
 QS|                         eps_rho_rspace:                             1.0E-16
 QS|                         eps_gvg_rspace:                             1.0E-08
 QS|                         eps_ppl:                                    1.0E-02
 QS|                         eps_ppnl:                                   1.0E-10


 ATOMIC KIND INFORMATION

  1. Atomic kind: Sc                                    Number of atoms:       2

     Orbital Basis Set                                   TZVP-MOLOPT-GGA-GTH-q11

       Number of orbital shell sets:                                           1
       Number of orbital shells:                                              11
       Number of primitive Cartesian functions:                                6
       Number of Cartesian basis functions:                                   41
       Number of spherical basis functions:                                   35
       Norm type:                                                              2

       Normalised Cartesian orbitals:

                        Set   Shell   Orbital            Exponent    Coefficient

                          1       1    2s                7.686171       0.020865
                                                         3.411668       0.608056
                                                         1.388441      -0.340352
                                                         0.538107      -0.101142
                                                         0.184895      -0.071822
                                                         0.050983      -0.032803

                          1       2    3s                7.686171      -0.002528
                                                         3.411668       0.389931
                                                         1.388441       0.083079
                                                         0.538107       0.463764
                                                         0.184895      -0.461559
                                                         0.050983       0.111764

                          1       3    4s                7.686171      -0.024076
                                                         3.411668      -0.542105
                                                         1.388441       0.398809
                                                         0.538107       0.341982
                                                         0.184895      -0.041768
                                                         0.050983      -0.064991

                          1       4    5s                7.686171       0.240832
                                                         3.411668       0.863749
                                                         1.388441      -0.346540
                                                         0.538107       0.273034
                                                         0.184895       0.073017
                                                         0.050983       0.006932

                          1       5    3px               7.686171      -1.559238
                                                         3.411668       0.375672
                                                         1.388441       0.944117
                                                         0.538107       0.274613
                                                         0.184895       0.034705
                                                         0.050983       0.005872
                          1       5    3py               7.686171      -1.559238
                                                         3.411668       0.375672
                                                         1.388441       0.944117
                                                         0.538107       0.274613
                                                         0.184895       0.034705
                                                         0.050983       0.005872
                          1       5    3pz               7.686171      -1.559238
                                                         3.411668       0.375672
                                                         1.388441       0.944117
                                                         0.538107       0.274613
                                                         0.184895       0.034705
                                                         0.050983       0.005872

                          1       6    4px               7.686171       0.614479
                                                         3.411668      -0.194511
                                                         1.388441      -0.483590
                                                         0.538107      -0.179625
                                                         0.184895       0.084374
                                                         0.050983       0.024315
                          1       6    4py               7.686171       0.614479
                                                         3.411668      -0.194511
                                                         1.388441      -0.483590
                                                         0.538107      -0.179625
                                                         0.184895       0.084374
                                                         0.050983       0.024315
                          1       6    4pz               7.686171       0.614479
                                                         3.411668      -0.194511
                                                         1.388441      -0.483590
                                                         0.538107      -0.179625
                                                         0.184895       0.084374
                                                         0.050983       0.024315

                          1       7    5px               7.686171       0.373389
                                                         3.411668      -0.238734
                                                         1.388441       0.932491
                                                         0.538107      -0.151149
                                                         0.184895      -0.205824
                                                         0.050983       0.030136
                          1       7    5py               7.686171       0.373389
                                                         3.411668      -0.238734
                                                         1.388441       0.932491
                                                         0.538107      -0.151149
                                                         0.184895      -0.205824
                                                         0.050983       0.030136
                          1       7    5pz               7.686171       0.373389
                                                         3.411668      -0.238734
                                                         1.388441       0.932491
                                                         0.538107      -0.151149
                                                         0.184895      -0.205824
                                                         0.050983       0.030136

                          1       8    4dx2              7.686171       3.015589
                                                         3.411668       2.553884
                                                         1.388441       0.911495
                                                         0.538107       0.244174
                                                         0.184895       0.027442
                                                         0.050983       0.000189
                          1       8    4dxy              7.686171       5.223153
                                                         3.411668       4.423456
                                                         1.388441       1.578756
                                                         0.538107       0.422922
                                                         0.184895       0.047530
                                                         0.050983       0.000327
                          1       8    4dxz              7.686171       5.223153
                                                         3.411668       4.423456
                                                         1.388441       1.578756
                                                         0.538107       0.422922
                                                         0.184895       0.047530
                                                         0.050983       0.000327
                          1       8    4dy2              7.686171       3.015589
                                                         3.411668       2.553884
                                                         1.388441       0.911495
                                                         0.538107       0.244174
                                                         0.184895       0.027442
                                                         0.050983       0.000189
                          1       8    4dyz              7.686171       5.223153
                                                         3.411668       4.423456
                                                         1.388441       1.578756
                                                         0.538107       0.422922
                                                         0.184895       0.047530
                                                         0.050983       0.000327
                          1       8    4dz2              7.686171       3.015589
                                                         3.411668       2.553884
                                                         1.388441       0.911495
                                                         0.538107       0.244174
                                                         0.184895       0.027442
                                                         0.050983       0.000189

                          1       9    5dx2              7.686171      -1.408487
                                                         3.411668      -1.136336
                                                         1.388441      -0.392878
                                                         0.538107      -0.149130
                                                         0.184895       0.043183
                                                         0.050983       0.006197
                          1       9    5dxy              7.686171      -2.439571
                                                         3.411668      -1.968192
                                                         1.388441      -0.680484
                                                         0.538107      -0.258301
                                                         0.184895       0.074796
                                                         0.050983       0.010734
                          1       9    5dxz              7.686171      -2.439571
                                                         3.411668      -1.968192
                                                         1.388441      -0.680484
                                                         0.538107      -0.258301
                                                         0.184895       0.074796
                                                         0.050983       0.010734
                          1       9    5dy2              7.686171      -1.408487
                                                         3.411668      -1.136336
                                                         1.388441      -0.392878
                                                         0.538107      -0.149130
                                                         0.184895       0.043183
                                                         0.050983       0.006197
                          1       9    5dyz              7.686171      -2.439571
                                                         3.411668      -1.968192
                                                         1.388441      -0.680484
                                                         0.538107      -0.258301
                                                         0.184895       0.074796
                                                         0.050983       0.010734
                          1       9    5dz2              7.686171      -1.408487
                                                         3.411668      -1.136336
                                                         1.388441      -0.392878
                                                         0.538107      -0.149130
                                                         0.184895       0.043183
                                                         0.050983       0.006197

                          1      10    6dx2              7.686171       3.391456
                                                         3.411668       3.447402
                                                         1.388441       1.498123
                                                         0.538107       0.049742
                                                         0.184895      -0.070403
                                                         0.050983       0.006891
                          1      10    6dxy              7.686171       5.874174
                                                         3.411668       5.971076
                                                         1.388441       2.594824
                                                         0.538107       0.086156
                                                         0.184895      -0.121942
                                                         0.050983       0.011936
                          1      10    6dxz              7.686171       5.874174
                                                         3.411668       5.971076
                                                         1.388441       2.594824
                                                         0.538107       0.086156
                                                         0.184895      -0.121942
                                                         0.050983       0.011936
                          1      10    6dy2              7.686171       3.391456
                                                         3.411668       3.447402
                                                         1.388441       1.498123
                                                         0.538107       0.049742
                                                         0.184895      -0.070403
                                                         0.050983       0.006891
                          1      10    6dyz              7.686171       5.874174
                                                         3.411668       5.971076
                                                         1.388441       2.594824
                                                         0.538107       0.086156
                                                         0.184895      -0.121942
                                                         0.050983       0.011936
                          1      10    6dz2              7.686171       3.391456
                                                         3.411668       3.447402
                                                         1.388441       1.498123
                                                         0.538107       0.049742
                                                         0.184895      -0.070403
                                                         0.050983       0.006891

                          1      11    5fx3              7.686171       0.432331
                                                         3.411668      -0.291957
                                                         1.388441      -0.193944
                                                         0.538107      -0.171131
                                                         0.184895      -0.019467
                                                         0.050983      -0.000211
                          1      11    5fx2y             7.686171       0.966721
                                                         3.411668      -0.652835
                                                         1.388441      -0.433672
                                                         0.538107      -0.382661
                                                         0.184895      -0.043530
                                                         0.050983      -0.000473
                          1      11    5fx2z             7.686171       0.966721
                                                         3.411668      -0.652835
                                                         1.388441      -0.433672
                                                         0.538107      -0.382661
                                                         0.184895      -0.043530
                                                         0.050983      -0.000473
                          1      11    5fxy2             7.686171       0.966721
                                                         3.411668      -0.652835
                                                         1.388441      -0.433672
                                                         0.538107      -0.382661
                                                         0.184895      -0.043530
                                                         0.050983      -0.000473
                          1      11    5fxyz             7.686171       1.674411
                                                         3.411668      -1.130743
                                                         1.388441      -0.751143
                                                         0.538107      -0.662788
                                                         0.184895      -0.075395
                                                         0.050983      -0.000819
                          1      11    5fxz2             7.686171       0.966721
                                                         3.411668      -0.652835
                                                         1.388441      -0.433672
                                                         0.538107      -0.382661
                                                         0.184895      -0.043530
                                                         0.050983      -0.000473
                          1      11    5fy3              7.686171       0.432331
                                                         3.411668      -0.291957
                                                         1.388441      -0.193944
                                                         0.538107      -0.171131
                                                         0.184895      -0.019467
                                                         0.050983      -0.000211
                          1      11    5fy2z             7.686171       0.966721
                                                         3.411668      -0.652835
                                                         1.388441      -0.433672
                                                         0.538107      -0.382661
                                                         0.184895      -0.043530
                                                         0.050983      -0.000473
                          1      11    5fyz2             7.686171       0.966721
                                                         3.411668      -0.652835
                                                         1.388441      -0.433672
                                                         0.538107      -0.382661
                                                         0.184895      -0.043530
                                                         0.050983      -0.000473
                          1      11    5fz3              7.686171       0.432331
                                                         3.411668      -0.291957
                                                         1.388441      -0.193944
                                                         0.538107      -0.171131
                                                         0.184895      -0.019467
                                                         0.050983      -0.000211

       Atomic covalent radius [Angstrom]:                                  1.440

       Atomic van der Waals radius [Angstrom]:                             2.110

     GTH Potential information for                                   GTH-PBE-q11

       Description:                       Goedecker-Teter-Hutter pseudopotential
                                           Goedecker et al., PRB 54, 1703 (1996)
                                          Hartwigsen et al., PRB 58, 3641 (1998)
                                                      Krack, TCA 114, 145 (2005)

       Gaussian exponent of the core charge distribution:               3.373250
       Electronic configuration (s p d ...):                           4   6   1

       Parameters of the local part of the GTH pseudopotential:

                          rloc        C1          C2          C3          C4
                        0.385000    8.214900   -0.557059

       Parameters of the non-local part of the GTH (SOC) pseudopotential:

                   l      r(l)      h(i,j,l)
                                    k(i,j,l)
                   0    0.363611    2.646533    3.021084
                                    3.021084   -3.900203
                   1    0.243898   -2.634823    7.992137
                                    7.992137   -9.456424
                                    0.201966   -0.057993
                                   -0.057993    0.068619
                   2    0.253206   -8.165948
                                    0.004801


 MOLECULE KIND INFORMATION


 All atoms are their own molecule, skipping detailed information


 TOTAL NUMBERS AND MAXIMUM NUMBERS

  Total number of            - Atomic kinds:                                   1
                             - Atoms:                                          2
                             - Shell sets:                                     2
                             - Shells:                                        22
                             - Primitive Cartesian functions:                 12
                             - Cartesian basis functions:                     82
                             - Spherical basis functions:                     70

  Maximum angular momentum of- Orbital basis functions:                        3
                             - Local part of the GTH pseudopotential:          2
                             - Non-local part of the GTH pseudopotential:      3


 MODULE QUICKSTEP: ATOMIC COORDINATES IN ANGSTROM

   Atom Kind Element         X             Y             Z       Z(eff)     Mass
      1    1 Sc   21      0.000000      0.000000      0.000000  11.0000  44.9559
      2    1 Sc   21      1.660708      0.958810      2.580960  11.0000  44.9559



 SCF PARAMETERS         Density guess:                                    ATOMIC
                        --------------------------------------------------------
                        max_scf:                                             500
                        max_scf_history:                                       0
                        max_diis:                                              4
                        --------------------------------------------------------
                        eps_scf:                                        1.00E-09
                        eps_scf_history:                                0.00E+00
                        eps_diis:                                       1.00E-01
                        eps_eigval:                                     1.00E-05
                        --------------------------------------------------------
                        level_shift [a.u.]:                             0.000000
                        added MOs                                        59    0
                        --------------------------------------------------------
                        Mixing method:                            BROYDEN_MIXING
                                                charge density mixing in g-space
                        --------------------------------------------------------
                        Smear method:                                FERMI_DIRAC
                        Electronic temperature [K]:                        300.0
                        Electronic temperature [a.u.]:                  9.50E-04
                        Accuracy threshold:                             1.00E-10
                        --------------------------------------------------------
                        No outer SCF

 PW_GRID| Information for grid number                                          1
 PW_GRID| Grid distributed over                                     8 processors
 PW_GRID| Real space group dimensions                                     8    1
 PW_GRID| the grid is blocked:                                                NO
 PW_GRID| Cutoff [a.u.]                                                    500.0
 PW_GRID| spherical cutoff:                                                   NO
 PW_GRID|   Bounds   1            -32      31                Points:          64
 PW_GRID|   Bounds   2            -32      31                Points:          64
 PW_GRID|   Bounds   3            -50      49                Points:         100
 PW_GRID| Volume element (a.u.^3)  0.8125E-03     Volume (a.u.^3)       332.8081
 PW_GRID| Grid span                                                    FULLSPACE
 PW_GRID|   Distribution                         Average         Max         Min
 PW_GRID|   G-Vectors                            51200.0       51200       51200
 PW_GRID|   G-Rays                                 800.0         800         800
 PW_GRID|   Real Space Points                    51200.0       51200       51200

 PW_GRID| Information for grid number                                          2
 PW_GRID| Number of the reference grid                                         1
 PW_GRID| Grid distributed over                                     8 processors
 PW_GRID| Real space group dimensions                                     8    1
 PW_GRID| the grid is blocked:                                                NO
 PW_GRID| Cutoff [a.u.]                                                    166.7
 PW_GRID| spherical cutoff:                                                   NO
 PW_GRID|   Bounds   1            -20      19                Points:          40
 PW_GRID|   Bounds   2            -20      19                Points:          40
 PW_GRID|   Bounds   3            -30      29                Points:          60
 PW_GRID| Volume element (a.u.^3)  0.3467E-02     Volume (a.u.^3)       332.8081
 PW_GRID| Grid span                                                    FULLSPACE
 PW_GRID|   Distribution                         Average         Max         Min
 PW_GRID|   G-Vectors                            12000.0       12120       11880
 PW_GRID|   G-Rays                                 300.0         303         297
 PW_GRID|   Real Space Points                    12000.0       12000       12000

 PW_GRID| Information for grid number                                          3
 PW_GRID| Number of the reference grid                                         1
 PW_GRID| Grid distributed over                                     8 processors
 PW_GRID| Real space group dimensions                                     8    1
 PW_GRID| the grid is blocked:                                                NO
 PW_GRID| Cutoff [a.u.]                                                     55.6
 PW_GRID| spherical cutoff:                                                   NO
 PW_GRID|   Bounds   1            -12      11                Points:          24
 PW_GRID|   Bounds   2            -12      11                Points:          24
 PW_GRID|   Bounds   3            -18      17                Points:          36
 PW_GRID| Volume element (a.u.^3)  0.1605E-01     Volume (a.u.^3)       332.8081
 PW_GRID| Grid span                                                    FULLSPACE
 PW_GRID|   Distribution                         Average         Max         Min
 PW_GRID|   G-Vectors                             2592.0        2640        2520
 PW_GRID|   G-Rays                                 108.0         110         105
 PW_GRID|   Real Space Points                     2592.0        2592        2592

 PW_GRID| Information for grid number                                          4
 PW_GRID| Number of the reference grid                                         1
 PW_GRID| Grid distributed over                                     8 processors
 PW_GRID| Real space group dimensions                                     8    1
 PW_GRID| the grid is blocked:                                                NO
 PW_GRID| Cutoff [a.u.]                                                     18.5
 PW_GRID| spherical cutoff:                                                   NO
 PW_GRID|   Bounds   1             -7       7                Points:          15
 PW_GRID|   Bounds   2             -7       7                Points:          15
 PW_GRID|   Bounds   3            -10       9                Points:          20
 PW_GRID| Volume element (a.u.^3)  0.7396E-01     Volume (a.u.^3)       332.8081
 PW_GRID| Grid span                                                    FULLSPACE
 PW_GRID|   Distribution                         Average         Max         Min
 PW_GRID|   G-Vectors                              562.5         585         555
 PW_GRID|   G-Rays                                  37.5          39          37
 PW_GRID|   Real Space Points                      562.5         600         300

 POISSON| Solver                                                        PERIODIC
 POISSON| Periodicity                                                        XYZ

 RS_GRID| Information for grid number                                          1
 RS_GRID|   Bounds   1            -32      31                Points:          64
 RS_GRID|   Bounds   2            -32      31                Points:          64
 RS_GRID|   Bounds   3            -50      49                Points:         100
 RS_GRID| Real space fully replicated
 RS_GRID| Group size                                                           1

 RS_GRID| Information for grid number                                          2
 RS_GRID|   Bounds   1            -20      19                Points:          40
 RS_GRID|   Bounds   2            -20      19                Points:          40
 RS_GRID|   Bounds   3            -30      29                Points:          60
 RS_GRID| Real space fully replicated
 RS_GRID| Group size                                                           1

 RS_GRID| Information for grid number                                          3
 RS_GRID|   Bounds   1            -12      11                Points:          24
 RS_GRID|   Bounds   2            -12      11                Points:          24
 RS_GRID|   Bounds   3            -18      17                Points:          36
 RS_GRID| Real space fully replicated
 RS_GRID| Group size                                                           1

 RS_GRID| Information for grid number                                          4
 RS_GRID|   Bounds   1             -7       7                Points:          15
 RS_GRID|   Bounds   2             -7       7                Points:          15
 RS_GRID|   Bounds   3            -10       9                Points:          20
 RS_GRID| Real space fully replicated
 RS_GRID| Group size                                                           1

 Number of electrons:                                                         22
 Number of occupied orbitals:                                                 11
 Number of molecular orbitals:                                                70

 Number of orbital functions:                                                 70
 Number of independent orbital functions:                                     70

 Extrapolation method: initial_guess

 Atomic guess: The first density matrix is obtained in terms of atomic orbitals
               and electronic configurations assigned to each atomic kind

 Guess for atomic kind: Sc

 Electronic structure
    Total number of core electrons                                         10.00
    Total number of valence electrons                                      11.00
    Total number of electrons                                              21.00
    Multiplicity                                                   not specified
    S   [  2.00  2.00] 2.00  2.00
    P   [  6.00] 6.00
    D      1.00


 *******************************************************************************
                  Iteration          Convergence                     Energy [au]
 *******************************************************************************
                          1         1.30941                     -45.982328189590
                          2        0.770163                     -46.113673754187
                          3        0.651007E-01                 -46.276633944465
                          4        0.494996E-02                 -46.277884989034
                          5        0.113450E-03                 -46.277895875178
                          6        0.127375E-05                 -46.277895877411
                          7        0.254301E-05                 -46.277895877410
                          8        0.193562E-05                 -46.277895877411
                          9        0.634249E-08                 -46.277895877412

 Energy components [Hartree]           Total Energy ::          -46.277895877412
                                        Band Energy ::          -11.676963341063
                                     Kinetic Energy ::           18.542370248673
                                   Potential Energy ::          -64.820266126085
                                      Virial (-V/T) ::            3.495791813925
                                        Core Energy ::          -76.879602685116
                                          XC Energy ::           -5.810250329210
                                     Coulomb Energy ::           36.411957136914
                       Total Pseudopotential Energy ::          -95.495916482048
                       Local Pseudopotential Energy ::          -94.456115449407
                    Nonlocal Pseudopotential Energy ::           -1.039801032641
                                        Confinement ::            0.739435482588

 Orbital energies  State     L     Occupation   Energy[a.u.]          Energy[eV]

                       1     0          2.000      -2.044679          -55.638534
                       2     0          2.000      -0.127749           -3.476216

                       1     1          6.000      -1.205257          -32.796700

                       1     2          1.000      -0.100569           -2.736631


 Total Electron Density at R=0:                                         0.002630
 Re-scaling the density matrix to get the right number of electrons
                  # Electrons              Trace(P)               Scaling factor
                           22                22.000                        1.000


 SCF WAVEFUNCTION OPTIMIZATION

  Step     Update method      Time    Convergence         Total energy    Change
  ------------------------------------------------------------------------------
     1 NoMix/Diag. 0.10E+00   17.7     2.17011090       -93.8620743046 -9.39E+01
     2 Broy./Diag. 0.10E+00   18.7     0.00357659       -93.9624779356 -1.00E-01
     3 Broy./Diag. 0.10E+00   18.7     0.04216259       -93.6099029613  3.53E-01
     4 Broy./Diag. 0.10E+00   18.7     0.00638176       -93.1820268306  4.28E-01
     5 Broy./Diag. 0.10E+00   18.9     0.01811063       -93.3034921240 -1.21E-01
     6 Broy./Diag. 0.10E+00   18.8     0.00064163       -93.3344173153 -3.09E-02
     7 Broy./Diag. 0.10E+00   18.7     0.00126891       -93.3419734539 -7.56E-03
     8 Broy./Diag. 0.10E+00   18.7     0.00012404       -93.3426194935 -6.46E-04
     9 Broy./Diag. 0.10E+00   18.7     0.00017373       -93.3421056979  5.14E-04
    10 Broy./Diag. 0.10E+00   18.7     0.00001393       -93.3421087417 -3.04E-06
    11 Broy./Diag. 0.10E+00   18.8     0.00002159       -93.3423465046 -2.38E-04
    12 Broy./Diag. 0.10E+00   18.7     0.00000484       -93.3423398611  6.64E-06
    13 Broy./Diag. 0.10E+00   18.8     0.00000887       -93.3423696335 -2.98E-05
    14 Broy./Diag. 0.10E+00   18.8     0.00000040       -93.3423629335  6.70E-06
    15 Broy./Diag. 0.10E+00   18.7     0.00000286       -93.3423685791 -5.65E-06
    16 Broy./Diag. 0.10E+00   18.7     0.00000008       -93.3423677840  7.95E-07
    17 Broy./Diag. 0.10E+00   18.7     0.00000019       -93.3423655456  2.24E-06
    18 Broy./Diag. 0.10E+00   18.8     0.00000003       -93.3423653416  2.04E-07
    19 Broy./Diag. 0.10E+00   18.9     0.00000008       -93.3423649758  3.66E-07
    20 Broy./Diag. 0.10E+00   18.9     0.00000001       -93.3423651899 -2.14E-07
    21 Broy./Diag. 0.10E+00   18.9     0.00000002       -93.3423654304 -2.41E-07
    22 Broy./Diag. 0.10E+00   18.9     0.00000001       -93.3423653807  4.96E-08
    23 Broy./Diag. 0.10E+00   19.0     1.9277E-09       -93.3423652357  1.45E-07
    24 Broy./Diag. 0.10E+00   18.9     8.7835E-09       -93.3423652958 -6.01E-08
    25 Broy./Diag. 0.10E+00   18.9     8.6138E-10       -93.3423653441 -4.83E-08

  *** SCF run converged in    25 steps ***


  Electronic density on regular grids:        -22.0000000000        0.0000000000
  Core density on regular grids:               22.0000000000        0.0000000000
  Total charge density on r-space grids:        0.0000000000
  Total charge density g-space grids:           0.0000000000

  Overlap energy of the core charge distribution:               0.00000000000000
  Self energy of the core charge distribution:               -177.31672625786629
  Core Hamiltonian energy:                                     43.39170031511295
  Hartree energy:                                              52.87739754140706
  Exchange-correlation energy:                                -12.29442142960753
  Electronic entropic energy:                                  -0.00031551311936
  Fermi energy:                                                 0.27935367128410

  Total energy:                                               -93.34236534407316

 !-----------------------------------------------------------------------------!
                     Mulliken Population Analysis

 #  Atom  Element  Kind  Atomic population                           Net charge
       1     Sc       1         11.000000                              0.000000
       2     Sc       1         11.000000                             -0.000000
 # Total charge                             22.000000                 -0.000000

 !-----------------------------------------------------------------------------!

 !-----------------------------------------------------------------------------!
                           Hirshfeld Charges

  #Atom  Element  Kind  Ref Charge     Population                    Net charge
      1       Sc     1      11.000         11.000                        -0.000
      2       Sc     1      11.000         11.000                         0.000

  Total Charge                                                           -0.000
 !-----------------------------------------------------------------------------!

 KPOINTS| Band Structure Calculation
 KPOINTS| Number of k-point sets                                               1
 KPOINTS| Number of added MOs/bands                                           -1
 KPOINTS| Number of k-points in set    1                                     148
 KPOINTS| In units of b-vector [2pi/Bohr]
 KPOINTS| Special point     1 not specifi     0.000000     0.000000     0.000000
 KPOINTS| Special point     2 not specifi     0.500000     0.000000     0.000000
 KPOINTS| Special point     3 not specifi     0.333333     0.333333     0.000000
 KPOINTS| Special point     4 not specifi     0.000000     0.000000     0.000000
 KPOINTS| Time for k-point line                                            6.897

 ENERGY| Total FORCE_EVAL ( QS ) energy [hartree]            -93.342365344073158

 -------------------------------------------------------------------------------
 -                                                                             -
 -                                DBCSR STATISTICS                             -
 -                                                                             -
 -------------------------------------------------------------------------------
 COUNTER                                    TOTAL       BLAS       SMM       ACC
 flops inhomo. stacks                           0       0.0%      0.0%      0.0%
 flops total                         0.000000E+00       0.0%      0.0%      0.0%
 flops max/rank                      0.000000E+00       0.0%      0.0%      0.0%
 matmuls inhomo. stacks                         0       0.0%      0.0%      0.0%
 matmuls total                                  0       0.0%      0.0%      0.0%
 number of processed stacks                     0       0.0%      0.0%      0.0%
 average stack size                                     0.0       0.0       0.0
 marketing flops                     0.000000E+00
 -------------------------------------------------------------------------------
 -                                                                             -
 -                      DBCSR MESSAGE PASSING PERFORMANCE                      -
 -                                                                             -
 -------------------------------------------------------------------------------
 ROUTINE             CALLS      AVE VOLUME [Bytes]
 MP_Bcast                1                     12.
 MP_Allreduce           19                     21.
 MP_Alltoall        592536                   7803.
 -------------------------------------------------------------------------------

 -------------------------------------------------------------------------------
 -                                                                             -
 -                                DBM STATISTICS                               -
 -                                                                             -
 -------------------------------------------------------------------------------
    M  x    N  x    K                                          COUNT     PERCENT
 -------------------------------------------------------------------------------

 -------------------------------------------------------------------------------
 -                                                                             -
 -                                GRID STATISTICS                              -
 -                                                                             -
 -------------------------------------------------------------------------------
 LP    KERNEL             BACKEND                              COUNT     PERCENT
 6     collocate general  CPU                                 496600      50.98%
 6     integrate general  CPU                                 477500      49.02%
 0     collocate general  CPU                                      4       0.00%
 0     integrate general  CPU                                      2       0.00%
 -------------------------------------------------------------------------------

 MEMORY| Estimated peak process memory [MiB]                                 730

 -------------------------------------------------------------------------------
 ----                             MULTIGRID INFO                            ----
 -------------------------------------------------------------------------------
 count for grid        1:          83874          cutoff [a.u.]          500.00
 count for grid        2:          31134          cutoff [a.u.]          166.67
 count for grid        3:          24752          cutoff [a.u.]           55.56
 count for grid        4:          30070          cutoff [a.u.]           18.52
 total gridlevel count  :         169830

 -------------------------------------------------------------------------------
 -                                                                             -
 -                         MESSAGE PASSING PERFORMANCE                         -
 -                                                                             -
 -------------------------------------------------------------------------------

 ROUTINE             CALLS      AVE VOLUME [Bytes]
 MP_Group                6
 MP_Bcast           235048                  18433.
 MP_Allreduce       181281                     30.
 MP_Sync                 4
 MP_Alltoall           455                2284375.
 MP_SendRecv           742                 138007.
 MP_ISendRecv          707                 135525.
 MP_Wait            161623
 MP_comm_split           4
 MP_ISend           171404                   1170.
 MP_IRecv           273536                    721.
 -------------------------------------------------------------------------------


 -------------------------------------------------------------------------------
 -                                                                             -
 -                           R E F E R E N C E S                               -
 -                                                                             -
 -------------------------------------------------------------------------------
 
 CP2K version 2025.1 (Development Version), the CP2K developers group (2025).
 CP2K is freely available from https://www.cp2k.org/ .
 
 T. D. Kuehne, M. Iannuzzi, M. Del Ben, V. V. Rybkin, P. Seewald, F. Stein, T. 
 Laino, R. Z. Khaliullin, O. Schuett, F. Schiffmann, D. Golze, J. Wilhelm, S. 
 Chulkov, M. H. Bani-Hashemian, V. Weber, U. Borstnik, M. Taillefumier, A. S. 
 Jakobovits, A. Lazzaro, H. Pabst, T. Mueller, R. Schade, M. Guidon, S. 
 Andermatt, N. Holmberg, G. K. Schenter, A. Hehn, A. Bussy, F. Belleflamme, G. 
 Tabacchi, A. Gloess, M. Lass, I. Bethune, C. J. Mundy, C. Plessl, M. Watkins, 
 J. VandeVondele, M. Krack, J. Hutter.
 J. Chem. Phys. 152, 194103 (2020).
 CP2K: An electronic structure and molecular dynamics software package - 
 Quickstep: Efficient and accurate electronic structure calculations.
 https://doi.org/10.1063/5.0007045

 O. Schuett, P. Messmer, J. Hutter, J. VandeVondele.
 Electronic Structure Calculations on Graphics Processing Units, 173-190 (2016).
 GPU-Accelerated Sparse Matrix-Matrix Multiplication for Linear Scaling Density 
 Functional Theory.
 https://doi.org/10.1002/9781118670712.ch8

 J. Hutter, M. Iannuzzi, F. Schiffmann, J. VandeVondele.
 WIREs Comput Mol Sci. 4, 15-25 (2014).
 CP2K: atomistic simulations of condensed matter systems.
 https://doi.org/10.1002/wcms.1159

 U. Borstnik, J. VandeVondele, V. Weber, J. Hutter.
 Parallel Comput. 40, 47-58 (2014).
 Sparse matrix multiplication: The distributed block-compressed sparse row 
 library.
 https://doi.org/10.1016/j.parco.2014.03.012

 J. VandeVondele, J. Hutter.
 J. Chem. Phys. 127, 114105 (2007).
 Gaussian basis sets for accurate calculations on molecular systems in gas and 
 condensed phases.
 https://doi.org/10.1063/1.2770708

 J. VandeVondele, M. Krack, F. Mohamed, M. Parrinello, T. Chassaing, J. Hutter.
 Comput. Phys. Commun. 167, 103-128 (2005).
 QUICKSTEP: Fast and accurate density functional calculations using a mixed 
 Gaussian and plane waves approach.
 https://doi.org/10.1016/j.cpc.2004.12.014

 M. Krack.
 Theor. Chem. Acc. 114, 145-152 (2005).
 Pseudopotentials for H to Kr optimized for gradient-corrected 
 exchange-correlation functionals.
 https://doi.org/10.1007/s00214-005-0655-y

 M. Frigo, S. G. Johnson.
 Proc. IEEE 93, 216-231 (2005).
 The design and implementation of FFTW3.
 https://doi.org/10.1109/JPROC.2004.840301

 C. Hartwigsen, S. Goedecker, J. Hutter.
 Phys. Rev. B 58, 3641-3662 (1998).
 Relativistic separable dual-space Gaussian pseudopotentials from H to Rn.
 https://doi.org/10.1103/PhysRevB.58.3641

 G. Lippert, J. Hutter, M. Parrinello.
 Mol. Phys. 92, 477-487 (1997).
 A hybrid Gaussian and plane wave density functional scheme.
 https://doi.org/10.1080/002689797170220

 S. Goedecker, M. Teter, J. Hutter.
 Phys. Rev. B 54, 1703-1710 (1996).
 Separable dual-space Gaussian pseudopotentials.
 https://doi.org/10.1103/PhysRevB.54.1703

 J. P. Perdew, K. Burke, M. Ernzerhof.
 Phys. Rev. Lett. 77, 3865-3868 (1996).
 Generalized gradient approximation made simple.
 https://doi.org/10.1103/PhysRevLett.77.3865


 -------------------------------------------------------------------------------
 -                                                                             -
 -                                T I M I N G                                  -
 -                                                                             -
 -------------------------------------------------------------------------------
 SUBROUTINE                       CALLS  ASD         SELF TIME        TOTAL TIME
                                MAXIMUM       AVERAGE  MAXIMUM  AVERAGE  MAXIMUM
 CP2K                                 1  1.0    0.020    0.023  486.864  486.864
 qs_energies                          1  2.0    0.011    0.035  485.665  485.680
 scf_env_do_scf                       1  3.0    0.000    0.000  473.375  473.375
 scf_env_do_scf_inner_loop           25  4.0    0.053    0.057  473.375  473.375
 do_general_diag_kp                  26  5.9    0.143    0.174  443.987  449.050
 qs_scf_new_mos_kp                   25  5.0    0.000    0.000  437.153  442.205
 mp_alltoall_i22                 100988  8.7  343.579  422.364  343.579  422.364
 dbcsr_desymmetrize_deep          57190  7.4    0.869    1.107  246.791  302.472
 rskp_transform                   13096  6.9   50.137  268.225   50.137  268.225
 dbcsr_complete_redistribute      43798  8.1    1.489    1.786  114.432  137.536
 kpoint_density_transform            25  7.0    0.083    0.098  129.893  130.284
 copy_fm_to_dbcsr                 12800  8.0    0.074    0.084  104.975  127.872
 transform_dmat                    6400  8.0   22.965  124.261   22.965  124.261
 qs_ks_update_qs_env                 25  5.0    0.000    0.000    8.364   30.582
 rebuild_ks_matrix                   25  6.0    0.000    0.000    6.308   28.526
 qs_ks_build_kohn_sham_matrix        25  7.0    0.100    0.103    6.308   28.526
 sum_up_and_integrate                25  8.0    0.000    0.000    5.370   27.530
 integrate_v_rspace                  25  9.0    0.067    0.355    5.369   27.529
 grid_integrate_task_list            25 10.0    5.076   27.006    5.076   27.006
 transfer_rs2pw                     106  8.0    0.001    0.002   20.169   24.834
 transfer_rs2pw_500                  28  8.9    0.043    0.050   20.132   24.796
 mp_sendrecv_dv                     742 10.0   20.114   24.781   20.114   24.781
 qs_rho_update_rho_low               26  5.0    0.000    0.000   22.770   22.809
 calculate_rho_elec                  26  6.0    0.019    0.049   22.770   22.809
 density_rs2pw                       26  7.0    0.001    0.001   18.482   22.713
 grid_collocate_task_list            26  7.0    4.267   22.434    4.267   22.434
 copy_dbcsr_to_fm                 30998  6.8    0.308    0.348   16.822   17.067
 cp_fm_start_copy_general         38992  7.3    0.642    0.926    3.976    4.065
 dbcsr_finalize                  139740  8.0    0.629    0.711    3.796    4.057
 write_kpoints_restart               25  5.0    0.021    0.027    3.621    3.621
 mp_alltoall_d11v                302964  9.3    3.383    3.580    3.383    3.580
 cp_dbcsr_alloc_block_from_nbl    16973  5.0    0.614    3.091    0.688    3.402
 dbcsr_dot                       120151  8.0    0.566    1.068    2.745    2.927
 qs_energies_init_hamiltonians        1  3.0    0.000    0.000    2.907    2.907
 dbcsr_create_new                281936  7.8    2.179    2.459    2.365    2.669
 mp_sum_d                        120769  9.0    2.265    2.667    2.265    2.667
 cp_cfm_geeig_canon                 837  6.9    0.007    0.007    2.577    2.655
 mp_cart_sub                      61998  8.8    2.524    2.541    2.524    2.541
 cp_cfm_heevd                      1674  7.9    0.002    0.002    2.345    2.425
 cp_cfm_heevd_base                 1674  8.9    2.343    2.423    2.343    2.423
 dbcsr_merge_all                  43798 10.1    1.299    1.520    2.175    2.385
 hybrid_alltoall_any              57190  8.4    0.227    0.246    2.226    2.371
 build_core_hamiltonian_matrix        1  4.0    0.009    0.009    0.547    2.316
 qs_env_update_s_mstruct              1  4.0    0.000    0.000    1.905    2.235
 calculate_rho_core                   1  5.0    0.001    0.001    1.781    2.210
 evaluate_core_matrix_traces         25  6.0    0.000    0.000    2.056    2.056
 calculate_ptrace_kp                 50  7.0    0.088    0.090    2.056    2.056
 mp_allgather_i                   77984  8.3    1.883    2.043    1.883    2.043
 init_scf_run                         1  3.0    0.000    0.000    1.671    1.852
 scf_env_initial_rho_setup            1  4.0    0.000    0.000    1.671    1.852
 mp_alltoall_i11v                188584  8.9    1.733    1.780    1.733    1.780
 self_consistency_check              25  5.0    0.085    0.088    1.588    1.679
 mp_cart_create                   31005  8.8    1.480    1.549    1.480    1.549
 cp_sm_mix                        60075  6.0    0.194    0.464    1.401    1.519
 dbcsr_copy                      135353  6.7    0.750    0.842    1.143    1.391
 cp_fm_write_unformatted           4806  6.0    0.949    1.258    0.966    1.333
 mp_max_d                         60077  7.0    1.062    1.244    1.062    1.244
 mp_bcast_iv                     156122  8.3    0.973    1.111    0.973    1.111
 dbcsr_work_create               100988  8.7    0.598    0.638    0.970    1.069
 create_qs_kind_set                   1  2.0    0.000    0.000    1.023    1.023
 read_qs_kind                         1  3.0    0.614    0.619    1.023    1.023
 mixing_allocate                      1  3.0    0.014    0.014    0.231    1.007
 calculate_first_density_matrix       1  5.0    0.002    0.002    0.789    0.970
 calculate_atomic_block_dm            1  6.0    0.001    0.001    0.784    0.966
 dbcsr_iterator_start            458811  8.7    0.831    0.843    0.949    0.954
 copy_fm_to_dbcsr_bc              12800  9.0    0.166    0.185    0.589    0.799
 dbcsr_work_destroy_all          100988  9.7    0.479    0.487    0.719    0.734
 kpoint_set_mo_occupation            25  7.0    0.611    0.611    0.709    0.733
 dbcsr_data_new                 1108329  9.6    0.609    0.731    0.609    0.731
 tree_to_linear_d                 43798 11.1    0.697    0.724    0.697    0.724
 copy_dbcsr_to_fm_bc              30998  7.8    0.308    0.316    0.715    0.724
 dbcsr_iterator_stop             458811  8.7    0.518    0.531    0.615    0.631
 dbcsr_data_release             1681520  9.9    0.581    0.626    0.581    0.626
 dbcsr_set                       204659  7.3    0.179    0.191    0.311    0.609
 build_kinetic_matrix_low             1  5.0    0.026    0.070    0.131    0.557
 build_overlap_matrix_low             1  5.0    0.026    0.071    0.132    0.557
 fft_wrap_pw1pw2                    455 10.0    0.003    0.004    0.497    0.535
 calculate_ecore_overlap              1  4.0    0.000    0.000    0.428    0.528
 dbcsr_destroy                   161786  7.7    0.258    0.280    0.475    0.507
 qs_env_rebuild_rho                   1  5.0    0.000    0.000    0.115    0.502
 qs_rho_rebuild                       1  6.0    0.007    0.007    0.115    0.502
 fft_wrap_pw1pw2_500                302 11.3    0.026    0.027    0.451    0.489
 mp_sum_iv                           24  5.3    0.394    0.485    0.394    0.485
 qs_scf_ensure_work_matrices          1  3.0    0.000    0.000    0.394    0.485
 parser_read_line                134499  4.0    0.044    0.046    0.475    0.478
 fft3d_ps                           455 12.0    0.145    0.149    0.420    0.458
 parser_read_line_low               153  5.2    0.049    0.211    0.431    0.434
 dbcsr_zero                      204659  8.3    0.132    0.418    0.132    0.418
 broadcast_input_information        153  6.2    0.100    0.112    0.383    0.410
 build_core_ppnl                      1  5.0    0.086    0.397    0.086    0.397
 dbcsr_reserve_blocks             29773  8.2    0.123    0.363    0.138    0.389
 cp_fm_finish_copy_general        16148  7.8    0.269    0.302    0.291    0.339
 mp_bcast_im                      77984  8.3    0.293    0.337    0.293    0.337
 dbcsr_copy_into_existing         15203  9.4    0.114    0.247    0.198    0.336
 quick_finalize                   57190  9.4    0.144    0.186    0.240    0.324
 qs_vxc_create                       25  8.0    0.000    0.000    0.291    0.292
 xc_vxc_pw_create                    25  9.0    0.011    0.011    0.291    0.291
 mp_waitall_1                    161623  8.3    0.141    0.281    0.141    0.281
 mp_alltoall_z22v                   455 14.0    0.240    0.280    0.240    0.280
 kpoint_density_matrices             25  7.0    0.013    0.013    0.257    0.278
 potential_pw2rs                     25 10.0    0.001    0.001    0.226    0.266
 parallel_gemm_fm                  3200  8.0    0.003    0.003    0.239    0.259
 parallel_gemm_fm_gemm             3200  9.0    0.003    0.003    0.236    0.257
 cp_fm_gemm                        3200 10.0    0.233    0.254    0.233    0.254
 build_core_ppl                       1  5.0    0.048    0.244    0.048    0.244
 mp_comm_free                     93039  8.8    0.210    0.233    0.210    0.233
 gspace_mixing                       24  5.0    0.009    0.009    0.233    0.233
 cp_cfm_gemm                       2511  7.9    0.208    0.211    0.208    0.211
 mp_bcast_i_src                     612  7.2    0.163    0.190    0.163    0.190
 xc_pw_derive                       150 11.0    0.000    0.000    0.188    0.190
 broyden_mixing                      24  6.0    0.183    0.186    0.189    0.190
 yz_to_x                            205 12.8    0.011    0.012    0.149    0.187
 xc_rho_set_and_dset_create          25 10.0    0.008    0.009    0.151    0.155
 dbcsr_iterator_seek             458811  9.7    0.119    0.149    0.119    0.149
 dbcsr_make_index_exist          281936  8.8    0.124    0.143    0.124    0.143
 xc_pw_divergence                    25 10.0    0.000    0.000    0.126    0.129
 dbcsr_sort_indices              130761 10.8    0.070    0.126    0.070    0.126
 x_to_yz                            250 13.2    0.020    0.021    0.122    0.124
 mp_bcast_am_src                    153  7.2    0.100    0.106    0.117    0.122
 mp_sum_dm3                          25  8.0    0.098    0.122    0.098    0.122
 transfer_pw2rs                     101 11.0    0.001    0.001    0.116    0.117
 dbcsr_reserve_all_blocks         12800 10.0    0.018    0.023    0.089    0.108
 mp_isend_dv                      39584  8.2    0.090    0.098    0.090    0.098
 merge_index                      43798 11.1    0.086    0.095    0.086    0.095
 transfer_pw2rs_500                  26 11.8    0.046    0.051    0.083    0.085
 mp_irecv_iv                     155968  8.3    0.010    0.082    0.010    0.082
 dbcsr_data_copy_aa2              43798 10.9    0.034    0.079    0.034    0.079
 mp_recv_dv                       14418  7.0    0.009    0.075    0.009    0.075
 topology_control                     1  2.0    0.000    0.001    0.073    0.073
 scf_post_calculation_gpw             1  3.0    0.000    0.000    0.072    0.072
 write_available_results              1  4.0    0.000    0.000    0.072    0.072
 write_mo_free_results                1  5.0    0.001    0.001    0.072    0.072
 dbcsr_switch_data_area           57190 10.4    0.052    0.053    0.068    0.069
 cp_fm_cleanup_copy_general       27792  7.0    0.038    0.040    0.058    0.061
 mp_isend_iv                      87880  8.3    0.015    0.057    0.015    0.057
 mp_sum_dv                          320  3.3    0.041    0.054    0.041    0.054
 read_cell_cif                        2  4.5    0.002    0.004    0.049    0.050
 qs_create_task_list                  1  5.0    0.000    0.000    0.009    0.050
 generate_qs_task_list                1  6.0    0.008    0.040    0.009    0.050
 -------------------------------------------------------------------------------

 The number of warnings for this run is : 1
 
 -------------------------------------------------------------------------------
  **** **** ******  **  PROGRAM ENDED AT                 2025-08-03 20:15:55.394
 ***** ** ***  *** **   PROGRAM RAN ON                              i04r11c03s06
 **    ****   ******    PROGRAM RAN BY                                   di38fab
 ***** **    ** ** **   PROGRAM PROCESS ID                               4033645
  **** **  *******  **  PROGRAM STOPPED IN /hppfs/scratch/04/di38fab/09_GTH/Delt
                                           a_Set/Sc/TZVP-MOLOPT-PBE-GTH/8x8x8
