Ba                                      
   1.00000000000000     
     5.027920    0.000000    0.000000
     0.000000    5.027920    0.000000
     0.000000    0.000000    5.027920
   Ba
     2
Direct
  0.000000  0.000000  0.000000
  0.500000  0.500000  0.500000
 
   40   40   40
  37.168      52.084      90.073      134.45      167.09      176.74      162.53      131.87      95.328      62.025    
  37.576      22.721      14.418      9.9615      7.5866      6.3003      5.6001      5.2322      5.0471      4.9569    
  4.9285      4.9569      5.0471      5.2322      5.6001      6.3003      7.5866      9.9615      14.418      22.721    
  37.576      62.025      95.328      131.87      162.53      176.74      167.09      134.45      90.073      52.084    
  52.084      65.839      100.72      140.99      169.65      176.31      160.43      129.28      93.013      60.350    
  36.588      22.197      14.150      9.8239      7.5137      6.2601      5.5770      5.2179      5.0373      4.9495    
  4.9219      4.9495      5.0373      5.2179      5.5770      6.2601      7.5137      9.8239      14.150      22.197    
  36.588      60.350      93.013      129.28      160.43      176.31      169.65      140.99      100.72      65.839    
  90.073      100.72      127.29      156.64      174.83      173.73      153.68      121.52      86.288      55.571    
  33.805      20.721      13.392      9.4335      7.3060      6.1452      5.5107      5.1769      5.0093      4.9283    
  4.9029      4.9283      5.0093      5.1769      5.5107      6.1452      7.3060      9.4335      13.392      20.721    
  33.805      55.571      86.288      121.52      153.68      173.73      174.83      156.64      127.29      100.72    
  134.45      140.99      156.64      171.82      176.66      166.07      141.43      108.86      75.849      48.413    
  29.718      18.549      12.270      8.8502      6.9928      5.9706      5.4096      5.1143      4.9665      4.8957    
  4.8738      4.8957      4.9665      5.1143      5.4096      5.9706      6.9928      8.8502      12.270      18.549    
  29.718      48.413      75.849      108.86      141.43      166.07      176.66      171.82      156.64      140.99    
  167.09      169.65      174.83      176.66      169.45      150.98      123.50      92.233      62.930      40.002    
  24.985      16.025      10.953      8.1556      6.6147      5.7579      5.2858      5.0374      4.9138      4.8556    
  4.8378      4.8556      4.9138      5.0374      5.2858      5.7579      6.6147      8.1556      10.953      16.025    
  24.985      40.002      62.930      92.233      123.50      150.98      169.45      176.66      174.83      169.65    
  176.74      176.31      173.73      166.07      150.98      128.46      101.18      73.377      49.221      31.572    
  20.256      13.484      9.6078      7.4331      6.2150      5.5307      5.1529      4.9547      4.8570      4.8121    
  4.7988      4.8121      4.8570      4.9547      5.1529      5.5307      6.2150      7.4331      9.6078      13.484    
  20.256      31.572      49.221      73.377      101.18      128.46      150.98      166.07      173.73      176.31    
  162.53      160.43      153.68      141.43      123.50      101.18      77.145      54.652      36.598      24.050    
  16.026      11.184      8.3652      6.7514      5.8316      5.3108      5.0239      4.8745      4.8019      4.7697    
  4.7604      4.7697      4.8019      4.8745      5.0239      5.3108      5.8316      6.7514      8.3652      11.184    
  16.026      24.050      36.598      54.652      77.145      101.18      123.50      141.43      153.68      160.43    
  131.87      129.28      121.52      108.86      92.233      73.377      54.652      38.486      26.321      17.950    
  12.566      9.2671      7.3051      6.1567      5.4922      5.1150      4.9091      4.8035      4.7534      4.7321    
  4.7263      4.7321      4.7534      4.8035      4.9091      5.1150      5.4922      6.1567      7.3051      9.2671    
  12.566      17.950      26.321      38.486      54.652      73.377      92.233      108.86      121.52      129.28    
  95.328      93.013      86.288      75.849      62.930      49.221      36.598      26.321      18.672      13.384    
  9.9345      7.7745      6.4581      5.6718      5.2129      4.9542      4.8158      4.7468      4.7153      4.7027    
  4.6994      4.7027      4.7153      4.7468      4.8158      4.9542      5.2129      5.6718      6.4581      7.7745    
  9.9345      13.384      18.672      26.321      36.598      49.221      62.930      75.849      86.288      93.013    
  62.025      60.350      55.571      48.413      40.002      31.572      24.050      17.950      13.384      10.182    
  8.0468      6.6747      5.8188      5.3007      4.9991      4.8328      4.7474      4.7071      4.6900      4.6837    
  4.6822      4.6837      4.6900      4.7071      4.7474      4.8328      4.9991      5.3007      5.8188      6.6747    
  8.0468      10.182      13.384      17.950      24.050      31.572      40.002      48.413      55.571      60.350    
  37.576      36.588      33.805      29.718      24.985      20.256      16.026      12.566      9.9345      8.0468    
  6.7539      5.9021      5.3619      5.0347      4.8482      4.7502      4.7040      4.6849      4.6783      4.6766    
  4.6763      4.6766      4.6783      4.6849      4.7040      4.7502      4.8482      5.0347      5.3619      5.9021    
  6.7539      8.0468      9.9345      12.566      16.026      20.256      24.985      29.718      33.805      36.588    
  22.721      22.197      20.721      18.549      16.025      13.484      11.184      9.2671      7.7745      6.6747    
  5.9021      5.3838      5.0541      4.8580      4.7520      4.7020      4.6832      4.6790      4.6800      4.6816    
  4.6822      4.6816      4.6800      4.6790      4.6832      4.7020      4.7520      4.8580      5.0541      5.3838    
  5.9021      6.6747      7.7745      9.2671      11.184      13.484      16.025      18.549      20.721      22.197    
  14.418      14.150      13.392      12.270      10.953      9.6078      8.3652      7.3051      6.4581      5.8188    
  5.3619      5.0541      4.8613      4.7523      4.6997      4.6815      4.6810      4.6871      4.6936      4.6980    
  4.6994      4.6980      4.6936      4.6871      4.6810      4.6815      4.6997      4.7523      4.8613      5.0541    
  5.3619      5.8188      6.4581      7.3051      8.3652      9.6078      10.953      12.270      13.392      14.150    
  9.9615      9.8239      9.4335      8.8502      8.1556      7.4331      6.7514      6.1567      5.6718      5.3007    
  5.0347      4.8580      4.7523      4.6986      4.6799      4.6817      4.6929      4.7062      4.7171      4.7240    
  4.7263      4.7240      4.7171      4.7062      4.6929      4.6817      4.6799      4.6986      4.7523      4.8580    
  5.0347      5.3007      5.6718      6.1567      6.7514      7.4331      8.1556      8.8502      9.4335      9.8239    
  7.5866      7.5137      7.3060      6.9928      6.6147      6.2150      5.8316      5.4922      5.2129      4.9991    
  4.8482      4.7520      4.6997      4.6799      4.6816      4.6956      4.7144      4.7330      4.7478      4.7572    
  4.7604      4.7572      4.7478      4.7330      4.7144      4.6956      4.6816      4.6799      4.6997      4.7520    
  4.8482      4.9991      5.2129      5.4922      5.8316      6.2150      6.6147      6.9928      7.3060      7.5137    
  6.3003      6.2601      6.1452      5.9706      5.7579      5.5307      5.3108      5.1150      4.9542      4.8328    
  4.7502      4.7020      4.6815      4.6817      4.6956      4.7171      4.7414      4.7643      4.7828      4.7947    
  4.7988      4.7947      4.7828      4.7643      4.7414      4.7171      4.6956      4.6817      4.6815      4.7020    
  4.7502      4.8328      4.9542      5.1150      5.3108      5.5307      5.7579      5.9706      6.1452      6.2601    
  5.6001      5.5770      5.5107      5.4096      5.2858      5.1529      5.0239      4.9091      4.8158      4.7474    
  4.7040      4.6832      4.6810      4.6929      4.7144      4.7414      4.7700      4.7968      4.8186      4.8329    
  4.8378      4.8329      4.8186      4.7968      4.7700      4.7414      4.7144      4.6929      4.6810      4.6832    
  4.7040      4.7474      4.8158      4.9091      5.0239      5.1529      5.2858      5.4096      5.5107      5.5770    
  5.2322      5.2179      5.1769      5.1143      5.0374      4.9547      4.8745      4.8035      4.7468      4.7071    
  4.6849      4.6790      4.6871      4.7062      4.7330      4.7643      4.7968      4.8271      4.8519      4.8681    
  4.8738      4.8681      4.8519      4.8271      4.7968      4.7643      4.7330      4.7062      4.6871      4.6790    
  4.6849      4.7071      4.7468      4.8035      4.8745      4.9547      5.0374      5.1143      5.1769      5.2179    
  5.0471      5.0373      5.0093      4.9665      4.9138      4.8570      4.8019      4.7534      4.7153      4.6900    
  4.6783      4.6800      4.6936      4.7171      4.7478      4.7828      4.8186      4.8519      4.8790      4.8967    
  4.9029      4.8967      4.8790      4.8519      4.8186      4.7828      4.7478      4.7171      4.6936      4.6800    
  4.6783      4.6900      4.7153      4.7534      4.8019      4.8570      4.9138      4.9665      5.0093      5.0373    
  4.9569      4.9495      4.9283      4.8957      4.8556      4.8121      4.7697      4.7321      4.7027      4.6837    
  4.6766      4.6816      4.6980      4.7240      4.7572      4.7947      4.8329      4.8681      4.8967      4.9154    
  4.9219      4.9154      4.8967      4.8681      4.8329      4.7947      4.7572      4.7240      4.6980      4.6816    
  4.6766      4.6837      4.7027      4.7321      4.7697      4.8121      4.8556      4.8957      4.9283      4.9495    
  4.9285      4.9219      4.9029      4.8738      4.8378      4.7988      4.7604      4.7263      4.6994      4.6822    
  4.6763      4.6822      4.6994      4.7263      4.7604      4.7988      4.8378      4.8738      4.9029      4.9219    
  4.9285      4.9219      4.9029      4.8738      4.8378      4.7988      4.7604      4.7263      4.6994      4.6822    
  4.6763      4.6822      4.6994      4.7263      4.7604      4.7988      4.8378      4.8738      4.9029      4.9219    
  4.9569      4.9495      4.9283      4.8957      4.8556      4.8121      4.7697      4.7321      4.7027      4.6837    
  4.6766      4.6816      4.6980      4.7240      4.7572      4.7947      4.8329      4.8681      4.8967      4.9154    
  4.9219      4.9154      4.8967      4.8681      4.8329      4.7947      4.7572      4.7240      4.6980      4.6816    
  4.6766      4.6837      4.7027      4.7321      4.7697      4.8121      4.8556      4.8957      4.9283      4.9495    
  5.0471      5.0373      5.0093      4.9665      4.9138      4.8570      4.8019      4.7534      4.7153      4.6900    
  4.6783      4.6800      4.6936      4.7171      4.7478      4.7828      4.8186      4.8519      4.8790      4.8967    
  4.9029      4.8967      4.8790      4.8519      4.8186      4.7828      4.7478      4.7171      4.6936      4.6800    
  4.6783      4.6900      4.7153      4.7534      4.8019      4.8570      4.9138      4.9665      5.0093      5.0373    
  5.2322      5.2179      5.1769      5.1143      5.0374      4.9547      4.8745      4.8035      4.7468      4.7071    
  4.6849      4.6790      4.6871      4.7062      4.7330      4.7643      4.7968      4.8271      4.8519      4.8681    
  4.8738      4.8681      4.8519      4.8271      4.7968      4.7643      4.7330      4.7062      4.6871      4.6790    
  4.6849      4.7071      4.7468      4.8035      4.8745      4.9547      5.0374      5.1143      5.1769      5.2179    
  5.6001      5.5770      5.5107      5.4096      5.2858      5.1529      5.0239      4.9091      4.8158      4.7474    
  4.7040      4.6832      4.6810      4.6929      4.7144      4.7414      4.7700      4.7968      4.8186      4.8329    
  4.8378      4.8329      4.8186      4.7968      4.7700      4.7414      4.7144      4.6929      4.6810      4.6832    
  4.7040      4.7474      4.8158      4.9091      5.0239      5.1529      5.2858      5.4096      5.5107      5.5770    
  6.3003      6.2601      6.1452      5.9706      5.7579      5.5307      5.3108      5.1150      4.9542      4.8328    
  4.7502      4.7020      4.6815      4.6817      4.6956      4.7171      4.7414      4.7643      4.7828      4.7947    
  4.7988      4.7947      4.7828      4.7643      4.7414      4.7171      4.6956      4.6817      4.6815      4.7020    
  4.7502      4.8328      4.9542      5.1150      5.3108      5.5307      5.7579      5.9706      6.1452      6.2601    
  7.5866      7.5137      7.3060      6.9928      6.6147      6.2150      5.8316      5.4922      5.2129      4.9991    
  4.8482      4.7520      4.6997      4.6799      4.6816      4.6956      4.7144      4.7330      4.7478      4.7572    
  4.7604      4.7572      4.7478      4.7330      4.7144      4.6956      4.6816      4.6799      4.6997      4.7520    
  4.8482      4.9991      5.2129      5.4922      5.8316      6.2150      6.6147      6.9928      7.3060      7.5137    
  9.9615      9.8239      9.4335      8.8502      8.1556      7.4331      6.7514      6.1567      5.6718      5.3007    
  5.0347      4.8580      4.7523      4.6986      4.6799      4.6817      4.6929      4.7062      4.7171      4.7240    
  4.7263      4.7240      4.7171      4.7062      4.6929      4.6817      4.6799      4.6986      4.7523      4.8580    
  5.0347      5.3007      5.6718      6.1567      6.7514      7.4331      8.1556      8.8502      9.4335      9.8239    
  14.418      14.150      13.392      12.270      10.953      9.6078      8.3652      7.3051      6.4581      5.8188    
  5.3619      5.0541      4.8613      4.7523      4.6997      4.6815      4.6810      4.6871      4.6936      4.6980    
  4.6994      4.6980      4.6936      4.6871      4.6810      4.6815      4.6997      4.7523      4.8613      5.0541    
  5.3619      5.8188      6.4581      7.3051      8.3652      9.6078      10.953      12.270      13.392      14.150    
  22.721      22.197      20.721      18.549      16.025      13.484      11.184      9.2671      7.7745      6.6747    
  5.9021      5.3838      5.0541      4.8580      4.7520      4.7020      4.6832      4.6790      4.6800      4.6816    
  4.6822      4.6816      4.6800      4.6790      4.6832      4.7020      4.7520      4.8580      5.0541      5.3838    
  5.9021      6.6747      7.7745      9.2671      11.184      13.484      16.025      18.549      20.721      22.197    
  37.576      36.588      33.805      29.718      24.985      20.256      16.026      12.566      9.9345      8.0468    
  6.7539      5.9021      5.3619      5.0347      4.8482      4.7502      4.7040      4.6849      4.6783      4.6766    
  4.6763      4.6766      4.6783      4.6849      4.7040      4.7502      4.8482      5.0347      5.3619      5.9021    
  6.7539      8.0468      9.9345      12.566      16.026      20.256      24.985      29.718      33.805      36.588    
  62.025      60.350      55.571      48.413      40.002      31.572      24.050      17.950      13.384      10.182    
  8.0468      6.6747      5.8188      5.3007      4.9991      4.8328      4.7474      4.7071      4.6900      4.6837    
  4.6822      4.6837      4.6900      4.7071      4.7474      4.8328      4.9991      5.3007      5.8188      6.6747    
  8.0468      10.182      13.384      17.950      24.050      31.572      40.002      48.413      55.571      60.350    
  95.328      93.013      86.288      75.849      62.930      49.221      36.598      26.321      18.672      13.384    
  9.9345      7.7745      6.4581      5.6718      5.2129      4.9542      4.8158      4.7468      4.7153      4.7027    
  4.6994      4.7027      4.7153      4.7468      4.8158      4.9542      5.2129      5.6718      6.4581      7.7745    
  9.9345      13.384      18.672      26.321      36.598      49.221      62.930      75.849      86.288      93.013    
  131.87      129.28      121.52      108.86      92.233      73.377      54.652      38.486      26.321      17.950    
  12.566      9.2671      7.3051      6.1567      5.4922      5.1150      4.9091      4.8035      4.7534      4.7321    
  4.7263      4.7321      4.7534      4.8035      4.9091      5.1150      5.4922      6.1567      7.3051      9.2671    
  12.566      17.950      26.321      38.486      54.652      73.377      92.233      108.86      121.52      129.28    
  162.53      160.43      153.68      141.43      123.50      101.18      77.145      54.652      36.598      24.050    
  16.026      11.184      8.3652      6.7514      5.8316      5.3108      5.0239      4.8745      4.8019      4.7697    
  4.7604      4.7697      4.8019      4.8745      5.0239      5.3108      5.8316      6.7514      8.3652      11.184    
  16.026      24.050      36.598      54.652      77.145      101.18      123.50      141.43      153.68      160.43    
  176.74      176.31      173.73      166.07      150.98      128.46      101.18      73.377      49.221      31.572    
  20.256      13.484      9.6078      7.4331      6.2150      5.5307      5.1529      4.9547      4.8570      4.8121    
  4.7988      4.8121      4.8570      4.9547      5.1529      5.5307      6.2150      7.4331      9.6078      13.484    
  20.256      31.572      49.221      73.377      101.18      128.46      150.98      166.07      173.73      176.31    
  167.09      169.65      174.83      176.66      169.45      150.98      123.50      92.233      62.930      40.002    
  24.985      16.025      10.953      8.1556      6.6147      5.7579      5.2858      5.0374      4.9138      4.8556    
  4.8378      4.8556      4.9138      5.0374      5.2858      5.7579      6.6147      8.1556      10.953      16.025    
  24.985      40.002      62.930      92.233      123.50      150.98      169.45      176.66      174.83      169.65    
  134.45      140.99      156.64      171.82      176.66      166.07      141.43      108.86      75.849      48.413    
  29.718      18.549      12.270      8.8502      6.9928      5.9706      5.4096      5.1143      4.9665      4.8957    
  4.8738      4.8957      4.9665      5.1143      5.4096      5.9706      6.9928      8.8502      12.270      18.549    
  29.718      48.413      75.849      108.86      141.43      166.07      176.66      171.82      156.64      140.99    
  90.073      100.72      127.29      156.64      174.83      173.73      153.68      121.52      86.288      55.571    
  33.805      20.721      13.392      9.4335      7.3060      6.1452      5.5107      5.1769      5.0093      4.9283    
  4.9029      4.9283      5.0093      5.1769      5.5107      6.1452      7.3060      9.4335      13.392      20.721    
  33.805      55.571      86.288      121.52      153.68      173.73      174.83      156.64      127.29      100.72    
  52.084      65.839      100.72      140.99      169.65      176.31      160.43      129.28      93.013      60.350    
  36.588      22.197      14.150      9.8239      7.5137      6.2601      5.5770      5.2179      5.0373      4.9495    
  4.9219      4.9495      5.0373      5.2179      5.5770      6.2601      7.5137      9.8239      14.150      22.197    
  36.588      60.350      93.013      129.28      160.43      176.31      169.65      140.99      100.72      65.839    
  52.084      65.839      100.72      140.99      169.65      176.31      160.43      129.28      93.013      60.350    
  36.588      22.197      14.150      9.8239      7.5137      6.2601      5.5770      5.2179      5.0373      4.9495    
  4.9219      4.9495      5.0373      5.2179      5.5770      6.2601      7.5137      9.8239      14.150      22.197    
  36.588      60.350      93.013      129.28      160.43      176.31      169.65      140.99      100.72      65.839    
  65.839      78.497      110.44      146.84      171.78      175.65      158.25      126.68      90.733      58.715    
  35.630      21.689      13.889      9.6899      7.4426      6.2208      5.5543      5.2039      5.0277      4.9423    
  4.9154      4.9423      5.0277      5.2039      5.5543      6.2208      7.4426      9.6899      13.889      21.689    
  35.630      58.715      90.733      126.68      158.25      175.65      171.78      146.84      110.44      78.497    
  100.72      110.44      134.55      160.68      175.81      172.49      151.30      118.95      84.117      54.057    
  32.933      20.257      13.153      9.3095      7.2395      6.1081      5.4892      5.1636      5.0002      4.9214    
  4.8967      4.9214      5.0002      5.1636      5.4892      6.1081      7.2395      9.3095      13.153      20.257    
  32.933      54.057      84.117      118.95      151.30      172.49      175.81      160.68      134.55      110.44    
  140.99      146.84      160.68      173.52      176.22      164.15      138.88      106.39      73.873      47.094    
  28.972      18.151      12.063      8.7410      6.9333      5.9370      5.3900      5.1021      4.9581      4.8894    
  4.8681      4.8894      4.9581      5.1021      5.3900      5.9370      6.9333      8.7410      12.063      18.151    
  28.972      47.094      73.873      106.39      138.88      164.15      176.22      173.52      160.68      146.84    
  169.65      171.78      175.81      176.22      167.76      148.55      120.92      89.970      61.234      38.934    
  24.384      15.702      10.783      8.0640      6.5638      5.7288      5.2686      5.0267      4.9064      4.8500    
  4.8329      4.8500      4.9064      5.0267      5.2686      5.7288      6.5638      8.0640      10.783      15.702    
  24.384      38.934      61.234      89.970      120.92      148.55      167.76      176.22      175.81      171.78    
  176.31      175.65      172.49      164.15      148.55      125.87      98.797      71.452      47.877      30.764    
  19.800      13.237      9.4739      7.3594      6.1732      5.5065      5.1386      4.9458      4.8509      4.8075    
  4.7947      4.8075      4.8509      4.9458      5.1386      5.5065      6.1732      7.3594      9.4739      13.237    
  19.800      30.764      47.877      71.452      98.797      125.87      148.55      164.15      172.49      175.65    
  160.43      158.25      151.30      138.88      120.92      98.797      75.145      53.161      35.632      23.474    
  15.698      11.002      8.2644      6.6944      5.7986      5.2914      5.0123      4.8673      4.7971      4.7661    
  4.7572      4.7661      4.7971      4.8673      5.0123      5.2914      5.7986      6.6944      8.2644      11.002    
  15.698      23.474      35.632      53.161      75.145      98.797      120.92      138.88      151.30      158.25    
  129.28      126.68      118.95      106.39      89.970      71.452      53.161      37.461      25.673      17.562    
  12.341      9.1392      7.2318      6.1140      5.4670      5.1001      4.9002      4.7981      4.7499      4.7295    
  4.7240      4.7295      4.7499      4.7981      4.9002      5.1001      5.4670      6.1140      7.2318      9.1392    
  12.341      17.562      25.673      37.461      53.161      71.452      89.970      106.39      118.95      126.68    
  93.013      90.733      84.117      73.873      61.234      47.877      35.632      25.673      18.260      13.134    
  9.7860      7.6870      6.4062      5.6408      5.1942      4.9431      4.8092      4.7429      4.7129      4.7010    
  4.6980      4.7010      4.7129      4.7429      4.8092      4.9431      5.1942      5.6408      6.4062      7.6870    
  9.7860      13.134      18.260      25.673      35.632      47.877      61.234      73.873      84.117      90.733    
  60.350      58.715      54.057      47.094      38.934      30.764      23.474      17.562      13.134      10.026    
  7.9509      6.6160      5.7828      5.2786      4.9857      4.8248      4.7427      4.7045      4.6885      4.6829    
  4.6816      4.6829      4.6885      4.7045      4.7427      4.8248      4.9857      5.2786      5.7828      6.6160    
  7.9509      10.026      13.134      17.562      23.474      30.764      38.934      47.094      54.057      58.715    
  36.588      35.630      32.933      28.972      24.384      19.800      15.698      12.341      9.7860      7.9509    
  6.6927      5.8633      5.3374      5.0193      4.8388      4.7447      4.7009      4.6834      4.6779      4.6767    
  4.6766      4.6767      4.6779      4.6834      4.7009      4.7447      4.8388      5.0193      5.3374      5.8633    
  6.6927      7.9509      9.7860      12.341      15.698      19.800      24.384      28.972      32.933      35.630    
  22.197      21.689      20.257      18.151      15.702      13.237      11.002      9.1392      7.6870      6.6160    
  5.8633      5.3584      5.0376      4.8476      4.7456      4.6984      4.6816      4.6788      4.6807      4.6829    
  4.6837      4.6829      4.6807      4.6788      4.6816      4.6984      4.7456      4.8476      5.0376      5.3584    
  5.8633      6.6160      7.6870      9.1392      11.002      13.237      15.702      18.151      20.257      21.689    
  14.150      13.889      13.153      12.063      10.783      9.4739      8.2644      7.2318      6.4062      5.7828    
  5.3374      5.0376      4.8506      4.7455      4.6958      4.6798      4.6810      4.6885      4.6960      4.7010    
  4.7027      4.7010      4.6960      4.6885      4.6810      4.6798      4.6958      4.7455      4.8506      5.0376    
  5.3374      5.7828      6.4062      7.2318      8.2644      9.4739      10.783      12.063      13.153      13.889    
  9.8239      9.6899      9.3095      8.7410      8.0640      7.3594      6.6944      6.1140      5.6408      5.2786    
  5.0193      4.8476      4.7455      4.6945      4.6780      4.6818      4.6948      4.7096      4.7218      4.7295    
  4.7321      4.7295      4.7218      4.7096      4.6948      4.6818      4.6780      4.6945      4.7455      4.8476    
  5.0193      5.2786      5.6408      6.1140      6.6944      7.3594      8.0640      8.7410      9.3095      9.6899    
  7.5137      7.4426      7.2395      6.9333      6.5638      6.1732      5.7986      5.4670      5.1942      4.9857    
  4.8388      4.7456      4.6958      4.6780      4.6817      4.6977      4.7186      4.7391      4.7556      4.7661    
  4.7697      4.7661      4.7556      4.7391      4.7186      4.6977      4.6817      4.6780      4.6958      4.7456    
  4.8388      4.9857      5.1942      5.4670      5.7986      6.1732      6.5638      6.9333      7.2395      7.4426    
  6.2601      6.2208      6.1081      5.9370      5.7288      5.5065      5.2914      5.1001      4.9431      4.8248    
  4.7447      4.6984      4.6798      4.6818      4.6977      4.7216      4.7483      4.7737      4.7942      4.8075    
  4.8121      4.8075      4.7942      4.7737      4.7483      4.7216      4.6977      4.6818      4.6798      4.6984    
  4.7447      4.8248      4.9431      5.1001      5.2914      5.5065      5.7288      5.9370      6.1081      6.2208    
  5.5770      5.5543      5.4892      5.3900      5.2686      5.1386      5.0123      4.9002      4.8092      4.7427    
  4.7009      4.6816      4.6810      4.6948      4.7186      4.7483      4.7800      4.8097      4.8341      4.8500    
  4.8556      4.8500      4.8341      4.8097      4.7800      4.7483      4.7186      4.6948      4.6810      4.6816    
  4.7009      4.7427      4.8092      4.9002      5.0123      5.1386      5.2686      5.3900      5.4892      5.5543    
  5.2179      5.2039      5.1636      5.1021      5.0267      4.9458      4.8673      4.7981      4.7429      4.7045    
  4.6834      4.6788      4.6885      4.7096      4.7391      4.7737      4.8097      4.8435      4.8712      4.8894    
  4.8957      4.8894      4.8712      4.8435      4.8097      4.7737      4.7391      4.7096      4.6885      4.6788    
  4.6834      4.7045      4.7429      4.7981      4.8673      4.9458      5.0267      5.1021      5.1636      5.2039    
  5.0373      5.0277      5.0002      4.9581      4.9064      4.8509      4.7971      4.7499      4.7129      4.6885    
  4.6779      4.6807      4.6960      4.7218      4.7556      4.7942      4.8341      4.8712      4.9015      4.9214    
  4.9283      4.9214      4.9015      4.8712      4.8341      4.7942      4.7556      4.7218      4.6960      4.6807    
  4.6779      4.6885      4.7129      4.7499      4.7971      4.8509      4.9064      4.9581      5.0002      5.0277    
  4.9495      4.9423      4.9214      4.8894      4.8500      4.8075      4.7661      4.7295      4.7010      4.6829    
  4.6767      4.6829      4.7010      4.7295      4.7661      4.8075      4.8500      4.8894      4.9214      4.9423    
  4.9495      4.9423      4.9214      4.8894      4.8500      4.8075      4.7661      4.7295      4.7010      4.6829    
  4.6767      4.6829      4.7010      4.7295      4.7661      4.8075      4.8500      4.8894      4.9214      4.9423    
  4.9219      4.9154      4.8967      4.8681      4.8329      4.7947      4.7572      4.7240      4.6980      4.6816    
  4.6766      4.6837      4.7027      4.7321      4.7697      4.8121      4.8556      4.8957      4.9283      4.9495    
  4.9569      4.9495      4.9283      4.8957      4.8556      4.8121      4.7697      4.7321      4.7027      4.6837    
  4.6766      4.6816      4.6980      4.7240      4.7572      4.7947      4.8329      4.8681      4.8967      4.9154    
  4.9495      4.9423      4.9214      4.8894      4.8500      4.8075      4.7661      4.7295      4.7010      4.6829    