Ba                                      
   1.00000000000000     
     5.027920    0.000000    0.000000
     0.000000    5.027920    0.000000
     0.000000    0.000000    5.027920
   Ba
     2
Direct
  0.000000  0.000000  0.000000
  0.500000  0.500000  0.500000
 
   40   40   40
 0.37167776564E+02 0.52083883663E+02 0.90073433385E+02 0.13444657793E+03 0.16709097760E+03
 0.17674203356E+03 0.16253105081E+03 0.13187417965E+03 0.95327562385E+02 0.62025448006E+02
 0.37575811912E+02 0.22721174214E+02 0.14418271946E+02 0.99614742019E+01 0.75865568447E+01
 0.63002642132E+01 0.56001029913E+01 0.52322198555E+01 0.50470558514E+01 0.49569133011E+01
 0.49284604098E+01 0.49569133011E+01 0.50470558514E+01 0.52322198555E+01 0.56001029913E+01
 0.63002642132E+01 0.75865568447E+01 0.99614742019E+01 0.14418271946E+02 0.22721174214E+02
 0.37575811912E+02 0.62025448006E+02 0.95327562385E+02 0.13187417965E+03 0.16253105081E+03
 0.17674203356E+03 0.16709097760E+03 0.13444657793E+03 0.90073433385E+02 0.52083883663E+02
 0.52083883663E+02 0.65839023502E+02 0.10071892937E+03 0.14098722247E+03 0.16965483511E+03
 0.17631210494E+03 0.16042953486E+03 0.12927864528E+03 0.93013001150E+02 0.60349982555E+02
 0.36587794585E+02 0.22197110362E+02 0.14150048398E+02 0.98239380283E+01 0.75137499792E+01
 0.62601160406E+01 0.55769901379E+01 0.52179466716E+01 0.50373189337E+01 0.49495313139E+01
 0.49218693819E+01 0.49495313139E+01 0.50373189337E+01 0.52179466716E+01 0.55769901379E+01
 0.62601160406E+01 0.75137499792E+01 0.98239380283E+01 0.14150048398E+02 0.22197110362E+02
 0.36587794585E+02 0.60349982555E+02 0.93013001150E+02 0.12927864528E+03 0.16042953486E+03
 0.17631210494E+03 0.16965483511E+03 0.14098722247E+03 0.10071892937E+03 0.65839023502E+02
 0.90073433385E+02 0.10071892937E+03 0.12728872411E+03 0.15664196542E+03 0.17482920136E+03
 0.17372679035E+03 0.15367716193E+03 0.12151745904E+03 0.86287534809E+02 0.55571163161E+02
 0.33805092799E+02 0.20720593078E+02 0.13392127284E+02 0.94334861284E+01 0.73060399625E+01
 0.61451574167E+01 0.55106720431E+01 0.51769409110E+01 0.50093186786E+01 0.49282905489E+01
 0.49029009640E+01 0.49282905489E+01 0.50093186786E+01 0.51769409110E+01 0.55106720431E+01
 0.61451574167E+01 0.73060399625E+01 0.94334861284E+01 0.13392127284E+02 0.20720593078E+02
 0.33805092799E+02 0.55571163161E+02 0.86287534809E+02 0.12151745904E+03 0.15367716193E+03
 0.17372679035E+03 0.17482920136E+03 0.15664196542E+03 0.12728872411E+03 0.10071892937E+03
 0.13444657793E+03 0.14098722247E+03 0.15664196542E+03 0.17181612680E+03 0.17666317931E+03
 0.16606914252E+03 0.14142593914E+03 0.10886397759E+03 0.75849015891E+02 0.48413452581E+02
 0.29718044236E+02 0.18548990653E+02 0.12270422643E+02 0.88501964717E+01 0.69927739230E+01
 0.59705733290E+01 0.54095691218E+01 0.51142908229E+01 0.49664660634E+01 0.48957327735E+01
 0.48738036753E+01 0.48957327735E+01 0.49664660634E+01 0.51142908229E+01 0.54095691218E+01
 0.59705733290E+01 0.69927739230E+01 0.88501964717E+01 0.12270422643E+02 0.18548990653E+02
 0.29718044236E+02 0.48413452581E+02 0.75849015891E+02 0.10886397759E+03 0.14142593914E+03
 0.16606914252E+03 0.17666317931E+03 0.17181612680E+03 0.15664196542E+03 0.14098722247E+03
 0.16709097760E+03 0.16965483511E+03 0.17482920136E+03 0.17666317931E+03 0.16944675864E+03
 0.15097795242E+03 0.12350050174E+03 0.92233421305E+02 0.62929662299E+02 0.40002221825E+02
 0.24984824332E+02 0.16024934998E+02 0.10953291535E+02 0.81556375595E+01 0.66147018760E+01
 0.57579001690E+01 0.52857979039E+01 0.50374050180E+01 0.49137695155E+01 0.48555748395E+01
 0.48378427821E+01 0.48555748395E+01 0.49137695155E+01 0.50374050180E+01 0.52857979039E+01
 0.57579001690E+01 0.66147018760E+01 0.81556375595E+01 0.10953291535E+02 0.16024934998E+02
 0.24984824332E+02 0.40002221825E+02 0.62929662299E+02 0.92233421305E+02 0.12350050174E+03
 0.15097795242E+03 0.16944675864E+03 0.17666317931E+03 0.17482920136E+03 0.16965483511E+03
 0.17674203356E+03 0.17631210494E+03 0.17372679035E+03 0.16606914252E+03 0.15097795242E+03
 0.12845765487E+03 0.10118321853E+03 0.73376746403E+02 0.49221423414E+02 0.31572346750E+02
 0.20255547238E+02 0.13484399845E+02 0.96077937557E+01 0.74330833710E+01 0.62150220288E+01
 0.55307462636E+01 0.51529414049E+01 0.49547293374E+01 0.48570098640E+01 0.48121114628E+01
 0.47987777052E+01 0.48121114628E+01 0.48570098640E+01 0.49547293374E+01 0.51529414049E+01
 0.55307462636E+01 0.62150220288E+01 0.74330833710E+01 0.96077937557E+01 0.13484399845E+02
 0.20255547238E+02 0.31572346750E+02 0.49221423414E+02 0.73376746403E+02 0.10118321853E+03
 0.12845765487E+03 0.15097795242E+03 0.16606914252E+03 0.17372679035E+03 0.17631210494E+03
 0.16253105081E+03 0.16042953486E+03 0.15367716193E+03 0.14142593914E+03 0.12350050174E+03
 0.10118321853E+03 0.77144939643E+02 0.54652216941E+02 0.36597945036E+02 0.24050017241E+02
 0.16025745733E+02 0.11183747795E+02 0.83651986371E+01 0.67514033258E+01 0.58316026688E+01
 0.53108097368E+01 0.50238833065E+01 0.48744596270E+01 0.48019017487E+01 0.47696524263E+01
 0.47604086308E+01 0.47696524263E+01 0.48019017487E+01 0.48744596270E+01 0.50238833065E+01
 0.53108097368E+01 0.58316026688E+01 0.67514033258E+01 0.83651986371E+01 0.11183747795E+02
 0.16025745733E+02 0.24050017241E+02 0.36597945036E+02 0.54652216941E+02 0.77144939643E+02
 0.10118321853E+03 0.12350050174E+03 0.14142593914E+03 0.15367716193E+03 0.16042953486E+03
 0.13187417965E+03 0.12927864528E+03 0.12151745904E+03 0.10886397759E+03 0.92233421305E+02
 0.73376746403E+02 0.54652216941E+02 0.38486143842E+02 0.26321251873E+02 0.17949772404E+02
 0.12565828778E+02 0.92671086237E+01 0.73051451658E+01 0.61567110042E+01 0.54921825376E+01
 0.51150301811E+01 0.49091290568E+01 0.48035032200E+01 0.47534132161E+01 0.47321001915E+01
 0.47262663901E+01 0.47321001915E+01 0.47534132161E+01 0.48035032200E+01 0.49091290568E+01
 0.51150301811E+01 0.54921825376E+01 0.61567110042E+01 0.73051451658E+01 0.92671086237E+01
 0.12565828778E+02 0.17949772404E+02 0.26321251873E+02 0.38486143842E+02 0.54652216941E+02
 0.73376746403E+02 0.92233421305E+02 0.10886397759E+03 0.12151745904E+03 0.12927864528E+03
 0.95327562385E+02 0.93013001150E+02 0.86287534809E+02 0.75849015891E+02 0.62929662299E+02
 0.49221423414E+02 0.36597945036E+02 0.26321251873E+02 0.18671531685E+02 0.13383933874E+02
 0.99344683702E+01 0.77745224267E+01 0.64581038419E+01 0.56718099299E+01 0.52128578888E+01
 0.49541835539E+01 0.48158089012E+01 0.47468097887E+01 0.47153191536E+01 0.47026741539E+01
 0.46994100676E+01 0.47026741539E+01 0.47153191536E+01 0.47468097887E+01 0.48158089012E+01
 0.49541835539E+01 0.52128578888E+01 0.56718099299E+01 0.64581038419E+01 0.77745224267E+01
 0.99344683702E+01 0.13383933874E+02 0.18671531685E+02 0.26321251873E+02 0.36597945036E+02
 0.49221423414E+02 0.62929662299E+02 0.75849015891E+02 0.86287534809E+02 0.93013001150E+02
 0.62025448006E+02 0.60349982555E+02 0.55571163161E+02 0.48413452581E+02 0.40002221825E+02
 0.31572346750E+02 0.24050017241E+02 0.17949772404E+02 0.13383933874E+02 0.10182129036E+02
 0.80467815522E+01 0.66747266635E+01 0.58188041308E+01 0.53006769727E+01 0.49990975818E+01
 0.48328236393E+01 0.47473857500E+01 0.47070906642E+01 0.46899825125E+01 0.46837268227E+01
 0.46822489568E+01 0.46837268227E+01 0.46899825125E+01 0.47070906642E+01 0.47473857500E+01
 0.48328236393E+01 0.49990975818E+01 0.53006769727E+01 0.58188041308E+01 0.66747266635E+01
 0.80467815522E+01 0.10182129036E+02 0.13383933874E+02 0.17949772404E+02 0.24050017241E+02
 0.31572346750E+02 0.40002221825E+02 0.48413452581E+02 0.55571163161E+02 0.60349982555E+02
 0.37575811912E+02 0.36587794585E+02 0.33805092799E+02 0.29718044236E+02 0.24984824332E+02
 0.20255547238E+02 0.16025745733E+02 0.12565828778E+02 0.99344683702E+01 0.80467815522E+01
 0.67539055403E+01 0.59020876516E+01 0.53618862108E+01 0.50346511472E+01 0.48481669654E+01
 0.47502384526E+01 0.47039856846E+01 0.46849033598E+01 0.46783329770E+01 0.46766110282E+01
 0.46763469197E+01 0.46766110282E+01 0.46783329770E+01 0.46849033598E+01 0.47039856846E+01
 0.47502384526E+01 0.48481669654E+01 0.50346511472E+01 0.53618862108E+01 0.59020876516E+01
 0.67539055403E+01 0.80467815522E+01 0.99344683702E+01 0.12565828778E+02 0.16025745733E+02
 0.20255547238E+02 0.24984824332E+02 0.29718044236E+02 0.33805092799E+02 0.36587794585E+02
 0.22721174214E+02 0.22197110362E+02 0.20720593078E+02 0.18548990653E+02 0.16024934998E+02
 0.13484399845E+02 0.11183747795E+02 0.92671086237E+01 0.77745224267E+01 0.66747266635E+01
 0.59020876516E+01 0.53838351432E+01 0.50540665168E+01 0.48580386358E+01 0.47519798800E+01
 0.47019805944E+01 0.46831868101E+01 0.46790450478E+01 0.46800139321E+01 0.46816091045E+01
 0.46822489568E+01 0.46816091045E+01 0.46800139321E+01 0.46790450478E+01 0.46831868101E+01
 0.47019805944E+01 0.47519798800E+01 0.48580386358E+01 0.50540665168E+01 0.53838351432E+01
 0.59020876516E+01 0.66747266635E+01 0.77745224267E+01 0.92671086237E+01 0.11183747795E+02
 0.13484399845E+02 0.16024934998E+02 0.18548990653E+02 0.20720593078E+02 0.22197110362E+02
 0.14418271946E+02 0.14150048398E+02 0.13392127284E+02 0.12270422643E+02 0.10953291535E+02
 0.96077937557E+01 0.83651986371E+01 0.73051451658E+01 0.64581038419E+01 0.58188041308E+01
 0.53618862108E+01 0.50540665168E+01 0.48613120489E+01 0.47522562461E+01 0.46997158085E+01
 0.46815219897E+01 0.46810256191E+01 0.46871314802E+01 0.46936461114E+01 0.46979577773E+01
 0.46994100676E+01 0.46979577773E+01 0.46936461114E+01 0.46871314802E+01 0.46810256191E+01
 0.46815219897E+01 0.46997158085E+01 0.47522562461E+01 0.48613120489E+01 0.50540665168E+01
 0.53618862108E+01 0.58188041308E+01 0.64581038419E+01 0.73051451658E+01 0.83651986371E+01
 0.96077937557E+01 0.10953291535E+02 0.12270422643E+02 0.13392127284E+02 0.14150048398E+02
 0.99614742019E+01 0.98239380283E+01 0.94334861284E+01 0.88501964717E+01 0.81556375595E+01
 0.74330833710E+01 0.67514033258E+01 0.61567110042E+01 0.56718099299E+01 0.53006769727E+01
 0.50346511472E+01 0.48580386358E+01 0.47522562461E+01 0.46985744077E+01 0.46798578948E+01
 0.46816720159E+01 0.46929433453E+01 0.47061729134E+01 0.47171188806E+01 0.47239709327E+01
 0.47262663901E+01 0.47239709327E+01 0.47171188806E+01 0.47061729134E+01 0.46929433453E+01
 0.46816720159E+01 0.46798578948E+01 0.46985744077E+01 0.47522562461E+01 0.48580386358E+01
 0.50346511472E+01 0.53006769727E+01 0.56718099299E+01 0.61567110042E+01 0.67514033258E+01
 0.74330833710E+01 0.81556375595E+01 0.88501964717E+01 0.94334861284E+01 0.98239380283E+01
 0.75865568447E+01 0.75137499792E+01 0.73060399625E+01 0.69927739230E+01 0.66147018760E+01
 0.62150220288E+01 0.58316026688E+01 0.54921825376E+01 0.52128578888E+01 0.49990975818E+01
 0.48481669654E+01 0.47519798800E+01 0.46997158085E+01 0.46798578948E+01 0.46815757677E+01
 0.46955574378E+01 0.47144454104E+01 0.47329724801E+01 0.47478183570E+01 0.47572136997E+01
 0.47604086308E+01 0.47572136997E+01 0.47478183570E+01 0.47329724801E+01 0.47144454104E+01
 0.46955574378E+01 0.46815757677E+01 0.46798578948E+01 0.46997158085E+01 0.47519798800E+01
 0.48481669654E+01 0.49990975818E+01 0.52128578888E+01 0.54921825376E+01 0.58316026688E+01
 0.62150220288E+01 0.66147018760E+01 0.69927739230E+01 0.73060399625E+01 0.75137499792E+01
 0.63002642132E+01 0.62601160406E+01 0.61451574167E+01 0.59705733290E+01 0.57579001690E+01
 0.55307462636E+01 0.53108097368E+01 0.51150301811E+01 0.49541835539E+01 0.48328236393E+01
 0.47502384526E+01 0.47019805944E+01 0.46815219897E+01 0.46816720159E+01 0.46955574378E+01
 0.47171403937E+01 0.47413903769E+01 0.47642823136E+01 0.47827540047E+01 0.47946693259E+01
 0.47987777052E+01 0.47946693259E+01 0.47827540047E+01 0.47642823136E+01 0.47413903769E+01
 0.47171403937E+01 0.46955574378E+01 0.46816720159E+01 0.46815219897E+01 0.47019805944E+01
 0.47502384526E+01 0.48328236393E+01 0.49541835539E+01 0.51150301811E+01 0.53108097368E+01
 0.55307462636E+01 0.57579001690E+01 0.59705733290E+01 0.61451574167E+01 0.62601160406E+01
 0.56001029913E+01 0.55769901379E+01 0.55106720431E+01 0.54095691218E+01 0.52857979039E+01
 0.51529414049E+01 0.50238833065E+01 0.49091290568E+01 0.48158089012E+01 0.47473857500E+01
 0.47039856846E+01 0.46831868101E+01 0.46810256191E+01 0.46929433453E+01 0.47144454104E+01
 0.47413903769E+01 0.47699998995E+01 0.47967914764E+01 0.48186187658E+01 0.48328829408E+01
 0.48378427821E+01 0.48328829408E+01 0.48186187658E+01 0.47967914764E+01 0.47699998995E+01
 0.47413903769E+01 0.47144454104E+01 0.46929433453E+01 0.46810256191E+01 0.46831868101E+01
 0.47039856846E+01 0.47473857500E+01 0.48158089012E+01 0.49091290568E+01 0.50238833065E+01
 0.51529414049E+01 0.52857979039E+01 0.54095691218E+01 0.55106720431E+01 0.55769901379E+01
 0.52322198555E+01 0.52179466716E+01 0.51769409110E+01 0.51142908229E+01 0.50374050180E+01
 0.49547293374E+01 0.48744596270E+01 0.48035032200E+01 0.47468097887E+01 0.47070906642E+01
 0.46849033598E+01 0.46790450478E+01 0.46871314802E+01 0.47061729134E+01 0.47329724801E+01
 0.47642823136E+01 0.47967914764E+01 0.48271053848E+01 0.48518731508E+01 0.48681326817E+01
 0.48738036753E+01 0.48681326817E+01 0.48518731508E+01 0.48271053848E+01 0.47967914764E+01
 0.47642823136E+01 0.47329724801E+01 0.47061729134E+01 0.46871314802E+01 0.46790450478E+01
 0.46849033598E+01 0.47070906642E+01 0.47468097887E+01 0.48035032200E+01 0.48744596270E+01
 0.49547293374E+01 0.50374050180E+01 0.51142908229E+01 0.51769409110E+01 0.52179466716E+01
 0.50470558514E+01 0.50373189337E+01 0.50093186786E+01 0.49664660634E+01 0.49137695155E+01
 0.48570098640E+01 0.48019017487E+01 0.47534132161E+01 0.47153191536E+01 0.46899825125E+01
 0.46783329770E+01 0.46800139321E+01 0.46936461114E+01 0.47171188806E+01 0.47478183570E+01
 0.47827540047E+01 0.48186187658E+01 0.48518731508E+01 0.48789601926E+01 0.48967133499E+01
 0.49029009640E+01 0.48967133499E+01 0.48789601926E+01 0.48518731508E+01 0.48186187658E+01
 0.47827540047E+01 0.47478183570E+01 0.47171188806E+01 0.46936461114E+01 0.46800139321E+01
 0.46783329770E+01 0.46899825125E+01 0.47153191536E+01 0.47534132161E+01 0.48019017487E+01
 0.48570098640E+01 0.49137695155E+01 0.49664660634E+01 0.50093186786E+01 0.50373189337E+01
 0.49569133011E+01 0.49495313139E+01 0.49282905489E+01 0.48957327735E+01 0.48555748395E+01
 0.48121114628E+01 0.47696524263E+01 0.47321001915E+01 0.47026741539E+01 0.46837268227E+01
 0.46766110282E+01 0.46816091045E+01 0.46979577773E+01 0.47239709327E+01 0.47572136997E+01
 0.47946693259E+01 0.48328829408E+01 0.48681326817E+01 0.48967133499E+01 0.49153774965E+01
 0.49218693819E+01 0.49153774965E+01 0.48967133499E+01 0.48681326817E+01 0.48328829408E+01
 0.47946693259E+01 0.47572136997E+01 0.47239709327E+01 0.46979577773E+01 0.46816091045E+01
 0.46766110282E+01 0.46837268227E+01 0.47026741539E+01 0.47321001915E+01 0.47696524263E+01
 0.48121114628E+01 0.48555748395E+01 0.48957327735E+01 0.49282905489E+01 0.49495313139E+01
 0.49284604098E+01 0.49218693819E+01 0.49029009640E+01 0.48738036753E+01 0.48378427821E+01
 0.47987777052E+01 0.47604086308E+01 0.47262663901E+01 0.46994100676E+01 0.46822489568E+01
 0.46763469197E+01 0.46822489568E+01 0.46994100676E+01 0.47262663901E+01 0.47604086308E+01
 0.47987777052E+01 0.48378427821E+01 0.48738036753E+01 0.49029009640E+01 0.49218693819E+01
 0.49284604098E+01 0.49218693819E+01 0.49029009640E+01 0.48738036753E+01 0.48378427821E+01
 0.47987777052E+01 0.47604086308E+01 0.47262663901E+01 0.46994100676E+01 0.46822489568E+01
 0.46763469197E+01 0.46822489568E+01 0.46994100676E+01 0.47262663901E+01 0.47604086308E+01
 0.47987777052E+01 0.48378427821E+01 0.48738036753E+01 0.49029009640E+01 0.49218693819E+01
 0.49569133011E+01 0.49495313139E+01 0.49282905489E+01 0.48957327735E+01 0.48555748395E+01
 0.48121114628E+01 0.47696524263E+01 0.47321001915E+01 0.47026741539E+01 0.46837268227E+01
 0.46766110282E+01 0.46816091045E+01 0.46979577773E+01 0.47239709327E+01 0.47572136997E+01
 0.47946693259E+01 0.48328829408E+01 0.48681326817E+01 0.48967133499E+01 0.49153774965E+01
 0.49218693819E+01 0.49153774965E+01 0.48967133499E+01 0.48681326817E+01 0.48328829408E+01
 0.47946693259E+01 0.47572136997E+01 0.47239709327E+01 0.46979577773E+01 0.46816091045E+01
 0.46766110282E+01 0.46837268227E+01 0.47026741539E+01 0.47321001915E+01 0.47696524263E+01
 0.48121114628E+01 0.48555748395E+01 0.48957327735E+01 0.49282905489E+01 0.49495313139E+01
 0.50470558514E+01 0.50373189337E+01 0.50093186786E+01 0.49664660634E+01 0.49137695155E+01
 0.48570098640E+01 0.48019017487E+01 0.47534132161E+01 0.47153191536E+01 0.46899825125E+01
 0.46783329770E+01 0.46800139321E+01 0.46936461114E+01 0.47171188806E+01 0.47478183570E+01
 0.47827540047E+01 0.48186187658E+01 0.48518731508E+01 0.48789601926E+01 0.48967133499E+01
 0.49029009640E+01 0.48967133499E+01 0.48789601926E+01 0.48518731508E+01 0.48186187658E+01
 0.47827540047E+01 0.47478183570E+01 0.47171188806E+01 0.46936461114E+01 0.46800139321E+01
 0.46783329770E+01 0.46899825125E+01 0.47153191536E+01 0.47534132161E+01 0.48019017487E+01
 0.48570098640E+01 0.49137695155E+01 0.49664660634E+01 0.50093186786E+01 0.50373189337E+01
 0.52322198555E+01 0.52179466716E+01 0.51769409110E+01 0.51142908229E+01 0.50374050180E+01
 0.49547293374E+01 0.48744596270E+01 0.48035032200E+01 0.47468097887E+01 0.47070906642E+01
 0.46849033598E+01 0.46790450478E+01 0.46871314802E+01 0.47061729134E+01 0.47329724801E+01
 0.47642823136E+01 0.47967914764E+01 0.48271053848E+01 0.48518731508E+01 0.48681326817E+01
 0.48738036753E+01 0.48681326817E+01 0.48518731508E+01 0.48271053848E+01 0.47967914764E+01
 0.47642823136E+01 0.47329724801E+01 0.47061729134E+01 0.46871314802E+01 0.46790450478E+01
 0.46849033598E+01 0.47070906642E+01 0.47468097887E+01 0.48035032200E+01 0.48744596270E+01
 0.49547293374E+01 0.50374050180E+01 0.51142908229E+01 0.51769409110E+01 0.52179466716E+01
 0.56001029913E+01 0.55769901379E+01 0.55106720431E+01 0.54095691218E+01 0.52857979039E+01
 0.51529414049E+01 0.50238833065E+01 0.49091290568E+01 0.48158089012E+01 0.47473857500E+01
 0.47039856846E+01 0.46831868101E+01 0.46810256191E+01 0.46929433453E+01 0.47144454104E+01
 0.47413903769E+01 0.47699998995E+01 0.47967914764E+01 0.48186187658E+01 0.48328829408E+01
 0.48378427821E+01 0.48328829408E+01 0.48186187658E+01 0.47967914764E+01 0.47699998995E+01
 0.47413903769E+01 0.47144454104E+01 0.46929433453E+01 0.46810256191E+01 0.46831868101E+01
 0.47039856846E+01 0.47473857500E+01 0.48158089012E+01 0.49091290568E+01 0.50238833065E+01
 0.51529414049E+01 0.52857979039E+01 0.54095691218E+01 0.55106720431E+01 0.55769901379E+01
 0.63002642132E+01 0.62601160406E+01 0.61451574167E+01 0.59705733290E+01 0.57579001690E+01
 0.55307462636E+01 0.53108097368E+01 0.51150301811E+01 0.49541835539E+01 0.48328236393E+01
 0.47502384526E+01 0.47019805944E+01 0.46815219897E+01 0.46816720159E+01 0.46955574378E+01
 0.47171403937E+01 0.47413903769E+01 0.47642823136E+01 0.47827540047E+01 0.47946693259E+01
 0.47987777052E+01 0.47946693259E+01 0.47827540047E+01 0.47642823136E+01 0.47413903769E+01
 0.47171403937E+01 0.46955574378E+01 0.46816720159E+01 0.46815219897E+01 0.47019805944E+01
 0.47502384526E+01 0.48328236393E+01 0.49541835539E+01 0.51150301811E+01 0.53108097368E+01
 0.55307462636E+01 0.57579001690E+01 0.59705733290E+01 0.61451574167E+01 0.62601160406E+01
 0.75865568447E+01 0.75137499792E+01 0.73060399625E+01 0.69927739230E+01 0.66147018760E+01
 0.62150220288E+01 0.58316026688E+01 0.54921825376E+01 0.52128578888E+01 0.49990975818E+01
 0.48481669654E+01 0.47519798800E+01 0.46997158085E+01 0.46798578948E+01 0.46815757677E+01
 0.46955574378E+01 0.47144454104E+01 0.47329724801E+01 0.47478183570E+01 0.47572136997E+01
 0.47604086308E+01 0.47572136997E+01 0.47478183570E+01 0.47329724801E+01 0.47144454104E+01
 0.46955574378E+01 0.46815757677E+01 0.46798578948E+01 0.46997158085E+01 0.47519798800E+01
 0.48481669654E+01 0.49990975818E+01 0.52128578888E+01 0.54921825376E+01 0.58316026688E+01
 0.62150220288E+01 0.66147018760E+01 0.69927739230E+01 0.73060399625E+01 0.75137499792E+01
 0.99614742019E+01 0.98239380283E+01 0.94334861284E+01 0.88501964717E+01 0.81556375595E+01
 0.74330833710E+01 0.67514033258E+01 0.61567110042E+01 0.56718099299E+01 0.53006769727E+01
 0.50346511472E+01 0.48580386358E+01 0.47522562461E+01 0.46985744077E+01 0.46798578948E+01
 0.46816720159E+01 0.46929433453E+01 0.47061729134E+01 0.47171188806E+01 0.47239709327E+01
 0.47262663901E+01 0.47239709327E+01 0.47171188806E+01 0.47061729134E+01 0.46929433453E+01
 0.46816720159E+01 0.46798578948E+01 0.46985744077E+01 0.47522562461E+01 0.48580386358E+01
 0.50346511472E+01 0.53006769727E+01 0.56718099299E+01 0.61567110042E+01 0.67514033258E+01
 0.74330833710E+01 0.81556375595E+01 0.88501964717E+01 0.94334861284E+01 0.98239380283E+01
 0.14418271946E+02 0.14150048398E+02 0.13392127284E+02 0.12270422643E+02 0.10953291535E+02
 0.96077937557E+01 0.83651986371E+01 0.73051451658E+01 0.64581038419E+01 0.58188041308E+01
 0.53618862108E+01 0.50540665168E+01 0.48613120489E+01 0.47522562461E+01 0.46997158085E+01
 0.46815219897E+01 0.46810256191E+01 0.46871314802E+01 0.46936461114E+01 0.46979577773E+01
 0.46994100676E+01 0.46979577773E+01 0.46936461114E+01 0.46871314802E+01 0.46810256191E+01
 0.46815219897E+01 0.46997158085E+01 0.47522562461E+01 0.48613120489E+01 0.50540665168E+01
 0.53618862108E+01 0.58188041308E+01 0.64581038419E+01 0.73051451658E+01 0.83651986371E+01
 0.96077937557E+01 0.10953291535E+02 0.12270422643E+02 0.13392127284E+02 0.14150048398E+02
 0.22721174214E+02 0.22197110362E+02 0.20720593078E+02 0.18548990653E+02 0.16024934998E+02
 0.13484399845E+02 0.11183747795E+02 0.92671086237E+01 0.77745224267E+01 0.66747266635E+01
 0.59020876516E+01 0.53838351432E+01 0.50540665168E+01 0.48580386358E+01 0.47519798800E+01
 0.47019805944E+01 0.46831868101E+01 0.46790450478E+01 0.46800139321E+01 0.46816091045E+01
 0.46822489568E+01 0.46816091045E+01 0.46800139321E+01 0.46790450478E+01 0.46831868101E+01
 0.47019805944E+01 0.47519798800E+01 0.48580386358E+01 0.50540665168E+01 0.53838351432E+01
 0.59020876516E+01 0.66747266635E+01 0.77745224267E+01 0.92671086237E+01 0.11183747795E+02
 0.13484399845E+02 0.16024934998E+02 0.18548990653E+02 0.20720593078E+02 0.22197110362E+02
 0.37575811912E+02 0.36587794585E+02 0.33805092799E+02 0.29718044236E+02 0.24984824332E+02
 0.20255547238E+02 0.16025745733E+02 0.12565828778E+02 0.99344683702E+01 0.80467815522E+01
 0.67539055403E+01 0.59020876516E+01 0.53618862108E+01 0.50346511472E+01 0.48481669654E+01
 0.47502384526E+01 0.47039856846E+01 0.46849033598E+01 0.46783329770E+01 0.46766110282E+01
 0.46763469197E+01 0.46766110282E+01 0.46783329770E+01 0.46849033598E+01 0.47039856846E+01
 0.47502384526E+01 0.48481669654E+01 0.50346511472E+01 0.53618862108E+01 0.59020876516E+01
 0.67539055403E+01 0.80467815522E+01 0.99344683702E+01 0.12565828778E+02 0.16025745733E+02
 0.20255547238E+02 0.24984824332E+02 0.29718044236E+02 0.33805092799E+02 0.36587794585E+02
 0.62025448006E+02 0.60349982555E+02 0.55571163161E+02 0.48413452581E+02 0.40002221825E+02
 0.31572346750E+02 0.24050017241E+02 0.17949772404E+02 0.13383933874E+02 0.10182129036E+02
 0.80467815522E+01 0.66747266635E+01 0.58188041308E+01 0.53006769727E+01 0.49990975818E+01
 0.48328236393E+01 0.47473857500E+01 0.47070906642E+01 0.46899825125E+01 0.46837268227E+01
 0.46822489568E+01 0.46837268227E+01 0.46899825125E+01 0.47070906642E+01 0.47473857500E+01
 0.48328236393E+01 0.49990975818E+01 0.53006769727E+01 0.58188041308E+01 0.66747266635E+01
 0.80467815522E+01 0.10182129036E+02 0.13383933874E+02 0.17949772404E+02 0.24050017241E+02
 0.31572346750E+02 0.40002221825E+02 0.48413452581E+02 0.55571163161E+02 0.60349982555E+02
 0.95327562385E+02 0.93013001150E+02 0.86287534809E+02 0.75849015891E+02 0.62929662299E+02
 0.49221423414E+02 0.36597945036E+02 0.26321251873E+02 0.18671531685E+02 0.13383933874E+02
 0.99344683702E+01 0.77745224267E+01 0.64581038419E+01 0.56718099299E+01 0.52128578888E+01
 0.49541835539E+01 0.48158089012E+01 0.47468097887E+01 0.47153191536E+01 0.47026741539E+01
 0.46994100676E+01 0.47026741539E+01 0.47153191536E+01 0.47468097887E+01 0.48158089012E+01
 0.49541835539E+01 0.52128578888E+01 0.56718099299E+01 0.64581038419E+01 0.77745224267E+01
 0.99344683702E+01 0.13383933874E+02 0.18671531685E+02 0.26321251873E+02 0.36597945036E+02
 0.49221423414E+02 0.62929662299E+02 0.75849015891E+02 0.86287534809E+02 0.93013001150E+02
 0.13187417965E+03 0.12927864528E+03 0.12151745904E+03 0.10886397759E+03 0.92233421305E+02
 0.73376746403E+02 0.54652216941E+02 0.38486143842E+02 0.26321251873E+02 0.17949772404E+02
 0.12565828778E+02 0.92671086237E+01 0.73051451658E+01 0.61567110042E+01 0.54921825376E+01
 0.51150301811E+01 0.49091290568E+01 0.48035032200E+01 0.47534132161E+01 0.47321001915E+01
 0.47262663901E+01 0.47321001915E+01 0.47534132161E+01 0.48035032200E+01 0.49091290568E+01
 0.51150301811E+01 0.54921825376E+01 0.61567110042E+01 0.73051451658E+01 0.92671086237E+01
 0.12565828778E+02 0.17949772404E+02 0.26321251873E+02 0.38486143842E+02 0.54652216941E+02
 0.73376746403E+02 0.92233421305E+02 0.10886397759E+03 0.12151745904E+03 0.12927864528E+03
 0.16253105081E+03 0.16042953486E+03 0.15367716193E+03 0.14142593914E+03 0.12350050174E+03
 0.10118321853E+03 0.77144939643E+02 0.54652216941E+02 0.36597945036E+02 0.24050017241E+02
 0.16025745733E+02 0.11183747795E+02 0.83651986371E+01 0.67514033258E+01 0.58316026688E+01
 0.53108097368E+01 0.50238833065E+01 0.48744596270E+01 0.48019017487E+01 0.47696524263E+01
 0.47604086308E+01 0.47696524263E+01 0.48019017487E+01 0.48744596270E+01 0.50238833065E+01
 0.53108097368E+01 0.58316026688E+01 0.67514033258E+01 0.83651986371E+01 0.11183747795E+02
 0.16025745733E+02 0.24050017241E+02 0.36597945036E+02 0.54652216941E+02 0.77144939643E+02
 0.10118321853E+03 0.12350050174E+03 0.14142593914E+03 0.15367716193E+03 0.16042953486E+03
 0.17674203356E+03 0.17631210494E+03 0.17372679035E+03 0.16606914252E+03 0.15097795242E+03
 0.12845765487E+03 0.10118321853E+03 0.73376746403E+02 0.49221423414E+02 0.31572346750E+02
 0.20255547238E+02 0.13484399845E+02 0.96077937557E+01 0.74330833710E+01 0.62150220288E+01
 0.55307462636E+01 0.51529414049E+01 0.49547293374E+01 0.48570098640E+01 0.48121114628E+01
 0.47987777052E+01 0.48121114628E+01 0.48570098640E+01 0.49547293374E+01 0.51529414049E+01
 0.55307462636E+01 0.62150220288E+01 0.74330833710E+01 0.96077937557E+01 0.13484399845E+02
 0.20255547238E+02 0.31572346750E+02 0.49221423414E+02 0.73376746403E+02 0.10118321853E+03
 0.12845765487E+03 0.15097795242E+03 0.16606914252E+03 0.17372679035E+03 0.17631210494E+03
 0.16709097760E+03 0.16965483511E+03 0.17482920136E+03 0.17666317931E+03 0.16944675864E+03
 0.15097795242E+03 0.12350050174E+03 0.92233421305E+02 0.62929662299E+02 0.40002221825E+02
 0.24984824332E+02 0.16024934998E+02 0.10953291535E+02 0.81556375595E+01 0.66147018760E+01
 0.57579001690E+01 0.52857979039E+01 0.50374050180E+01 0.49137695155E+01 0.48555748395E+01
 0.48378427821E+01 0.48555748395E+01 0.49137695155E+01 0.50374050180E+01 0.52857979039E+01
 0.57579001690E+01 0.66147018760E+01 0.81556375595E+01 0.10953291535E+02 0.16024934998E+02
 0.24984824332E+02 0.40002221825E+02 0.62929662299E+02 0.92233421305E+02 0.12350050174E+03
 0.15097795242E+03 0.16944675864E+03 0.17666317931E+03 0.17482920136E+03 0.16965483511E+03
 0.13444657793E+03 0.14098722247E+03 0.15664196542E+03 0.17181612680E+03 0.17666317931E+03
 0.16606914252E+03 0.14142593914E+03 0.10886397759E+03 0.75849015891E+02 0.48413452581E+02
 0.29718044236E+02 0.18548990653E+02 0.12270422643E+02 0.88501964717E+01 0.69927739230E+01
 0.59705733290E+01 0.54095691218E+01 0.51142908229E+01 0.49664660634E+01 0.48957327735E+01
 0.48738036753E+01 0.48957327735E+01 0.49664660634E+01 0.51142908229E+01 0.54095691218E+01
 0.59705733290E+01 0.69927739230E+01 0.88501964717E+01 0.12270422643E+02 0.18548990653E+02
 0.29718044236E+02 0.48413452581E+02 0.75849015891E+02 0.10886397759E+03 0.14142593914E+03
 0.16606914252E+03 0.17666317931E+03 0.17181612680E+03 0.15664196542E+03 0.14098722247E+03
 0.90073433385E+02 0.10071892937E+03 0.12728872411E+03 0.15664196542E+03 0.17482920136E+03
 0.17372679035E+03 0.15367716193E+03 0.12151745904E+03 0.86287534809E+02 0.55571163161E+02
 0.33805092799E+02 0.20720593078E+02 0.13392127284E+02 0.94334861284E+01 0.73060399625E+01
 0.61451574167E+01 0.55106720431E+01 0.51769409110E+01 0.50093186786E+01 0.49282905489E+01
 0.49029009640E+01 0.49282905489E+01 0.50093186786E+01 0.51769409110E+01 0.55106720431E+01
 0.61451574167E+01 0.73060399625E+01 0.94334861284E+01 0.13392127284E+02 0.20720593078E+02
 0.33805092799E+02 0.55571163161E+02 0.86287534809E+02 0.12151745904E+03 0.15367716193E+03
 0.17372679035E+03 0.17482920136E+03 0.15664196542E+03 0.12728872411E+03 0.10071892937E+03
 0.52083883663E+02 0.65839023502E+02 0.10071892937E+03 0.14098722247E+03 0.16965483511E+03
 0.17631210494E+03 0.16042953486E+03 0.12927864528E+03 0.93013001150E+02 0.60349982555E+02
 0.36587794585E+02 0.22197110362E+02 0.14150048398E+02 0.98239380283E+01 0.75137499792E+01
 0.62601160406E+01 0.55769901379E+01 0.52179466716E+01 0.50373189337E+01 0.49495313139E+01
 0.49218693819E+01 0.49495313139E+01 0.50373189337E+01 0.52179466716E+01 0.55769901379E+01
 0.62601160406E+01 0.75137499792E+01 0.98239380283E+01 0.14150048398E+02 0.22197110362E+02
 0.36587794585E+02 0.60349982555E+02 0.93013001150E+02 0.12927864528E+03 0.16042953486E+03
 0.17631210494E+03 0.16965483511E+03 0.14098722247E+03 0.10071892937E+03 0.65839023502E+02
 0.52083883663E+02 0.65839023502E+02 0.10071892937E+03 0.14098722247E+03 0.16965483511E+03
 0.17631210494E+03 0.16042953486E+03 0.12927864528E+03 0.93013001150E+02 0.60349982555E+02
 0.36587794585E+02 0.22197110362E+02 0.14150048398E+02 0.98239380283E+01 0.75137499792E+01
 0.62601160406E+01 0.55769901379E+01 0.52179466716E+01 0.50373189337E+01 0.49495313139E+01
 0.49218693819E+01 0.49495313139E+01 0.50373189337E+01 0.52179466716E+01 0.55769901379E+01
 0.62601160406E+01 0.75137499792E+01 0.98239380283E+01 0.14150048398E+02 0.22197110362E+02