   2   2   0   0
  0.6355286E+02  0.5027920E-09  0.5027920E-09  0.5027920E-09  0.5000000E-15
  1.000000000000000E-004
  CAR 
 Ba                                      
     25.43522730    -29.79243796  301      1.61654901      1.00000000
    -29.792  0.0000E+00  0.0000E+00
    -29.608  0.0000E+00  0.0000E+00
    -29.424  0.0000E+00  0.0000E+00
    -29.240  0.0000E+00  0.0000E+00
    -29.056  0.0000E+00  0.0000E+00
    -28.872  0.0000E+00  0.0000E+00
    -28.688  0.0000E+00  0.0000E+00
    -28.504  0.0000E+00  0.0000E+00
    -28.320  0.0000E+00  0.0000E+00
    -28.136  0.0000E+00  0.0000E+00
    -27.952  0.0000E+00  0.0000E+00
    -27.767  0.0000E+00  0.0000E+00
    -27.583  0.0000E+00  0.0000E+00
    -27.399  0.3864E-03  0.7114E-04
    -27.215  0.1651E+02  0.3039E+01
    -27.031  0.5219E+01  0.4000E+01
    -26.847  0.1704E-06  0.4000E+01
    -26.663  0.0000E+00  0.4000E+01
    -26.479  0.0000E+00  0.4000E+01
    -26.295  0.0000E+00  0.4000E+01
    -26.111  0.0000E+00  0.4000E+01
    -25.927  0.0000E+00  0.4000E+01
    -25.742  0.0000E+00  0.4000E+01
    -25.558  0.0000E+00  0.4000E+01
    -25.374  0.0000E+00  0.4000E+01
    -25.190  0.0000E+00  0.4000E+01
    -25.006  0.0000E+00  0.4000E+01
    -24.822  0.0000E+00  0.4000E+01
    -24.638  0.0000E+00  0.4000E+01
    -24.454  0.0000E+00  0.4000E+01
    -24.270  0.0000E+00  0.4000E+01
    -24.086  0.0000E+00  0.4000E+01
    -23.901  0.0000E+00  0.4000E+01
    -23.717  0.0000E+00  0.4000E+01
    -23.533  0.0000E+00  0.4000E+01
    -23.349  0.0000E+00  0.4000E+01
    -23.165  0.0000E+00  0.4000E+01
    -22.981  0.0000E+00  0.4000E+01
    -22.797  0.0000E+00  0.4000E+01
    -22.613  0.0000E+00  0.4000E+01
    -22.429  0.0000E+00  0.4000E+01
    -22.245  0.0000E+00  0.4000E+01
    -22.061  0.0000E+00  0.4000E+01
    -21.876  0.0000E+00  0.4000E+01
    -21.692  0.0000E+00  0.4000E+01
    -21.508  0.0000E+00  0.4000E+01
    -21.324  0.0000E+00  0.4000E+01
    -21.140  0.0000E+00  0.4000E+01
    -20.956  0.0000E+00  0.4000E+01
    -20.772  0.0000E+00  0.4000E+01
    -20.588  0.0000E+00  0.4000E+01
    -20.404  0.0000E+00  0.4000E+01
    -20.220  0.0000E+00  0.4000E+01
    -20.036  0.0000E+00  0.4000E+01
    -19.851  0.0000E+00  0.4000E+01
    -19.667  0.0000E+00  0.4000E+01
    -19.483  0.0000E+00  0.4000E+01
    -19.299  0.0000E+00  0.4000E+01
    -19.115  0.0000E+00  0.4000E+01
    -18.931  0.0000E+00  0.4000E+01
    -18.747  0.0000E+00  0.4000E+01
    -18.563  0.0000E+00  0.4000E+01
    -18.379  0.0000E+00  0.4000E+01
    -18.195  0.0000E+00  0.4000E+01
    -18.011  0.0000E+00  0.4000E+01
    -17.826  0.0000E+00  0.4000E+01
    -17.642  0.0000E+00  0.4000E+01
    -17.458  0.0000E+00  0.4000E+01
    -17.274  0.0000E+00  0.4000E+01
    -17.090  0.0000E+00  0.4000E+01
    -16.906  0.0000E+00  0.4000E+01
    -16.722  0.0000E+00  0.4000E+01
    -16.538  0.0000E+00  0.4000E+01
    -16.354  0.0000E+00  0.4000E+01
    -16.170  0.0000E+00  0.4000E+01
    -15.986  0.0000E+00  0.4000E+01
    -15.801  0.0000E+00  0.4000E+01
    -15.617  0.0000E+00  0.4000E+01
    -15.433  0.0000E+00  0.4000E+01
    -15.249  0.0000E+00  0.4000E+01
    -15.065  0.0000E+00  0.4000E+01
    -14.881  0.0000E+00  0.4000E+01
    -14.697  0.0000E+00  0.4000E+01
    -14.513  0.0000E+00  0.4000E+01
    -14.329  0.0000E+00  0.4000E+01
    -14.145  0.0000E+00  0.4000E+01
    -13.961  0.0000E+00  0.4000E+01
    -13.776  0.0000E+00  0.4000E+01
    -13.592  0.0000E+00  0.4000E+01
    -13.408  0.0000E+00  0.4000E+01
    -13.224  0.0000E+00  0.4000E+01
    -13.040  0.0000E+00  0.4000E+01
    -12.856  0.8898E-07  0.4000E+01
    -12.672  0.1244E+01  0.4229E+01
    -12.488  0.2105E+02  0.8104E+01
    -12.304  0.2841E+02  0.1333E+02
    -12.120  0.1448E+02  0.1600E+02
    -11.935  0.8158E-03  0.1600E+02
    -11.751  0.0000E+00  0.1600E+02
    -11.567  0.0000E+00  0.1600E+02
    -11.383  0.0000E+00  0.1600E+02
    -11.199  0.0000E+00  0.1600E+02
    -11.015  0.0000E+00  0.1600E+02
    -10.831  0.0000E+00  0.1600E+02
    -10.647  0.0000E+00  0.1600E+02
    -10.463  0.0000E+00  0.1600E+02
    -10.279  0.0000E+00  0.1600E+02
    -10.095  0.0000E+00  0.1600E+02
     -9.910  0.0000E+00  0.1600E+02
     -9.726  0.0000E+00  0.1600E+02
     -9.542  0.0000E+00  0.1600E+02
     -9.358  0.0000E+00  0.1600E+02
     -9.174  0.0000E+00  0.1600E+02
     -8.990  0.0000E+00  0.1600E+02
     -8.806  0.0000E+00  0.1600E+02
     -8.622  0.0000E+00  0.1600E+02
     -8.438  0.0000E+00  0.1600E+02
     -8.254  0.0000E+00  0.1600E+02
     -8.070  0.0000E+00  0.1600E+02
     -7.885  0.0000E+00  0.1600E+02
     -7.701  0.0000E+00  0.1600E+02
     -7.517  0.0000E+00  0.1600E+02
     -7.333  0.0000E+00  0.1600E+02
     -7.149  0.0000E+00  0.1600E+02
     -6.965  0.0000E+00  0.1600E+02
     -6.781  0.0000E+00  0.1600E+02
     -6.597  0.0000E+00  0.1600E+02
     -6.413  0.0000E+00  0.1600E+02
     -6.229  0.0000E+00  0.1600E+02
     -6.045  0.0000E+00  0.1600E+02
     -5.860  0.0000E+00  0.1600E+02
     -5.676  0.0000E+00  0.1600E+02
     -5.492  0.0000E+00  0.1600E+02
     -5.308  0.0000E+00  0.1600E+02
     -5.124  0.0000E+00  0.1600E+02
     -4.940  0.0000E+00  0.1600E+02
     -4.756  0.0000E+00  0.1600E+02
     -4.572  0.0000E+00  0.1600E+02
     -4.388  0.0000E+00  0.1600E+02
     -4.204  0.0000E+00  0.1600E+02
     -4.020  0.0000E+00  0.1600E+02
     -3.835  0.0000E+00  0.1600E+02
     -3.651  0.0000E+00  0.1600E+02
     -3.467  0.0000E+00  0.1600E+02
     -3.283  0.0000E+00  0.1600E+02
     -3.099  0.0000E+00  0.1600E+02
     -2.915  0.0000E+00  0.1600E+02
     -2.731  0.0000E+00  0.1600E+02
     -2.547  0.0000E+00  0.1600E+02
     -2.363  0.0000E+00  0.1600E+02
     -2.179  0.0000E+00  0.1600E+02
     -1.995  0.0000E+00  0.1600E+02
     -1.810  0.0000E+00  0.1600E+02
     -1.626  0.0000E+00  0.1600E+02
     -1.442  0.0000E+00  0.1600E+02
     -1.258  0.8045E-06  0.1600E+02
     -1.074  0.2185E-01  0.1600E+02
     -0.890  0.1578E+00  0.1603E+02
     -0.706  0.3186E+00  0.1609E+02
     -0.522  0.3441E+00  0.1616E+02
     -0.338  0.4623E+00  0.1624E+02
     -0.154  0.4518E+00  0.1632E+02
      0.031  0.8125E+00  0.1647E+02
      0.215  0.7191E+00  0.1661E+02
      0.399  0.1054E+01  0.1680E+02
      0.583  0.1215E+01  0.1702E+02
      0.767  0.1779E+01  0.1735E+02
      0.951  0.2804E+01  0.1787E+02
      1.135  0.2601E+01  0.1835E+02
      1.319  0.3505E+01  0.1899E+02
      1.503  0.4054E+01  0.1974E+02
      1.687  0.2598E+01  0.2022E+02
      1.871  0.1561E+01  0.2050E+02
      2.056  0.2530E+01  0.2097E+02
      2.240  0.6488E+01  0.2216E+02
      2.424  0.8101E+01  0.2365E+02
      2.608  0.7867E+01  0.2510E+02
      2.792  0.5390E+01  0.2609E+02
      2.976  0.3420E+01  0.2672E+02
      3.160  0.2561E+01  0.2720E+02
      3.344  0.2065E+01  0.2758E+02
      3.528  0.1115E+01  0.2778E+02
      3.712  0.1845E+01  0.2812E+02
      3.896  0.2176E+01  0.2852E+02
      4.081  0.3076E+01  0.2909E+02
      4.265  0.2657E+01  0.2958E+02
      4.449  0.3931E+01  0.3030E+02
      4.633  0.3442E+01  0.3093E+02
      4.817  0.4546E+01  0.3177E+02
      5.001  0.5130E+01  0.3272E+02
      5.185  0.6179E+01  0.3385E+02
      5.369  0.1018E+02  0.3573E+02
      5.553  0.6775E+01  0.3697E+02
      5.737  0.1479E+01  0.3725E+02
      5.921  0.2253E+01  0.3766E+02
      6.106  0.1093E+01  0.3786E+02
      6.290  0.2227E+01  0.3827E+02
      6.474  0.1737E+01  0.3859E+02
      6.658  0.2344E+01  0.3902E+02
      6.842  0.2966E+01  0.3957E+02
      7.026  0.1801E+01  0.3990E+02
      7.210  0.1346E+01  0.4015E+02
      7.394  0.2511E+01  0.4061E+02
      7.578  0.2743E+01  0.4112E+02
      7.762  0.3426E+01  0.4175E+02
      7.946  0.3430E+01  0.4238E+02
      8.131  0.2962E+01  0.4292E+02
      8.315  0.3013E+01  0.4348E+02
      8.499  0.4721E+01  0.4435E+02
      8.683  0.4109E+01  0.4510E+02
      8.867  0.2699E+01  0.4560E+02
      9.051  0.3002E+01  0.4615E+02
      9.235  0.3588E+01  0.4681E+02
      9.419  0.5088E+01  0.4775E+02
      9.603  0.3155E+01  0.4833E+02
      9.787  0.3362E+01  0.4895E+02
      9.971  0.4002E+01  0.4969E+02
     10.156  0.3555E+01  0.5034E+02
     10.340  0.2692E+01  0.5084E+02
     10.524  0.2108E+01  0.5123E+02
     10.708  0.2118E+01  0.5162E+02
     10.892  0.2319E+01  0.5204E+02
     11.076  0.1954E+01  0.5240E+02
     11.260  0.2416E+01  0.5285E+02
     11.444  0.5038E+01  0.5377E+02
     11.628  0.4625E+01  0.5463E+02
     11.812  0.3736E+01  0.5531E+02
     11.996  0.2856E+01  0.5584E+02
     12.181  0.3463E+01  0.5648E+02
     12.365  0.2013E+01  0.5685E+02
     12.549  0.2969E+01  0.5739E+02
     12.733  0.4293E+01  0.5818E+02
     12.917  0.4714E+01  0.5905E+02
     13.101  0.3211E+01  0.5964E+02
     13.285  0.3099E+01  0.6021E+02
     13.469  0.3070E+01  0.6078E+02
     13.653  0.1866E+01  0.6112E+02
     13.837  0.3560E+01  0.6178E+02
     14.022  0.3931E+01  0.6250E+02
     14.206  0.6572E+01  0.6371E+02
     14.390  0.5087E+01  0.6465E+02
     14.574  0.3946E+01  0.6537E+02
     14.758  0.4271E+01  0.6616E+02
     14.942  0.3488E+01  0.6680E+02
     15.126  0.2939E+01  0.6734E+02
     15.310  0.2903E+01  0.6788E+02
     15.494  0.2950E+01  0.6842E+02
     15.678  0.4850E+01  0.6931E+02
     15.862  0.3828E+01  0.7002E+02
     16.047  0.2855E+01  0.7054E+02
     16.231  0.4415E+01  0.7136E+02
     16.415  0.3749E+01  0.7205E+02
     16.599  0.3927E+01  0.7277E+02
     16.783  0.4186E+01  0.7354E+02
     16.967  0.4030E+01  0.7428E+02
     17.151  0.4593E+01  0.7513E+02
     17.335  0.5733E+01  0.7618E+02
     17.519  0.4053E+01  0.7693E+02
     17.703  0.4338E+01  0.7773E+02
     17.887  0.5107E+01  0.7867E+02
     18.072  0.3963E+01  0.7940E+02
     18.256  0.3624E+01  0.8006E+02
     18.440  0.5015E+01  0.8099E+02
     18.624  0.4278E+01  0.8178E+02
     18.808  0.4534E+01  0.8261E+02
     18.992  0.5137E+01  0.8356E+02
     19.176  0.5492E+01  0.8457E+02
     19.360  0.2995E+01  0.8512E+02
     19.544  0.3763E+01  0.8581E+02
     19.728  0.4696E+01  0.8668E+02
     19.912  0.3916E+01  0.8740E+02
     20.097  0.4357E+01  0.8820E+02
     20.281  0.4574E+01  0.8904E+02
     20.465  0.3788E+01  0.8974E+02
     20.649  0.2814E+01  0.9026E+02
     20.833  0.3632E+01  0.9092E+02
     21.017  0.4710E+01  0.9179E+02
     21.201  0.4897E+01  0.9269E+02
     21.385  0.3413E+01  0.9332E+02
     21.569  0.4228E+01  0.9410E+02
     21.753  0.4816E+01  0.9499E+02
     21.937  0.2127E+01  0.9538E+02
     22.122  0.1413E+01  0.9564E+02
     22.306  0.7912E+00  0.9578E+02
     22.490  0.1616E+00  0.9581E+02
     22.674  0.6694E+00  0.9594E+02
     22.858  0.2650E+00  0.9599E+02
     23.042  0.7787E-01  0.9600E+02
     23.226  0.1739E-04  0.9600E+02
     23.410  0.0000E+00  0.9600E+02
     23.594  0.0000E+00  0.9600E+02
     23.778  0.0000E+00  0.9600E+02
     23.962  0.0000E+00  0.9600E+02
     24.147  0.0000E+00  0.9600E+02
     24.331  0.0000E+00  0.9600E+02
     24.515  0.0000E+00  0.9600E+02
     24.699  0.0000E+00  0.9600E+02
     24.883  0.0000E+00  0.9600E+02
     25.067  0.0000E+00  0.9600E+02
     25.251  0.0000E+00  0.9600E+02
     25.435  0.0000E+00  0.9600E+02
