 vasp.6.4.3 19Mar24 (build Jun 26 2024 13:02:28) complex                        
  
 executed on             LinuxIFC date 2025.08.08  18:53:30
 running   48 mpi-ranks, on    4 nodes
 distrk:  each k-point on   48 cores,    1 groups
 distr:  one band on NCORE=   1 cores,   48 groups


--------------------------------------------------------------------------------------------------------


 INCAR:
   ENCUT = 243.33530000000002
   IBRION = -1
   ISMEAR = 0
   ISYM = 2
   LCHARG = True
   LWAVE = True
   SIGMA = 0.05
   SYSTEM = Ba

 POTCAR:  PAW_PBE Ba_sv 06Sep2000                 
 -----------------------------------------------------------------------------
|                                                                             |
|           W    W    AA    RRRRR   N    N  II  N    N   GGGG   !!!           |
|           W    W   A  A   R    R  NN   N  II  NN   N  G    G  !!!           |
|           W    W  A    A  R    R  N N  N  II  N N  N  G       !!!           |
|           W WW W  AAAAAA  RRRRR   N  N N  II  N  N N  G  GGG   !            |
|           WW  WW  A    A  R   R   N   NN  II  N   NN  G    G                |
|           W    W  A    A  R    R  N    N  II  N    N   GGGG   !!!           |
|                                                                             |
|     For optimal performance we recommend to set                             |
|       NCORE = 2 up to number-of-cores-per-socket                            |
|     NCORE specifies how many cores store one orbital (NPAR=cpu/NCORE).      |
|     This setting can greatly improve the performance of VASP for DFT.       |
|     The default, NCORE=1 might be grossly inefficient on modern             |
|     multi-core architectures or massively parallel machines. Do your        |
|     own testing! More info at https://www.vasp.at/wiki/index.php/NCORE      |
|     Unfortunately you need to use the default for GW and RPA                |
|     calculations (for HF NCORE is supported but not extensively tested      |
|     yet).                                                                   |
|                                                                             |
 -----------------------------------------------------------------------------

 POTCAR:  PAW_PBE Ba_sv 06Sep2000                 
   VRHFIN =Ba: 5s5p6s                                                                               
   LEXCH  = PE                                                                                      
   EATOM  =   700.8560 eV,   51.5115 Ry                                                             
                                                                                                    
   TITEL  = PAW_PBE Ba_sv 06Sep2000                                                                 
   LULTRA =        F    use ultrasoft PP ?                                                          
   IUNSCR =        1    unscreen: 0-lin 1-nonlin 2-no                                               
   RPACOR =    2.400    partial core radius                                                         
   POMASS =  137.327; ZVAL   =   10.000    mass and valenz                                          
   RCORE  =    2.800    outmost cutoff radius                                                       
   RWIGS  =    3.740; RWIGS  =    1.979    wigner-seitz radius (au A)                               
   ENMAX  =  187.181; ENMIN  =  140.386 eV                                                          
   RCLOC  =    2.516    cutoff for local pot                                                        
   LCOR   =        T    correct aug charges                                                         
   LPAW   =        T    paw PP                                                                      
   EAUG   =  351.165                                                                                
   DEXC   =    0.000                                                                                
   RMAX   =    2.865    core radius for proj-oper                                                   
   RAUG   =    1.300    factor for augmentation sphere                                              
   RDEP   =    2.976    radius for radial grids                                                     
   RDEPT  =    2.289    core radius for aug-charge                                                  
                                                                                                    
   Atomic configuration                                                                             
   13 entries                                                                                       
     n  l   j            E        occ.                                                              
     1  0  0.50    -37249.5946   2.0000                                                             
     2  0  0.50     -5887.1925   2.0000                                                             
     2  1  1.50     -5278.3977   6.0000                                                             
     3  0  0.50     -1242.7293   2.0000                                                             
     3  1  1.50     -1047.6609   6.0000                                                             
     3  2  2.50      -764.6158  10.0000                                                             
     4  0  0.50      -243.8228   2.0000                                                             
     4  1  1.50      -180.9218   6.0000                                                             
     4  2  2.50       -89.6477  10.0000                                                             
     5  0  0.50       -33.6549   2.0000                                                             
     6  0  0.50        -3.2247   1.9900                                                             
     5  1  1.50       -18.7193   6.0000                                                             
     5  2  2.50        -2.0115   0.0100                                                             
   Description                                                                                      
     l       E           TYP  RCUT    TYP  RCUT                                                     
     0    -33.6549039     23  2.800                                                                 
     0     -3.2246942     23  2.800                                                                 
     1    -18.7193050     23  2.700                                                                 
     1     27.2116520     23  2.700                                                                 
     2     -2.0115002     23  2.700                                                                 
     2      0.3057420     23  2.700                                                                 
  local pseudopotential read in
  partial core-charges read in
  partial kinetic energy density read in
  atomic valenz-charges read in
  non local Contribution for L=           0  read in
    real space projection operators read in
  non local Contribution for L=           0  read in
    real space projection operators read in
  non local Contribution for L=           1  read in
    real space projection operators read in
  non local Contribution for L=           1  read in
    real space projection operators read in
  non local Contribution for L=           2  read in
    real space projection operators read in
  non local Contribution for L=           2  read in
    real space projection operators read in
    PAW grid and wavefunctions read in
 
   number of l-projection  operators is LMAX  =           6
   number of lm-projection operators is LMMAX =          18
 
PAW_PBE Ba_sv 06Sep2000                 :
 energy of atom  1       EATOM= -700.8560
 kinetic energy error for atom=    0.0097 (will be added to EATOM!!)
 
 
 POSCAR: Ba2
  positions in direct lattice
  No initial velocities read in


 exchange-correlation table for PE
   RHO(1)=    0.500       N(1)  =     2000
   RHO(2)=  100.500       N(2)  =     4000
 


--------------------------------------------------------------------------------------------------------


 ion  position               nearest neighbor table
   1  0.000  0.000  0.000-   2 4.35   2 4.35   2 4.35   2 4.35   2 4.35   2 4.35   2 4.35   2 4.35

   2  0.500  0.500  0.500-   1 4.35   1 4.35   1 4.35   1 4.35   1 4.35   1 4.35   1 4.35   1 4.35

 
  LATTYP: Found a simple cubic cell.
 ALAT       =     5.0279200000
  
  Lattice vectors:
  
 A1 = (   5.0279200000,   0.0000000000,   0.0000000000)
 A2 = (   0.0000000000,   5.0279200000,   0.0000000000)
 A3 = (   0.0000000000,   0.0000000000,   5.0279200000)


Analysis of symmetry for initial positions (statically):
=====================================================================
 Subroutine PRICEL returns following result:
 
  LATTYP: Found a body centered cubic cell.
 ALAT       =     5.0279200000
  
  Lattice vectors:
  
 A1 = (   2.5139600000,   2.5139600000,  -2.5139600000)
 A2 = (  -2.5139600000,   2.5139600000,   2.5139600000)
 A3 = (   2.5139600000,  -2.5139600000,   2.5139600000)
 
   2 primitive cells build up your supercell.
 

 Routine SETGRP: Setting up the symmetry group for a 
 simple cubic supercell.


 Subroutine GETGRP returns: Found 48 space group operations
 (whereof 48 operations were pure point group operations)
 out of a pool of 48 trial point group operations.


The static configuration has the point symmetry O_h .


Analysis of symmetry for dynamics (positions and initial velocities):
=====================================================================
 Subroutine PRICEL returns following result:
 
  LATTYP: Found a body centered cubic cell.
 ALAT       =     5.0279200000
  
  Lattice vectors:
  
 A1 = (   2.5139600000,   2.5139600000,  -2.5139600000)
 A2 = (  -2.5139600000,   2.5139600000,   2.5139600000)
 A3 = (   2.5139600000,  -2.5139600000,   2.5139600000)
 
   2 primitive cells build up your supercell.
 

 Routine SETGRP: Setting up the symmetry group for a 
 simple cubic supercell.


 Subroutine GETGRP returns: Found 48 space group operations
 (whereof 48 operations were pure point group operations)
 out of a pool of 48 trial point group operations.


The dynamic configuration has the point symmetry O_h .


 Subroutine INISYM returns: Found 48 space group operations
 (whereof 48 operations are pure point group operations),
 and found     2 'primitive' translations


----------------------------------------------------------------------------------------

                                     Primitive cell                                     

  volume of cell :      63.5529

  direct lattice vectors                    reciprocal lattice vectors
     2.513960000  2.513960000 -2.513960000     0.198889402  0.198889402 -0.000000000
    -2.513960000  2.513960000  2.513960000    -0.000000000  0.198889402  0.198889402
     2.513960000 -2.513960000  2.513960000     0.198889402 -0.000000000  0.198889402

  length of vectors
     4.354306448  4.354306448  4.354306448     0.281272089  0.281272089  0.281272089

  position of ions in fractional coordinates (direct lattice)
     0.000000000  0.000000000  0.000000000

  ion indices of the primitive-cell ions
   primitive index   ion index
                 1           1

----------------------------------------------------------------------------------------

 
 
 KPOINTS: Automatic kpoint scheme                 

Automatic generation of k-mesh.
 Grid dimensions read from file:
 generate k-points for:   12   12   12

 Generating k-lattice:

  Cartesian coordinates                     Fractional coordinates (reciprocal lattice)
     0.016574117 -0.000000000  0.000000000     0.083333333  0.000000000  0.000000000
     0.000000000  0.016574117  0.000000000     0.000000000  0.083333333  0.000000000
    -0.000000000 -0.000000000  0.016574117     0.000000000 -0.000000000  0.083333333

  Length of vectors
     0.016574117  0.016574117  0.016574117

  Shift w.r.t. Gamma in fractional coordinates (k-lattice)
     0.000000000  0.000000000  0.000000000

 
 Subroutine IBZKPT returns following result:
 ===========================================
 
 Found     84 irreducible k-points:
 
 Following reciprocal coordinates:
            Coordinates               Weight
  0.000000  0.000000  0.000000      1.000000
  0.083333  0.000000  0.000000      6.000000
  0.166667  0.000000  0.000000      6.000000
  0.250000  0.000000  0.000000      6.000000
  0.333333  0.000000  0.000000      6.000000
  0.416667  0.000000  0.000000      6.000000
  0.500000  0.000000  0.000000      3.000000
  0.083333  0.083333  0.000000     12.000000
  0.166667  0.083333  0.000000     24.000000
  0.250000  0.083333  0.000000     24.000000
  0.333333  0.083333  0.000000     24.000000
  0.416667  0.083333  0.000000     24.000000
  0.500000  0.083333  0.000000     12.000000
  0.166667  0.166667  0.000000     12.000000
  0.250000  0.166667  0.000000     24.000000
  0.333333  0.166667  0.000000     24.000000
  0.416667  0.166667  0.000000     24.000000
  0.500000  0.166667  0.000000     12.000000
  0.250000  0.250000  0.000000     12.000000
  0.333333  0.250000  0.000000     24.000000
  0.416667  0.250000  0.000000     24.000000
  0.500000  0.250000  0.000000     12.000000
  0.333333  0.333333  0.000000     12.000000
  0.416667  0.333333  0.000000     24.000000
  0.500000  0.333333  0.000000     12.000000
  0.416667  0.416667  0.000000     12.000000
  0.500000  0.416667  0.000000     12.000000
  0.500000  0.500000  0.000000      3.000000
  0.083333  0.083333  0.083333      8.000000
  0.166667  0.083333  0.083333     24.000000
  0.250000  0.083333  0.083333     24.000000
  0.333333  0.083333  0.083333     24.000000
  0.416667  0.083333  0.083333     24.000000
  0.500000  0.083333  0.083333     12.000000
  0.166667  0.166667  0.083333     24.000000
  0.250000  0.166667  0.083333     48.000000
  0.333333  0.166667  0.083333     48.000000
  0.416667  0.166667  0.083333     48.000000
  0.500000  0.166667  0.083333     24.000000
  0.250000  0.250000  0.083333     24.000000
  0.333333  0.250000  0.083333     48.000000
  0.416667  0.250000  0.083333     48.000000
  0.500000  0.250000  0.083333     24.000000
  0.333333  0.333333  0.083333     24.000000
  0.416667  0.333333  0.083333     48.000000
  0.500000  0.333333  0.083333     24.000000
  0.416667  0.416667  0.083333     24.000000
  0.500000  0.416667  0.083333     24.000000
  0.500000  0.500000  0.083333      6.000000
  0.166667  0.166667  0.166667      8.000000
  0.250000  0.166667  0.166667     24.000000
  0.333333  0.166667  0.166667     24.000000
  0.416667  0.166667  0.166667     24.000000
  0.500000  0.166667  0.166667     12.000000
  0.250000  0.250000  0.166667     24.000000
  0.333333  0.250000  0.166667     48.000000
  0.416667  0.250000  0.166667     48.000000
  0.500000  0.250000  0.166667     24.000000
  0.333333  0.333333  0.166667     24.000000
  0.416667  0.333333  0.166667     48.000000
  0.500000  0.333333  0.166667     24.000000
  0.416667  0.416667  0.166667     24.000000
  0.500000  0.416667  0.166667     24.000000
  0.500000  0.500000  0.166667      6.000000
  0.250000  0.250000  0.250000      8.000000
  0.333333  0.250000  0.250000     24.000000
  0.416667  0.250000  0.250000     24.000000
  0.500000  0.250000  0.250000     12.000000
  0.333333  0.333333  0.250000     24.000000
  0.416667  0.333333  0.250000     48.000000
  0.500000  0.333333  0.250000     24.000000
  0.416667  0.416667  0.250000     24.000000
  0.500000  0.416667  0.250000     24.000000
  0.500000  0.500000  0.250000      6.000000
  0.333333  0.333333  0.333333      8.000000
  0.416667  0.333333  0.333333     24.000000
  0.500000  0.333333  0.333333     12.000000
  0.416667  0.416667  0.333333     24.000000
  0.500000  0.416667  0.333333     24.000000
  0.500000  0.500000  0.333333      6.000000
  0.416667  0.416667  0.416667      8.000000
  0.500000  0.416667  0.416667     12.000000
  0.500000  0.500000  0.416667      6.000000
  0.500000  0.500000  0.500000      1.000000
 
 Following cartesian coordinates:
            Coordinates               Weight
  0.000000  0.000000  0.000000      1.000000
  0.016574 -0.000000  0.000000      6.000000
  0.033148 -0.000000  0.000000      6.000000
  0.049722 -0.000000  0.000000      6.000000
  0.066296 -0.000000  0.000000      6.000000
  0.082871 -0.000000  0.000000      6.000000
  0.099445 -0.000000  0.000000      3.000000
  0.016574  0.016574  0.000000     12.000000
  0.033148  0.016574  0.000000     24.000000
  0.049722  0.016574  0.000000     24.000000
  0.066296  0.016574  0.000000     24.000000
  0.082871  0.016574  0.000000     24.000000
  0.099445  0.016574  0.000000     12.000000
  0.033148  0.033148  0.000000     12.000000
  0.049722  0.033148  0.000000     24.000000
  0.066296  0.033148  0.000000     24.000000
  0.082871  0.033148  0.000000     24.000000
  0.099445  0.033148  0.000000     12.000000
  0.049722  0.049722  0.000000     12.000000
  0.066296  0.049722  0.000000     24.000000
  0.082871  0.049722  0.000000     24.000000
  0.099445  0.049722  0.000000     12.000000
  0.066296  0.066296  0.000000     12.000000
  0.082871  0.066296  0.000000     24.000000
  0.099445  0.066296  0.000000     12.000000
  0.082871  0.082871  0.000000     12.000000
  0.099445  0.082871  0.000000     12.000000
  0.099445  0.099445  0.000000      3.000000
  0.016574  0.016574  0.016574      8.000000
  0.033148  0.016574  0.016574     24.000000
  0.049722  0.016574  0.016574     24.000000
  0.066296  0.016574  0.016574     24.000000
  0.082871  0.016574  0.016574     24.000000
  0.099445  0.016574  0.016574     12.000000
  0.033148  0.033148  0.016574     24.000000
  0.049722  0.033148  0.016574     48.000000
  0.066296  0.033148  0.016574     48.000000
  0.082871  0.033148  0.016574     48.000000
  0.099445  0.033148  0.016574     24.000000
  0.049722  0.049722  0.016574     24.000000
  0.066296  0.049722  0.016574     48.000000
  0.082871  0.049722  0.016574     48.000000
  0.099445  0.049722  0.016574     24.000000
  0.066296  0.066296  0.016574     24.000000
  0.082871  0.066296  0.016574     48.000000
  0.099445  0.066296  0.016574     24.000000
  0.082871  0.082871  0.016574     24.000000
  0.099445  0.082871  0.016574     24.000000
  0.099445  0.099445  0.016574      6.000000
  0.033148  0.033148  0.033148      8.000000
  0.049722  0.033148  0.033148     24.000000
  0.066296  0.033148  0.033148     24.000000
  0.082871  0.033148  0.033148     24.000000
  0.099445  0.033148  0.033148     12.000000
  0.049722  0.049722  0.033148     24.000000
  0.066296  0.049722  0.033148     48.000000
  0.082871  0.049722  0.033148     48.000000
  0.099445  0.049722  0.033148     24.000000
  0.066296  0.066296  0.033148     24.000000
  0.082871  0.066296  0.033148     48.000000
  0.099445  0.066296  0.033148     24.000000
  0.082871  0.082871  0.033148     24.000000
  0.099445  0.082871  0.033148     24.000000
  0.099445  0.099445  0.033148      6.000000
  0.049722  0.049722  0.049722      8.000000
  0.066296  0.049722  0.049722     24.000000
  0.082871  0.049722  0.049722     24.000000
  0.099445  0.049722  0.049722     12.000000
  0.066296  0.066296  0.049722     24.000000
  0.082871  0.066296  0.049722     48.000000
  0.099445  0.066296  0.049722     24.000000
  0.082871  0.082871  0.049722     24.000000
  0.099445  0.082871  0.049722     24.000000
  0.099445  0.099445  0.049722      6.000000
  0.066296  0.066296  0.066296      8.000000
  0.082871  0.066296  0.066296     24.000000
  0.099445  0.066296  0.066296     12.000000
  0.082871  0.082871  0.066296     24.000000
  0.099445  0.082871  0.066296     24.000000
  0.099445  0.099445  0.066296      6.000000
  0.082871  0.082871  0.082871      8.000000
  0.099445  0.082871  0.082871     12.000000
  0.099445  0.099445  0.082871      6.000000
  0.099445  0.099445  0.099445      1.000000
 
 
 Subroutine IBZKPT_HF returns following result:
 ==============================================
 
 Found   1728 k-points in 1st BZ
 the following   1728 k-points will be used (e.g. in the exchange kernel)
 Following reciprocal coordinates:   # in IRBZ
  0.000000  0.000000  0.000000    0.00057870   1 t-inv F
  0.083333  0.000000  0.000000    0.00057870   2 t-inv F
  0.166667  0.000000  0.000000    0.00057870   3 t-inv F
  0.250000  0.000000  0.000000    0.00057870   4 t-inv F
  0.333333  0.000000  0.000000    0.00057870   5 t-inv F
  0.416667  0.000000  0.000000    0.00057870   6 t-inv F
  0.500000  0.000000  0.000000    0.00057870   7 t-inv F
  0.083333  0.083333  0.000000    0.00057870   8 t-inv F
  0.166667  0.083333  0.000000    0.00057870   9 t-inv F
  0.250000  0.083333  0.000000    0.00057870  10 t-inv F
  0.333333  0.083333  0.000000    0.00057870  11 t-inv F
  0.416667  0.083333  0.000000    0.00057870  12 t-inv F
  0.500000  0.083333  0.000000    0.00057870  13 t-inv F
  0.166667  0.166667  0.000000    0.00057870  14 t-inv F
  0.250000  0.166667  0.000000    0.00057870  15 t-inv F
  0.333333  0.166667  0.000000    0.00057870  16 t-inv F
  0.416667  0.166667  0.000000    0.00057870  17 t-inv F
  0.500000  0.166667  0.000000    0.00057870  18 t-inv F
  0.250000  0.250000  0.000000    0.00057870  19 t-inv F
  0.333333  0.250000  0.000000    0.00057870  20 t-inv F
  0.416667  0.250000  0.000000    0.00057870  21 t-inv F
  0.500000  0.250000  0.000000    0.00057870  22 t-inv F
  0.333333  0.333333  0.000000    0.00057870  23 t-inv F
  0.416667  0.333333  0.000000    0.00057870  24 t-inv F
  0.500000  0.333333  0.000000    0.00057870  25 t-inv F
  0.416667  0.416667  0.000000    0.00057870  26 t-inv F
  0.500000  0.416667  0.000000    0.00057870  27 t-inv F
  0.500000  0.500000  0.000000    0.00057870  28 t-inv F
  0.083333  0.083333  0.083333    0.00057870  29 t-inv F
  0.166667  0.083333  0.083333    0.00057870  30 t-inv F
  0.250000  0.083333  0.083333    0.00057870  31 t-inv F
  0.333333  0.083333  0.083333    0.00057870  32 t-inv F
  0.416667  0.083333  0.083333    0.00057870  33 t-inv F
  0.500000  0.083333  0.083333    0.00057870  34 t-inv F
  0.166667  0.166667  0.083333    0.00057870  35 t-inv F
  0.250000  0.166667  0.083333    0.00057870  36 t-inv F
  0.333333  0.166667  0.083333    0.00057870  37 t-inv F
  0.416667  0.166667  0.083333    0.00057870  38 t-inv F
  0.500000  0.166667  0.083333    0.00057870  39 t-inv F
  0.250000  0.250000  0.083333    0.00057870  40 t-inv F
  0.333333  0.250000  0.083333    0.00057870  41 t-inv F
  0.416667  0.250000  0.083333    0.00057870  42 t-inv F
  0.500000  0.250000  0.083333    0.00057870  43 t-inv F
  0.333333  0.333333  0.083333    0.00057870  44 t-inv F
  0.416667  0.333333  0.083333    0.00057870  45 t-inv F
  0.500000  0.333333  0.083333    0.00057870  46 t-inv F
  0.416667  0.416667  0.083333    0.00057870  47 t-inv F
  0.500000  0.416667  0.083333    0.00057870  48 t-inv F
  0.500000  0.500000  0.083333    0.00057870  49 t-inv F
  0.166667  0.166667  0.166667    0.00057870  50 t-inv F
  0.250000  0.166667  0.166667    0.00057870  51 t-inv F
  0.333333  0.166667  0.166667    0.00057870  52 t-inv F
  0.416667  0.166667  0.166667    0.00057870  53 t-inv F
  0.500000  0.166667  0.166667    0.00057870  54 t-inv F
  0.250000  0.250000  0.166667    0.00057870  55 t-inv F
  0.333333  0.250000  0.166667    0.00057870  56 t-inv F
  0.416667  0.250000  0.166667    0.00057870  57 t-inv F
  0.500000  0.250000  0.166667    0.00057870  58 t-inv F
  0.333333  0.333333  0.166667    0.00057870  59 t-inv F
  0.416667  0.333333  0.166667    0.00057870  60 t-inv F
  0.500000  0.333333  0.166667    0.00057870  61 t-inv F
  0.416667  0.416667  0.166667    0.00057870  62 t-inv F
  0.500000  0.416667  0.166667    0.00057870  63 t-inv F
  0.500000  0.500000  0.166667    0.00057870  64 t-inv F
  0.250000  0.250000  0.250000    0.00057870  65 t-inv F
  0.333333  0.250000  0.250000    0.00057870  66 t-inv F
  0.416667  0.250000  0.250000    0.00057870  67 t-inv F
  0.500000  0.250000  0.250000    0.00057870  68 t-inv F
  0.333333  0.333333  0.250000    0.00057870  69 t-inv F
  0.416667  0.333333  0.250000    0.00057870  70 t-inv F
  0.500000  0.333333  0.250000    0.00057870  71 t-inv F
  0.416667  0.416667  0.250000    0.00057870  72 t-inv F
  0.500000  0.416667  0.250000    0.00057870  73 t-inv F
  0.500000  0.500000  0.250000    0.00057870  74 t-inv F
  0.333333  0.333333  0.333333    0.00057870  75 t-inv F
  0.416667  0.333333  0.333333    0.00057870  76 t-inv F
  0.500000  0.333333  0.333333    0.00057870  77 t-inv F
  0.416667  0.416667  0.333333    0.00057870  78 t-inv F
  0.500000  0.416667  0.333333    0.00057870  79 t-inv F
  0.500000  0.500000  0.333333    0.00057870  80 t-inv F
  0.416667  0.416667  0.416667    0.00057870  81 t-inv F
  0.500000  0.416667  0.416667    0.00057870  82 t-inv F
  0.500000  0.500000  0.416667    0.00057870  83 t-inv F
  0.500000  0.500000  0.500000    0.00057870  84 t-inv F
 -0.083333 -0.000000  0.000000    0.00057870   2 t-inv F
  0.000000  0.083333  0.000000    0.00057870   2 t-inv F
  0.000000 -0.083333 -0.000000    0.00057870   2 t-inv F
  0.000000  0.000000  0.083333    0.00057870   2 t-inv F
 -0.000000  0.000000 -0.083333    0.00057870   2 t-inv F
 -0.166667 -0.000000  0.000000    0.00057870   3 t-inv F
  0.000000  0.166667  0.000000    0.00057870   3 t-inv F
  0.000000 -0.166667 -0.000000    0.00057870   3 t-inv F
  0.000000  0.000000  0.166667    0.00057870   3 t-inv F
 -0.000000  0.000000 -0.166667    0.00057870   3 t-inv F
 -0.250000 -0.000000  0.000000    0.00057870   4 t-inv F
  0.000000  0.250000  0.000000    0.00057870   4 t-inv F
  0.000000 -0.250000 -0.000000    0.00057870   4 t-inv F
  0.000000  0.000000  0.250000    0.00057870   4 t-inv F
 -0.000000  0.000000 -0.250000    0.00057870   4 t-inv F
 -0.333333 -0.000000  0.000000    0.00057870   5 t-inv F
  0.000000  0.333333  0.000000    0.00057870   5 t-inv F
  0.000000 -0.333333 -0.000000    0.00057870   5 t-inv F
  0.000000  0.000000  0.333333    0.00057870   5 t-inv F
 -0.000000  0.000000 -0.333333    0.00057870   5 t-inv F
 -0.416667 -0.000000  0.000000    0.00057870   6 t-inv F
  0.000000  0.416667  0.000000    0.00057870   6 t-inv F
  0.000000 -0.416667 -0.000000    0.00057870   6 t-inv F
  0.000000  0.000000  0.416667    0.00057870   6 t-inv F
 -0.000000  0.000000 -0.416667    0.00057870   6 t-inv F
  0.000000  0.500000  0.000000    0.00057870   7 t-inv F
  0.000000  0.000000  0.500000    0.00057870   7 t-inv F
 -0.083333 -0.083333  0.000000    0.00057870   8 t-inv F
  0.000000  0.083333  0.083333    0.00057870   8 t-inv F
  0.000000 -0.083333 -0.083333    0.00057870   8 t-inv F
  0.083333  0.000000  0.083333    0.00057870   8 t-inv F
 -0.083333  0.000000 -0.083333    0.00057870   8 t-inv F
 -0.083333  0.083333  0.000000    0.00057870   8 t-inv F
  0.083333 -0.083333  0.000000    0.00057870   8 t-inv F
 -0.083333  0.000000  0.083333    0.00057870   8 t-inv F
  0.083333  0.000000 -0.083333    0.00057870   8 t-inv F
  0.000000 -0.083333  0.083333    0.00057870   8 t-inv F
  0.000000  0.083333 -0.083333    0.00057870   8 t-inv F
 -0.166667 -0.083333  0.000000    0.00057870   9 t-inv F
  0.000000  0.166667  0.083333    0.00057870   9 t-inv F
  0.000000 -0.166667 -0.083333    0.00057870   9 t-inv F
  0.083333  0.000000  0.166667    0.00057870   9 t-inv F
 -0.083333  0.000000 -0.166667    0.00057870   9 t-inv F
 -0.083333  0.166667  0.000000    0.00057870   9 t-inv F
  0.083333 -0.166667  0.000000    0.00057870   9 t-inv F
 -0.166667  0.000000  0.083333    0.00057870   9 t-inv F
  0.166667  0.000000 -0.083333    0.00057870   9 t-inv F
  0.000000  0.083333  0.166667    0.00057870   9 t-inv F
  0.000000 -0.083333 -0.166667    0.00057870   9 t-inv F
  0.000000 -0.166667  0.083333    0.00057870   9 t-inv F
  0.000000  0.166667 -0.083333    0.00057870   9 t-inv F
 -0.083333  0.000000  0.166667    0.00057870   9 t-inv F
  0.083333  0.000000 -0.166667    0.00057870   9 t-inv F
  0.166667  0.000000  0.083333    0.00057870   9 t-inv F
 -0.166667  0.000000 -0.083333    0.00057870   9 t-inv F
  0.000000 -0.083333  0.166667    0.00057870   9 t-inv F
  0.000000  0.083333 -0.166667    0.00057870   9 t-inv F
  0.166667 -0.083333  0.000000    0.00057870   9 t-inv F
 -0.166667  0.083333  0.000000    0.00057870   9 t-inv F
  0.083333  0.166667  0.000000    0.00057870   9 t-inv F
 -0.083333 -0.166667  0.000000    0.00057870   9 t-inv F
 -0.250000 -0.083333  0.000000    0.00057870  10 t-inv F
  0.000000  0.250000  0.083333    0.00057870  10 t-inv F
  0.000000 -0.250000 -0.083333    0.00057870  10 t-inv F
  0.083333  0.000000  0.250000    0.00057870  10 t-inv F
 -0.083333  0.000000 -0.250000    0.00057870  10 t-inv F
 -0.083333  0.250000  0.000000    0.00057870  10 t-inv F
  0.083333 -0.250000  0.000000    0.00057870  10 t-inv F
 -0.250000  0.000000  0.083333    0.00057870  10 t-inv F
  0.250000  0.000000 -0.083333    0.00057870  10 t-inv F
  0.000000  0.083333  0.250000    0.00057870  10 t-inv F
  0.000000 -0.083333 -0.250000    0.00057870  10 t-inv F
  0.000000 -0.250000  0.083333    0.00057870  10 t-inv F
  0.000000  0.250000 -0.083333    0.00057870  10 t-inv F
 -0.083333  0.000000  0.250000    0.00057870  10 t-inv F
  0.083333  0.000000 -0.250000    0.00057870  10 t-inv F
  0.250000  0.000000  0.083333    0.00057870  10 t-inv F
 -0.250000  0.000000 -0.083333    0.00057870  10 t-inv F
  0.000000 -0.083333  0.250000    0.00057870  10 t-inv F
  0.000000  0.083333 -0.250000    0.00057870  10 t-inv F
  0.250000 -0.083333  0.000000    0.00057870  10 t-inv F
 -0.250000  0.083333  0.000000    0.00057870  10 t-inv F
  0.083333  0.250000  0.000000    0.00057870  10 t-inv F
 -0.083333 -0.250000  0.000000    0.00057870  10 t-inv F
 -0.333333 -0.083333  0.000000    0.00057870  11 t-inv F
  0.000000  0.333333  0.083333    0.00057870  11 t-inv F
  0.000000 -0.333333 -0.083333    0.00057870  11 t-inv F
  0.083333  0.000000  0.333333    0.00057870  11 t-inv F
 -0.083333  0.000000 -0.333333    0.00057870  11 t-inv F
 -0.083333  0.333333  0.000000    0.00057870  11 t-inv F
  0.083333 -0.333333  0.000000    0.00057870  11 t-inv F
 -0.333333  0.000000  0.083333    0.00057870  11 t-inv F
  0.333333  0.000000 -0.083333    0.00057870  11 t-inv F
  0.000000  0.083333  0.333333    0.00057870  11 t-inv F
  0.000000 -0.083333 -0.333333    0.00057870  11 t-inv F
  0.000000 -0.333333  0.083333    0.00057870  11 t-inv F
  0.000000  0.333333 -0.083333    0.00057870  11 t-inv F
 -0.083333  0.000000  0.333333    0.00057870  11 t-inv F
  0.083333  0.000000 -0.333333    0.00057870  11 t-inv F
  0.333333  0.000000  0.083333    0.00057870  11 t-inv F
 -0.333333  0.000000 -0.083333    0.00057870  11 t-inv F
  0.000000 -0.083333  0.333333    0.00057870  11 t-inv F
  0.000000  0.083333 -0.333333    0.00057870  11 t-inv F
  0.333333 -0.083333  0.000000    0.00057870  11 t-inv F
 -0.333333  0.083333  0.000000    0.00057870  11 t-inv F
  0.083333  0.333333  0.000000    0.00057870  11 t-inv F
 -0.083333 -0.333333  0.000000    0.00057870  11 t-inv F
 -0.416667 -0.083333  0.000000    0.00057870  12 t-inv F
  0.000000  0.416667  0.083333    0.00057870  12 t-inv F
  0.000000 -0.416667 -0.083333    0.00057870  12 t-inv F
  0.083333  0.000000  0.416667    0.00057870  12 t-inv F
 -0.083333  0.000000 -0.416667    0.00057870  12 t-inv F
 -0.083333  0.416667  0.000000    0.00057870  12 t-inv F
  0.083333 -0.416667  0.000000    0.00057870  12 t-inv F
 -0.416667  0.000000  0.083333    0.00057870  12 t-inv F
  0.416667  0.000000 -0.083333    0.00057870  12 t-inv F
  0.000000  0.083333  0.416667    0.00057870  12 t-inv F
  0.000000 -0.083333 -0.416667    0.00057870  12 t-inv F
  0.000000 -0.416667  0.083333    0.00057870  12 t-inv F
  0.000000  0.416667 -0.083333    0.00057870  12 t-inv F
 -0.083333  0.000000  0.416667    0.00057870  12 t-inv F
  0.083333  0.000000 -0.416667    0.00057870  12 t-inv F
  0.416667  0.000000  0.083333    0.00057870  12 t-inv F
 -0.416667  0.000000 -0.083333    0.00057870  12 t-inv F
  0.000000 -0.083333  0.416667    0.00057870  12 t-inv F
  0.000000  0.083333 -0.416667    0.00057870  12 t-inv F
  0.416667 -0.083333  0.000000    0.00057870  12 t-inv F
 -0.416667  0.083333  0.000000    0.00057870  12 t-inv F
  0.083333  0.416667  0.000000    0.00057870  12 t-inv F
 -0.083333 -0.416667  0.000000    0.00057870  12 t-inv F
 -0.500000 -0.083333  0.000000    0.00057870  13 t-inv F
  0.000000  0.500000  0.083333    0.00057870  13 t-inv F
  0.000000 -0.500000 -0.083333    0.00057870  13 t-inv F
  0.083333  0.000000  0.500000    0.00057870  13 t-inv F
 -0.083333  0.000000 -0.500000    0.00057870  13 t-inv F
 -0.083333  0.500000  0.000000    0.00057870  13 t-inv F
  0.083333 -0.500000  0.000000    0.00057870  13 t-inv F
 -0.500000  0.000000  0.083333    0.00057870  13 t-inv F
  0.500000  0.000000 -0.083333    0.00057870  13 t-inv F
  0.000000  0.083333  0.500000    0.00057870  13 t-inv F
  0.000000 -0.083333 -0.500000    0.00057870  13 t-inv F
 -0.166667 -0.166667  0.000000    0.00057870  14 t-inv F
  0.000000  0.166667  0.166667    0.00057870  14 t-inv F
  0.000000 -0.166667 -0.166667    0.00057870  14 t-inv F
  0.166667  0.000000  0.166667    0.00057870  14 t-inv F
 -0.166667  0.000000 -0.166667    0.00057870  14 t-inv F
 -0.166667  0.166667  0.000000    0.00057870  14 t-inv F
  0.166667 -0.166667  0.000000    0.00057870  14 t-inv F
 -0.166667  0.000000  0.166667    0.00057870  14 t-inv F
  0.166667  0.000000 -0.166667    0.00057870  14 t-inv F
  0.000000 -0.166667  0.166667    0.00057870  14 t-inv F
  0.000000  0.166667 -0.166667    0.00057870  14 t-inv F
 -0.250000 -0.166667  0.000000    0.00057870  15 t-inv F
  0.000000  0.250000  0.166667    0.00057870  15 t-inv F
  0.000000 -0.250000 -0.166667    0.00057870  15 t-inv F
  0.166667  0.000000  0.250000    0.00057870  15 t-inv F
 -0.166667  0.000000 -0.250000    0.00057870  15 t-inv F
 -0.166667  0.250000  0.000000    0.00057870  15 t-inv F
  0.166667 -0.250000  0.000000    0.00057870  15 t-inv F
 -0.250000  0.000000  0.166667    0.00057870  15 t-inv F
  0.250000  0.000000 -0.166667    0.00057870  15 t-inv F
  0.000000  0.166667  0.250000    0.00057870  15 t-inv F
  0.000000 -0.166667 -0.250000    0.00057870  15 t-inv F
  0.000000 -0.250000  0.166667    0.00057870  15 t-inv F
  0.000000  0.250000 -0.166667    0.00057870  15 t-inv F
 -0.166667  0.000000  0.250000    0.00057870  15 t-inv F
  0.166667  0.000000 -0.250000    0.00057870  15 t-inv F
  0.250000  0.000000  0.166667    0.00057870  15 t-inv F
 -0.250000  0.000000 -0.166667    0.00057870  15 t-inv F
  0.000000 -0.166667  0.250000    0.00057870  15 t-inv F
  0.000000  0.166667 -0.250000    0.00057870  15 t-inv F
  0.250000 -0.166667  0.000000    0.00057870  15 t-inv F
 -0.250000  0.166667  0.000000    0.00057870  15 t-inv F
  0.166667  0.250000  0.000000    0.00057870  15 t-inv F
 -0.166667 -0.250000  0.000000    0.00057870  15 t-inv F
 -0.333333 -0.166667  0.000000    0.00057870  16 t-inv F
  0.000000  0.333333  0.166667    0.00057870  16 t-inv F
  0.000000 -0.333333 -0.166667    0.00057870  16 t-inv F
  0.166667  0.000000  0.333333    0.00057870  16 t-inv F
 -0.166667  0.000000 -0.333333    0.00057870  16 t-inv F
 -0.166667  0.333333  0.000000    0.00057870  16 t-inv F
  0.166667 -0.333333  0.000000    0.00057870  16 t-inv F
 -0.333333  0.000000  0.166667    0.00057870  16 t-inv F
  0.333333  0.000000 -0.166667    0.00057870  16 t-inv F
  0.000000  0.166667  0.333333    0.00057870  16 t-inv F
  0.000000 -0.166667 -0.333333    0.00057870  16 t-inv F
  0.000000 -0.333333  0.166667    0.00057870  16 t-inv F
  0.000000  0.333333 -0.166667    0.00057870  16 t-inv F
 -0.166667  0.000000  0.333333    0.00057870  16 t-inv F
  0.166667  0.000000 -0.333333    0.00057870  16 t-inv F
  0.333333  0.000000  0.166667    0.00057870  16 t-inv F
 -0.333333  0.000000 -0.166667    0.00057870  16 t-inv F
  0.000000 -0.166667  0.333333    0.00057870  16 t-inv F
  0.000000  0.166667 -0.333333    0.00057870  16 t-inv F
  0.333333 -0.166667  0.000000    0.00057870  16 t-inv F
 -0.333333  0.166667  0.000000    0.00057870  16 t-inv F
  0.166667  0.333333  0.000000    0.00057870  16 t-inv F
 -0.166667 -0.333333  0.000000    0.00057870  16 t-inv F
 -0.416667 -0.166667  0.000000    0.00057870  17 t-inv F
  0.000000  0.416667  0.166667    0.00057870  17 t-inv F
  0.000000 -0.416667 -0.166667    0.00057870  17 t-inv F
  0.166667  0.000000  0.416667    0.00057870  17 t-inv F
 -0.166667  0.000000 -0.416667    0.00057870  17 t-inv F
 -0.166667  0.416667  0.000000    0.00057870  17 t-inv F
  0.166667 -0.416667  0.000000    0.00057870  17 t-inv F
 -0.416667  0.000000  0.166667    0.00057870  17 t-inv F
  0.416667  0.000000 -0.166667    0.00057870  17 t-inv F
  0.000000  0.166667  0.416667    0.00057870  17 t-inv F
  0.000000 -0.166667 -0.416667    0.00057870  17 t-inv F
  0.000000 -0.416667  0.166667    0.00057870  17 t-inv F
  0.000000  0.416667 -0.166667    0.00057870  17 t-inv F
 -0.166667  0.000000  0.416667    0.00057870  17 t-inv F
  0.166667  0.000000 -0.416667    0.00057870  17 t-inv F
  0.416667  0.000000  0.166667    0.00057870  17 t-inv F
 -0.416667  0.000000 -0.166667    0.00057870  17 t-inv F
  0.000000 -0.166667  0.416667    0.00057870  17 t-inv F
  0.000000  0.166667 -0.416667    0.00057870  17 t-inv F
  0.416667 -0.166667  0.000000    0.00057870  17 t-inv F
 -0.416667  0.166667  0.000000    0.00057870  17 t-inv F
  0.166667  0.416667  0.000000    0.00057870  17 t-inv F
 -0.166667 -0.416667  0.000000    0.00057870  17 t-inv F
 -0.500000 -0.166667  0.000000    0.00057870  18 t-inv F
  0.000000  0.500000  0.166667    0.00057870  18 t-inv F
  0.000000 -0.500000 -0.166667    0.00057870  18 t-inv F
  0.166667  0.000000  0.500000    0.00057870  18 t-inv F
 -0.166667  0.000000 -0.500000    0.00057870  18 t-inv F
 -0.166667  0.500000  0.000000    0.00057870  18 t-inv F
  0.166667 -0.500000  0.000000    0.00057870  18 t-inv F
 -0.500000  0.000000  0.166667    0.00057870  18 t-inv F
  0.500000  0.000000 -0.166667    0.00057870  18 t-inv F
  0.000000  0.166667  0.500000    0.00057870  18 t-inv F
  0.000000 -0.166667 -0.500000    0.00057870  18 t-inv F
 -0.250000 -0.250000  0.000000    0.00057870  19 t-inv F
  0.000000  0.250000  0.250000    0.00057870  19 t-inv F
  0.000000 -0.250000 -0.250000    0.00057870  19 t-inv F
  0.250000  0.000000  0.250000    0.00057870  19 t-inv F
 -0.250000  0.000000 -0.250000    0.00057870  19 t-inv F
 -0.250000  0.250000  0.000000    0.00057870  19 t-inv F
  0.250000 -0.250000  0.000000    0.00057870  19 t-inv F
 -0.250000  0.000000  0.250000    0.00057870  19 t-inv F
  0.250000  0.000000 -0.250000    0.00057870  19 t-inv F
  0.000000 -0.250000  0.250000    0.00057870  19 t-inv F
  0.000000  0.250000 -0.250000    0.00057870  19 t-inv F
 -0.333333 -0.250000  0.000000    0.00057870  20 t-inv F
  0.000000  0.333333  0.250000    0.00057870  20 t-inv F
  0.000000 -0.333333 -0.250000    0.00057870  20 t-inv F
  0.250000  0.000000  0.333333    0.00057870  20 t-inv F
 -0.250000  0.000000 -0.333333    0.00057870  20 t-inv F
 -0.250000  0.333333  0.000000    0.00057870  20 t-inv F
  0.250000 -0.333333  0.000000    0.00057870  20 t-inv F
 -0.333333  0.000000  0.250000    0.00057870  20 t-inv F
  0.333333  0.000000 -0.250000    0.00057870  20 t-inv F
  0.000000  0.250000  0.333333    0.00057870  20 t-inv F
  0.000000 -0.250000 -0.333333    0.00057870  20 t-inv F
  0.000000 -0.333333  0.250000    0.00057870  20 t-inv F
  0.000000  0.333333 -0.250000    0.00057870  20 t-inv F
 -0.250000  0.000000  0.333333    0.00057870  20 t-inv F
  0.250000  0.000000 -0.333333    0.00057870  20 t-inv F
  0.333333  0.000000  0.250000    0.00057870  20 t-inv F
 -0.333333  0.000000 -0.250000    0.00057870  20 t-inv F
  0.000000 -0.250000  0.333333    0.00057870  20 t-inv F
  0.000000  0.250000 -0.333333    0.00057870  20 t-inv F
  0.333333 -0.250000  0.000000    0.00057870  20 t-inv F
 -0.333333  0.250000  0.000000    0.00057870  20 t-inv F
  0.250000  0.333333  0.000000    0.00057870  20 t-inv F
 -0.250000 -0.333333  0.000000    0.00057870  20 t-inv F
 -0.416667 -0.250000  0.000000    0.00057870  21 t-inv F
  0.000000  0.416667  0.250000    0.00057870  21 t-inv F
  0.000000 -0.416667 -0.250000    0.00057870  21 t-inv F
  0.250000  0.000000  0.416667    0.00057870  21 t-inv F
 -0.250000  0.000000 -0.416667    0.00057870  21 t-inv F
 -0.250000  0.416667  0.000000    0.00057870  21 t-inv F
  0.250000 -0.416667  0.000000    0.00057870  21 t-inv F
 -0.416667  0.000000  0.250000    0.00057870  21 t-inv F
  0.416667  0.000000 -0.250000    0.00057870  21 t-inv F
  0.000000  0.250000  0.416667    0.00057870  21 t-inv F
  0.000000 -0.250000 -0.416667    0.00057870  21 t-inv F
  0.000000 -0.416667  0.250000    0.00057870  21 t-inv F
  0.000000  0.416667 -0.250000    0.00057870  21 t-inv F
 -0.250000  0.000000  0.416667    0.00057870  21 t-inv F
  0.250000  0.000000 -0.416667    0.00057870  21 t-inv F
  0.416667  0.000000  0.250000    0.00057870  21 t-inv F
 -0.416667  0.000000 -0.250000    0.00057870  21 t-inv F
  0.000000 -0.250000  0.416667    0.00057870  21 t-inv F
  0.000000  0.250000 -0.416667    0.00057870  21 t-inv F
  0.416667 -0.250000  0.000000    0.00057870  21 t-inv F
 -0.416667  0.250000  0.000000    0.00057870  21 t-inv F
  0.250000  0.416667  0.000000    0.00057870  21 t-inv F
 -0.250000 -0.416667  0.000000    0.00057870  21 t-inv F
 -0.500000 -0.250000  0.000000    0.00057870  22 t-inv F
  0.000000  0.500000  0.250000    0.00057870  22 t-inv F
  0.000000 -0.500000 -0.250000    0.00057870  22 t-inv F
  0.250000  0.000000  0.500000    0.00057870  22 t-inv F
 -0.250000  0.000000 -0.500000    0.00057870  22 t-inv F
 -0.250000  0.500000  0.000000    0.00057870  22 t-inv F
  0.250000 -0.500000  0.000000    0.00057870  22 t-inv F
 -0.500000  0.000000  0.250000    0.00057870  22 t-inv F
  0.500000  0.000000 -0.250000    0.00057870  22 t-inv F
  0.000000  0.250000  0.500000    0.00057870  22 t-inv F
  0.000000 -0.250000 -0.500000    0.00057870  22 t-inv F
 -0.333333 -0.333333  0.000000    0.00057870  23 t-inv F
  0.000000  0.333333  0.333333    0.00057870  23 t-inv F
  0.000000 -0.333333 -0.333333    0.00057870  23 t-inv F
  0.333333  0.000000  0.333333    0.00057870  23 t-inv F
 -0.333333  0.000000 -0.333333    0.00057870  23 t-inv F
 -0.333333  0.333333  0.000000    0.00057870  23 t-inv F
  0.333333 -0.333333  0.000000    0.00057870  23 t-inv F
 -0.333333  0.000000  0.333333    0.00057870  23 t-inv F
  0.333333  0.000000 -0.333333    0.00057870  23 t-inv F
  0.000000 -0.333333  0.333333    0.00057870  23 t-inv F
  0.000000  0.333333 -0.333333    0.00057870  23 t-inv F
 -0.416667 -0.333333  0.000000    0.00057870  24 t-inv F
  0.000000  0.416667  0.333333    0.00057870  24 t-inv F
  0.000000 -0.416667 -0.333333    0.00057870  24 t-inv F
  0.333333  0.000000  0.416667    0.00057870  24 t-inv F
 -0.333333  0.000000 -0.416667    0.00057870  24 t-inv F
 -0.333333  0.416667  0.000000    0.00057870  24 t-inv F
  0.333333 -0.416667  0.000000    0.00057870  24 t-inv F
 -0.416667  0.000000  0.333333    0.00057870  24 t-inv F
  0.416667  0.000000 -0.333333    0.00057870  24 t-inv F
  0.000000  0.333333  0.416667    0.00057870  24 t-inv F
  0.000000 -0.333333 -0.416667    0.00057870  24 t-inv F
  0.000000 -0.416667  0.333333    0.00057870  24 t-inv F
  0.000000  0.416667 -0.333333    0.00057870  24 t-inv F
 -0.333333  0.000000  0.416667    0.00057870  24 t-inv F
  0.333333  0.000000 -0.416667    0.00057870  24 t-inv F
  0.416667  0.000000  0.333333    0.00057870  24 t-inv F
 -0.416667  0.000000 -0.333333    0.00057870  24 t-inv F
  0.000000 -0.333333  0.416667    0.00057870  24 t-inv F
  0.000000  0.333333 -0.416667    0.00057870  24 t-inv F
  0.416667 -0.333333  0.000000    0.00057870  24 t-inv F
 -0.416667  0.333333  0.000000    0.00057870  24 t-inv F
  0.333333  0.416667  0.000000    0.00057870  24 t-inv F
 -0.333333 -0.416667  0.000000    0.00057870  24 t-inv F
 -0.500000 -0.333333  0.000000    0.00057870  25 t-inv F
  0.000000  0.500000  0.333333    0.00057870  25 t-inv F
  0.000000 -0.500000 -0.333333    0.00057870  25 t-inv F
  0.333333  0.000000  0.500000    0.00057870  25 t-inv F
 -0.333333  0.000000 -0.500000    0.00057870  25 t-inv F
 -0.333333  0.500000  0.000000    0.00057870  25 t-inv F
  0.333333 -0.500000  0.000000    0.00057870  25 t-inv F
 -0.500000  0.000000  0.333333    0.00057870  25 t-inv F
  0.500000  0.000000 -0.333333    0.00057870  25 t-inv F
  0.000000  0.333333  0.500000    0.00057870  25 t-inv F
  0.000000 -0.333333 -0.500000    0.00057870  25 t-inv F
 -0.416667 -0.416667  0.000000    0.00057870  26 t-inv F
  0.000000  0.416667  0.416667    0.00057870  26 t-inv F
  0.000000 -0.416667 -0.416667    0.00057870  26 t-inv F
  0.416667  0.000000  0.416667    0.00057870  26 t-inv F
 -0.416667  0.000000 -0.416667    0.00057870  26 t-inv F
 -0.416667  0.416667  0.000000    0.00057870  26 t-inv F
  0.416667 -0.416667  0.000000    0.00057870  26 t-inv F
 -0.416667  0.000000  0.416667    0.00057870  26 t-inv F
  0.416667  0.000000 -0.416667    0.00057870  26 t-inv F
  0.000000 -0.416667  0.416667    0.00057870  26 t-inv F
  0.000000  0.416667 -0.416667    0.00057870  26 t-inv F
 -0.500000 -0.416667  0.000000    0.00057870  27 t-inv F
  0.000000  0.500000  0.416667    0.00057870  27 t-inv F
  0.000000 -0.500000 -0.416667    0.00057870  27 t-inv F
  0.416667  0.000000  0.500000    0.00057870  27 t-inv F
 -0.416667  0.000000 -0.500000    0.00057870  27 t-inv F
 -0.416667  0.500000  0.000000    0.00057870  27 t-inv F
  0.416667 -0.500000  0.000000    0.00057870  27 t-inv F
 -0.500000  0.000000  0.416667    0.00057870  27 t-inv F
  0.500000  0.000000 -0.416667    0.00057870  27 t-inv F
  0.000000  0.416667  0.500000    0.00057870  27 t-inv F
  0.000000 -0.416667 -0.500000    0.00057870  27 t-inv F
  0.000000  0.500000  0.500000    0.00057870  28 t-inv F
  0.500000  0.000000  0.500000    0.00057870  28 t-inv F
 -0.083333 -0.083333 -0.083333    0.00057870  29 t-inv F
 -0.083333  0.083333  0.083333    0.00057870  29 t-inv F
  0.083333 -0.083333 -0.083333    0.00057870  29 t-inv F
 -0.083333 -0.083333  0.083333    0.00057870  29 t-inv F
  0.083333  0.083333 -0.083333    0.00057870  29 t-inv F
  0.083333 -0.083333  0.083333    0.00057870  29 t-inv F
 -0.083333  0.083333 -0.083333    0.00057870  29 t-inv F
 -0.166667 -0.083333 -0.083333    0.00057870  30 t-inv F
  0.083333  0.166667  0.083333    0.00057870  30 t-inv F
 -0.083333 -0.166667 -0.083333    0.00057870  30 t-inv F
  0.083333  0.083333  0.166667    0.00057870  30 t-inv F
 -0.083333 -0.083333 -0.166667    0.00057870  30 t-inv F
 -0.083333  0.166667  0.083333    0.00057870  30 t-inv F
  0.083333 -0.166667 -0.083333    0.00057870  30 t-inv F
 -0.166667  0.083333  0.083333    0.00057870  30 t-inv F
  0.166667 -0.083333 -0.083333    0.00057870  30 t-inv F
 -0.083333  0.083333  0.166667    0.00057870  30 t-inv F
  0.083333 -0.083333 -0.166667    0.00057870  30 t-inv F
 -0.166667 -0.083333  0.083333    0.00057870  30 t-inv F
  0.166667  0.083333 -0.083333    0.00057870  30 t-inv F
 -0.083333 -0.166667  0.083333    0.00057870  30 t-inv F
  0.083333  0.166667 -0.083333    0.00057870  30 t-inv F
 -0.083333 -0.083333  0.166667    0.00057870  30 t-inv F
  0.083333  0.083333 -0.166667    0.00057870  30 t-inv F
  0.083333 -0.166667  0.083333    0.00057870  30 t-inv F
 -0.083333  0.166667 -0.083333    0.00057870  30 t-inv F
  0.166667 -0.083333  0.083333    0.00057870  30 t-inv F
 -0.166667  0.083333 -0.083333    0.00057870  30 t-inv F
  0.083333 -0.083333  0.166667    0.00057870  30 t-inv F
 -0.083333  0.083333 -0.166667    0.00057870  30 t-inv F
 -0.250000 -0.083333 -0.083333    0.00057870  31 t-inv F
  0.083333  0.250000  0.083333    0.00057870  31 t-inv F
 -0.083333 -0.250000 -0.083333    0.00057870  31 t-inv F
  0.083333  0.083333  0.250000    0.00057870  31 t-inv F
 -0.083333 -0.083333 -0.250000    0.00057870  31 t-inv F
 -0.083333  0.250000  0.083333    0.00057870  31 t-inv F
  0.083333 -0.250000 -0.083333    0.00057870  31 t-inv F
 -0.250000  0.083333  0.083333    0.00057870  31 t-inv F
  0.250000 -0.083333 -0.083333    0.00057870  31 t-inv F
 -0.083333  0.083333  0.250000    0.00057870  31 t-inv F
  0.083333 -0.083333 -0.250000    0.00057870  31 t-inv F
 -0.250000 -0.083333  0.083333    0.00057870  31 t-inv F
  0.250000  0.083333 -0.083333    0.00057870  31 t-inv F
 -0.083333 -0.250000  0.083333    0.00057870  31 t-inv F
  0.083333  0.250000 -0.083333    0.00057870  31 t-inv F
 -0.083333 -0.083333  0.250000    0.00057870  31 t-inv F
  0.083333  0.083333 -0.250000    0.00057870  31 t-inv F
  0.083333 -0.250000  0.083333    0.00057870  31 t-inv F
 -0.083333  0.250000 -0.083333    0.00057870  31 t-inv F
  0.250000 -0.083333  0.083333    0.00057870  31 t-inv F
 -0.250000  0.083333 -0.083333    0.00057870  31 t-inv F
  0.083333 -0.083333  0.250000    0.00057870  31 t-inv F
 -0.083333  0.083333 -0.250000    0.00057870  31 t-inv F
 -0.333333 -0.083333 -0.083333    0.00057870  32 t-inv F
  0.083333  0.333333  0.083333    0.00057870  32 t-inv F
 -0.083333 -0.333333 -0.083333    0.00057870  32 t-inv F
  0.083333  0.083333  0.333333    0.00057870  32 t-inv F
 -0.083333 -0.083333 -0.333333    0.00057870  32 t-inv F
 -0.083333  0.333333  0.083333    0.00057870  32 t-inv F
  0.083333 -0.333333 -0.083333    0.00057870  32 t-inv F
 -0.333333  0.083333  0.083333    0.00057870  32 t-inv F
  0.333333 -0.083333 -0.083333    0.00057870  32 t-inv F
 -0.083333  0.083333  0.333333    0.00057870  32 t-inv F
  0.083333 -0.083333 -0.333333    0.00057870  32 t-inv F
 -0.333333 -0.083333  0.083333    0.00057870  32 t-inv F
  0.333333  0.083333 -0.083333    0.00057870  32 t-inv F
 -0.083333 -0.333333  0.083333    0.00057870  32 t-inv F
  0.083333  0.333333 -0.083333    0.00057870  32 t-inv F
 -0.083333 -0.083333  0.333333    0.00057870  32 t-inv F
  0.083333  0.083333 -0.333333    0.00057870  32 t-inv F
  0.083333 -0.333333  0.083333    0.00057870  32 t-inv F
 -0.083333  0.333333 -0.083333    0.00057870  32 t-inv F
  0.333333 -0.083333  0.083333    0.00057870  32 t-inv F
 -0.333333  0.083333 -0.083333    0.00057870  32 t-inv F
  0.083333 -0.083333  0.333333    0.00057870  32 t-inv F
 -0.083333  0.083333 -0.333333    0.00057870  32 t-inv F
 -0.416667 -0.083333 -0.083333    0.00057870  33 t-inv F
  0.083333  0.416667  0.083333    0.00057870  33 t-inv F
 -0.083333 -0.416667 -0.083333    0.00057870  33 t-inv F
  0.083333  0.083333  0.416667    0.00057870  33 t-inv F
 -0.083333 -0.083333 -0.416667    0.00057870  33 t-inv F
 -0.083333  0.416667  0.083333    0.00057870  33 t-inv F
  0.083333 -0.416667 -0.083333    0.00057870  33 t-inv F
 -0.416667  0.083333  0.083333    0.00057870  33 t-inv F
  0.416667 -0.083333 -0.083333    0.00057870  33 t-inv F
 -0.083333  0.083333  0.416667    0.00057870  33 t-inv F
  0.083333 -0.083333 -0.416667    0.00057870  33 t-inv F
 -0.416667 -0.083333  0.083333    0.00057870  33 t-inv F
  0.416667  0.083333 -0.083333    0.00057870  33 t-inv F
 -0.083333 -0.416667  0.083333    0.00057870  33 t-inv F
  0.083333  0.416667 -0.083333    0.00057870  33 t-inv F
 -0.083333 -0.083333  0.416667    0.00057870  33 t-inv F
  0.083333  0.083333 -0.416667    0.00057870  33 t-inv F
  0.083333 -0.416667  0.083333    0.00057870  33 t-inv F
 -0.083333  0.416667 -0.083333    0.00057870  33 t-inv F
  0.416667 -0.083333  0.083333    0.00057870  33 t-inv F
 -0.416667  0.083333 -0.083333    0.00057870  33 t-inv F
  0.083333 -0.083333  0.416667    0.00057870  33 t-inv F
 -0.083333  0.083333 -0.416667    0.00057870  33 t-inv F
 -0.500000 -0.083333 -0.083333    0.00057870  34 t-inv F
  0.083333  0.500000  0.083333    0.00057870  34 t-inv F
 -0.083333 -0.500000 -0.083333    0.00057870  34 t-inv F
  0.083333  0.083333  0.500000    0.00057870  34 t-inv F
 -0.083333 -0.083333 -0.500000    0.00057870  34 t-inv F
 -0.083333  0.500000  0.083333    0.00057870  34 t-inv F
  0.083333 -0.500000 -0.083333    0.00057870  34 t-inv F
 -0.083333  0.083333  0.500000    0.00057870  34 t-inv F
  0.083333 -0.083333 -0.500000    0.00057870  34 t-inv F
 -0.500000 -0.083333  0.083333    0.00057870  34 t-inv F
  0.500000  0.083333 -0.083333    0.00057870  34 t-inv F
 -0.166667 -0.166667 -0.083333    0.00057870  35 t-inv F
  0.083333  0.166667  0.166667    0.00057870  35 t-inv F
 -0.083333 -0.166667 -0.166667    0.00057870  35 t-inv F
  0.166667  0.083333  0.166667    0.00057870  35 t-inv F
 -0.166667 -0.083333 -0.166667    0.00057870  35 t-inv F
 -0.166667  0.166667  0.083333    0.00057870  35 t-inv F
  0.166667 -0.166667 -0.083333    0.00057870  35 t-inv F
 -0.166667  0.083333  0.166667    0.00057870  35 t-inv F
  0.166667 -0.083333 -0.166667    0.00057870  35 t-inv F
 -0.083333  0.166667  0.166667    0.00057870  35 t-inv F
  0.083333 -0.166667 -0.166667    0.00057870  35 t-inv F
 -0.166667 -0.166667  0.083333    0.00057870  35 t-inv F
  0.166667  0.166667 -0.083333    0.00057870  35 t-inv F
 -0.083333 -0.166667  0.166667    0.00057870  35 t-inv F
  0.083333  0.166667 -0.166667    0.00057870  35 t-inv F
 -0.166667 -0.083333  0.166667    0.00057870  35 t-inv F
  0.166667  0.083333 -0.166667    0.00057870  35 t-inv F
  0.166667 -0.166667  0.083333    0.00057870  35 t-inv F
 -0.166667  0.166667 -0.083333    0.00057870  35 t-inv F
  0.166667 -0.083333  0.166667    0.00057870  35 t-inv F
 -0.166667  0.083333 -0.166667    0.00057870  35 t-inv F
  0.083333 -0.166667  0.166667    0.00057870  35 t-inv F
 -0.083333  0.166667 -0.166667    0.00057870  35 t-inv F
 -0.250000 -0.166667 -0.083333    0.00057870  36 t-inv F
  0.083333  0.250000  0.166667    0.00057870  36 t-inv F
 -0.083333 -0.250000 -0.166667    0.00057870  36 t-inv F
  0.166667  0.083333  0.250000    0.00057870  36 t-inv F
 -0.166667 -0.083333 -0.250000    0.00057870  36 t-inv F
 -0.166667  0.250000  0.083333    0.00057870  36 t-inv F
  0.166667 -0.250000 -0.083333    0.00057870  36 t-inv F
 -0.250000  0.083333  0.166667    0.00057870  36 t-inv F
  0.250000 -0.083333 -0.166667    0.00057870  36 t-inv F
 -0.083333  0.166667  0.250000    0.00057870  36 t-inv F
  0.083333 -0.166667 -0.250000    0.00057870  36 t-inv F
 -0.250000 -0.166667  0.083333    0.00057870  36 t-inv F
  0.250000  0.166667 -0.083333    0.00057870  36 t-inv F
 -0.083333 -0.250000  0.166667    0.00057870  36 t-inv F
  0.083333  0.250000 -0.166667    0.00057870  36 t-inv F
 -0.166667 -0.083333  0.250000    0.00057870  36 t-inv F
  0.166667  0.083333 -0.250000    0.00057870  36 t-inv F
  0.166667 -0.250000  0.083333    0.00057870  36 t-inv F
 -0.166667  0.250000 -0.083333    0.00057870  36 t-inv F
  0.250000 -0.083333  0.166667    0.00057870  36 t-inv F
 -0.250000  0.083333 -0.166667    0.00057870  36 t-inv F
  0.083333 -0.166667  0.250000    0.00057870  36 t-inv F
 -0.083333  0.166667 -0.250000    0.00057870  36 t-inv F
  0.083333 -0.250000 -0.166667    0.00057870  36 t-inv F
 -0.083333  0.250000  0.166667    0.00057870  36 t-inv F
  0.166667 -0.083333 -0.250000    0.00057870  36 t-inv F
 -0.166667  0.083333  0.250000    0.00057870  36 t-inv F
  0.250000 -0.166667 -0.083333    0.00057870  36 t-inv F
 -0.250000  0.166667  0.083333    0.00057870  36 t-inv F
  0.083333  0.166667 -0.250000    0.00057870  36 t-inv F
 -0.083333 -0.166667  0.250000    0.00057870  36 t-inv F
  0.166667  0.250000 -0.083333    0.00057870  36 t-inv F
 -0.166667 -0.250000  0.083333    0.00057870  36 t-inv F
  0.250000  0.083333 -0.166667    0.00057870  36 t-inv F
 -0.250000 -0.083333  0.166667    0.00057870  36 t-inv F
 -0.166667  0.083333 -0.250000    0.00057870  36 t-inv F
  0.166667 -0.083333  0.250000    0.00057870  36 t-inv F
 -0.250000  0.166667 -0.083333    0.00057870  36 t-inv F
  0.250000 -0.166667  0.083333    0.00057870  36 t-inv F
 -0.083333  0.250000 -0.166667    0.00057870  36 t-inv F
  0.083333 -0.250000  0.166667    0.00057870  36 t-inv F
 -0.250000 -0.083333 -0.166667    0.00057870  36 t-inv F
  0.250000  0.083333  0.166667    0.00057870  36 t-inv F
 -0.166667 -0.250000 -0.083333    0.00057870  36 t-inv F
  0.166667  0.250000  0.083333    0.00057870  36 t-inv F
 -0.083333 -0.166667 -0.250000    0.00057870  36 t-inv F
  0.083333  0.166667  0.250000    0.00057870  36 t-inv F
 -0.333333 -0.166667 -0.083333    0.00057870  37 t-inv F
  0.083333  0.333333  0.166667    0.00057870  37 t-inv F
 -0.083333 -0.333333 -0.166667    0.00057870  37 t-inv F
  0.166667  0.083333  0.333333    0.00057870  37 t-inv F
 -0.166667 -0.083333 -0.333333    0.00057870  37 t-inv F
 -0.166667  0.333333  0.083333    0.00057870  37 t-inv F
  0.166667 -0.333333 -0.083333    0.00057870  37 t-inv F
 -0.333333  0.083333  0.166667    0.00057870  37 t-inv F
  0.333333 -0.083333 -0.166667    0.00057870  37 t-inv F
 -0.083333  0.166667  0.333333    0.00057870  37 t-inv F
  0.083333 -0.166667 -0.333333    0.00057870  37 t-inv F
 -0.333333 -0.166667  0.083333    0.00057870  37 t-inv F
  0.333333  0.166667 -0.083333    0.00057870  37 t-inv F
 -0.083333 -0.333333  0.166667    0.00057870  37 t-inv F
  0.083333  0.333333 -0.166667    0.00057870  37 t-inv F
 -0.166667 -0.083333  0.333333    0.00057870  37 t-inv F
  0.166667  0.083333 -0.333333    0.00057870  37 t-inv F
  0.166667 -0.333333  0.083333    0.00057870  37 t-inv F
 -0.166667  0.333333 -0.083333    0.00057870  37 t-inv F
  0.333333 -0.083333  0.166667    0.00057870  37 t-inv F
 -0.333333  0.083333 -0.166667    0.00057870  37 t-inv F
  0.083333 -0.166667  0.333333    0.00057870  37 t-inv F
 -0.083333  0.166667 -0.333333    0.00057870  37 t-inv F
  0.083333 -0.333333 -0.166667    0.00057870  37 t-inv F
 -0.083333  0.333333  0.166667    0.00057870  37 t-inv F
  0.166667 -0.083333 -0.333333    0.00057870  37 t-inv F
 -0.166667  0.083333  0.333333    0.00057870  37 t-inv F
  0.333333 -0.166667 -0.083333    0.00057870  37 t-inv F
 -0.333333  0.166667  0.083333    0.00057870  37 t-inv F
  0.083333  0.166667 -0.333333    0.00057870  37 t-inv F
 -0.083333 -0.166667  0.333333    0.00057870  37 t-inv F
  0.166667  0.333333 -0.083333    0.00057870  37 t-inv F
 -0.166667 -0.333333  0.083333    0.00057870  37 t-inv F
  0.333333  0.083333 -0.166667    0.00057870  37 t-inv F
 -0.333333 -0.083333  0.166667    0.00057870  37 t-inv F
 -0.166667  0.083333 -0.333333    0.00057870  37 t-inv F
  0.166667 -0.083333  0.333333    0.00057870  37 t-inv F
 -0.333333  0.166667 -0.083333    0.00057870  37 t-inv F
  0.333333 -0.166667  0.083333    0.00057870  37 t-inv F
 -0.083333  0.333333 -0.166667    0.00057870  37 t-inv F
  0.083333 -0.333333  0.166667    0.00057870  37 t-inv F
 -0.333333 -0.083333 -0.166667    0.00057870  37 t-inv F
  0.333333  0.083333  0.166667    0.00057870  37 t-inv F
 -0.166667 -0.333333 -0.083333    0.00057870  37 t-inv F
  0.166667  0.333333  0.083333    0.00057870  37 t-inv F
 -0.083333 -0.166667 -0.333333    0.00057870  37 t-inv F
  0.083333  0.166667  0.333333    0.00057870  37 t-inv F
 -0.416667 -0.166667 -0.083333    0.00057870  38 t-inv F
  0.083333  0.416667  0.166667    0.00057870  38 t-inv F
 -0.083333 -0.416667 -0.166667    0.00057870  38 t-inv F
  0.166667  0.083333  0.416667    0.00057870  38 t-inv F
 -0.166667 -0.083333 -0.416667    0.00057870  38 t-inv F
 -0.166667  0.416667  0.083333    0.00057870  38 t-inv F
  0.166667 -0.416667 -0.083333    0.00057870  38 t-inv F
 -0.416667  0.083333  0.166667    0.00057870  38 t-inv F
  0.416667 -0.083333 -0.166667    0.00057870  38 t-inv F
 -0.083333  0.166667  0.416667    0.00057870  38 t-inv F
  0.083333 -0.166667 -0.416667    0.00057870  38 t-inv F
 -0.416667 -0.166667  0.083333    0.00057870  38 t-inv F
  0.416667  0.166667 -0.083333    0.00057870  38 t-inv F
 -0.083333 -0.416667  0.166667    0.00057870  38 t-inv F
  0.083333  0.416667 -0.166667    0.00057870  38 t-inv F
 -0.166667 -0.083333  0.416667    0.00057870  38 t-inv F
  0.166667  0.083333 -0.416667    0.00057870  38 t-inv F
  0.166667 -0.416667  0.083333    0.00057870  38 t-inv F
 -0.166667  0.416667 -0.083333    0.00057870  38 t-inv F
  0.416667 -0.083333  0.166667    0.00057870  38 t-inv F
 -0.416667  0.083333 -0.166667    0.00057870  38 t-inv F
  0.083333 -0.166667  0.416667    0.00057870  38 t-inv F
 -0.083333  0.166667 -0.416667    0.00057870  38 t-inv F
  0.083333 -0.416667 -0.166667    0.00057870  38 t-inv F
 -0.083333  0.416667  0.166667    0.00057870  38 t-inv F
  0.166667 -0.083333 -0.416667    0.00057870  38 t-inv F
 -0.166667  0.083333  0.416667    0.00057870  38 t-inv F
  0.416667 -0.166667 -0.083333    0.00057870  38 t-inv F
 -0.416667  0.166667  0.083333    0.00057870  38 t-inv F
  0.083333  0.166667 -0.416667    0.00057870  38 t-inv F
 -0.083333 -0.166667  0.416667    0.00057870  38 t-inv F
  0.166667  0.416667 -0.083333    0.00057870  38 t-inv F
 -0.166667 -0.416667  0.083333    0.00057870  38 t-inv F
  0.416667  0.083333 -0.166667    0.00057870  38 t-inv F
 -0.416667 -0.083333  0.166667    0.00057870  38 t-inv F
 -0.166667  0.083333 -0.416667    0.00057870  38 t-inv F
  0.166667 -0.083333  0.416667    0.00057870  38 t-inv F
 -0.416667  0.166667 -0.083333    0.00057870  38 t-inv F
  0.416667 -0.166667  0.083333    0.00057870  38 t-inv F
 -0.083333  0.416667 -0.166667    0.00057870  38 t-inv F
  0.083333 -0.416667  0.166667    0.00057870  38 t-inv F
 -0.416667 -0.083333 -0.166667    0.00057870  38 t-inv F
  0.416667  0.083333  0.166667    0.00057870  38 t-inv F
 -0.166667 -0.416667 -0.083333    0.00057870  38 t-inv F
  0.166667  0.416667  0.083333    0.00057870  38 t-inv F
 -0.083333 -0.166667 -0.416667    0.00057870  38 t-inv F
  0.083333  0.166667  0.416667    0.00057870  38 t-inv F
 -0.500000 -0.166667 -0.083333    0.00057870  39 t-inv F
  0.083333  0.500000  0.166667    0.00057870  39 t-inv F
 -0.083333 -0.500000 -0.166667    0.00057870  39 t-inv F
  0.166667  0.083333  0.500000    0.00057870  39 t-inv F
 -0.166667 -0.083333 -0.500000    0.00057870  39 t-inv F
 -0.166667  0.500000  0.083333    0.00057870  39 t-inv F
  0.166667 -0.500000 -0.083333    0.00057870  39 t-inv F
 -0.500000  0.083333  0.166667    0.00057870  39 t-inv F
  0.500000 -0.083333 -0.166667    0.00057870  39 t-inv F
 -0.083333  0.166667  0.500000    0.00057870  39 t-inv F
  0.083333 -0.166667 -0.500000    0.00057870  39 t-inv F
 -0.500000 -0.166667  0.083333    0.00057870  39 t-inv F
  0.500000  0.166667 -0.083333    0.00057870  39 t-inv F
 -0.083333 -0.500000  0.166667    0.00057870  39 t-inv F
  0.083333  0.500000 -0.166667    0.00057870  39 t-inv F
  0.166667 -0.500000  0.083333    0.00057870  39 t-inv F
 -0.166667  0.500000 -0.083333    0.00057870  39 t-inv F
  0.500000 -0.083333  0.166667    0.00057870  39 t-inv F
 -0.500000  0.083333 -0.166667    0.00057870  39 t-inv F
  0.166667 -0.083333 -0.500000    0.00057870  39 t-inv F
 -0.166667  0.083333  0.500000    0.00057870  39 t-inv F
  0.083333  0.166667 -0.500000    0.00057870  39 t-inv F
 -0.083333 -0.166667  0.500000    0.00057870  39 t-inv F
 -0.250000 -0.250000 -0.083333    0.00057870  40 t-inv F
  0.083333  0.250000  0.250000    0.00057870  40 t-inv F
 -0.083333 -0.250000 -0.250000    0.00057870  40 t-inv F
  0.250000  0.083333  0.250000    0.00057870  40 t-inv F
 -0.250000 -0.083333 -0.250000    0.00057870  40 t-inv F
 -0.250000  0.250000  0.083333    0.00057870  40 t-inv F
  0.250000 -0.250000 -0.083333    0.00057870  40 t-inv F
 -0.250000  0.083333  0.250000    0.00057870  40 t-inv F
  0.250000 -0.083333 -0.250000    0.00057870  40 t-inv F
 -0.083333  0.250000  0.250000    0.00057870  40 t-inv F
  0.083333 -0.250000 -0.250000    0.00057870  40 t-inv F
 -0.250000 -0.250000  0.083333    0.00057870  40 t-inv F
  0.250000  0.250000 -0.083333    0.00057870  40 t-inv F
 -0.083333 -0.250000  0.250000    0.00057870  40 t-inv F
  0.083333  0.250000 -0.250000    0.00057870  40 t-inv F
 -0.250000 -0.083333  0.250000    0.00057870  40 t-inv F
  0.250000  0.083333 -0.250000    0.00057870  40 t-inv F
  0.250000 -0.250000  0.083333    0.00057870  40 t-inv F
 -0.250000  0.250000 -0.083333    0.00057870  40 t-inv F
  0.250000 -0.083333  0.250000    0.00057870  40 t-inv F
 -0.250000  0.083333 -0.250000    0.00057870  40 t-inv F
  0.083333 -0.250000  0.250000    0.00057870  40 t-inv F
 -0.083333  0.250000 -0.250000    0.00057870  40 t-inv F
 -0.333333 -0.250000 -0.083333    0.00057870  41 t-inv F
  0.083333  0.333333  0.250000    0.00057870  41 t-inv F
 -0.083333 -0.333333 -0.250000    0.00057870  41 t-inv F
  0.250000  0.083333  0.333333    0.00057870  41 t-inv F
 -0.250000 -0.083333 -0.333333    0.00057870  41 t-inv F
 -0.250000  0.333333  0.083333    0.00057870  41 t-inv F
  0.250000 -0.333333 -0.083333    0.00057870  41 t-inv F
 -0.333333  0.083333  0.250000    0.00057870  41 t-inv F
  0.333333 -0.083333 -0.250000    0.00057870  41 t-inv F
 -0.083333  0.250000  0.333333    0.00057870  41 t-inv F
  0.083333 -0.250000 -0.333333    0.00057870  41 t-inv F
 -0.333333 -0.250000  0.083333    0.00057870  41 t-inv F
  0.333333  0.250000 -0.083333    0.00057870  41 t-inv F
 -0.083333 -0.333333  0.250000    0.00057870  41 t-inv F
  0.083333  0.333333 -0.250000    0.00057870  41 t-inv F
 -0.250000 -0.083333  0.333333    0.00057870  41 t-inv F
  0.250000  0.083333 -0.333333    0.00057870  41 t-inv F
  0.250000 -0.333333  0.083333    0.00057870  41 t-inv F
 -0.250000  0.333333 -0.083333    0.00057870  41 t-inv F
  0.333333 -0.083333  0.250000    0.00057870  41 t-inv F
 -0.333333  0.083333 -0.250000    0.00057870  41 t-inv F
  0.083333 -0.250000  0.333333    0.00057870  41 t-inv F
 -0.083333  0.250000 -0.333333    0.00057870  41 t-inv F
  0.083333 -0.333333 -0.250000    0.00057870  41 t-inv F
 -0.083333  0.333333  0.250000    0.00057870  41 t-inv F
  0.250000 -0.083333 -0.333333    0.00057870  41 t-inv F
 -0.250000  0.083333  0.333333    0.00057870  41 t-inv F
  0.333333 -0.250000 -0.083333    0.00057870  41 t-inv F
 -0.333333  0.250000  0.083333    0.00057870  41 t-inv F
  0.083333  0.250000 -0.333333    0.00057870  41 t-inv F
 -0.083333 -0.250000  0.333333    0.00057870  41 t-inv F
  0.250000  0.333333 -0.083333    0.00057870  41 t-inv F
 -0.250000 -0.333333  0.083333    0.00057870  41 t-inv F
  0.333333  0.083333 -0.250000    0.00057870  41 t-inv F
 -0.333333 -0.083333  0.250000    0.00057870  41 t-inv F
 -0.250000  0.083333 -0.333333    0.00057870  41 t-inv F
  0.250000 -0.083333  0.333333    0.00057870  41 t-inv F
 -0.333333  0.250000 -0.083333    0.00057870  41 t-inv F
  0.333333 -0.250000  0.083333    0.00057870  41 t-inv F
 -0.083333  0.333333 -0.250000    0.00057870  41 t-inv F
  0.083333 -0.333333  0.250000    0.00057870  41 t-inv F
 -0.333333 -0.083333 -0.250000    0.00057870  41 t-inv F
  0.333333  0.083333  0.250000    0.00057870  41 t-inv F
 -0.250000 -0.333333 -0.083333    0.00057870  41 t-inv F
  0.250000  0.333333  0.083333    0.00057870  41 t-inv F
 -0.083333 -0.250000 -0.333333    0.00057870  41 t-inv F
  0.083333  0.250000  0.333333    0.00057870  41 t-inv F
 -0.416667 -0.250000 -0.083333    0.00057870  42 t-inv F
  0.083333  0.416667  0.250000    0.00057870  42 t-inv F
 -0.083333 -0.416667 -0.250000    0.00057870  42 t-inv F
  0.250000  0.083333  0.416667    0.00057870  42 t-inv F
 -0.250000 -0.083333 -0.416667    0.00057870  42 t-inv F
 -0.250000  0.416667  0.083333    0.00057870  42 t-inv F
  0.250000 -0.416667 -0.083333    0.00057870  42 t-inv F
 -0.416667  0.083333  0.250000    0.00057870  42 t-inv F
  0.416667 -0.083333 -0.250000    0.00057870  42 t-inv F
 -0.083333  0.250000  0.416667    0.00057870  42 t-inv F
  0.083333 -0.250000 -0.416667    0.00057870  42 t-inv F
 -0.416667 -0.250000  0.083333    0.00057870  42 t-inv F
  0.416667  0.250000 -0.083333    0.00057870  42 t-inv F
 -0.083333 -0.416667  0.250000    0.00057870  42 t-inv F
  0.083333  0.416667 -0.250000    0.00057870  42 t-inv F
 -0.250000 -0.083333  0.416667    0.00057870  42 t-inv F
  0.250000  0.083333 -0.416667    0.00057870  42 t-inv F
  0.250000 -0.416667  0.083333    0.00057870  42 t-inv F
 -0.250000  0.416667 -0.083333    0.00057870  42 t-inv F
  0.416667 -0.083333  0.250000    0.00057870  42 t-inv F
 -0.416667  0.083333 -0.250000    0.00057870  42 t-inv F
  0.083333 -0.250000  0.416667    0.00057870  42 t-inv F
 -0.083333  0.250000 -0.416667    0.00057870  42 t-inv F
  0.083333 -0.416667 -0.250000    0.00057870  42 t-inv F
 -0.083333  0.416667  0.250000    0.00057870  42 t-inv F
  0.250000 -0.083333 -0.416667    0.00057870  42 t-inv F
 -0.250000  0.083333  0.416667    0.00057870  42 t-inv F
  0.416667 -0.250000 -0.083333    0.00057870  42 t-inv F
 -0.416667  0.250000  0.083333    0.00057870  42 t-inv F
  0.083333  0.250000 -0.416667    0.00057870  42 t-inv F
 -0.083333 -0.250000  0.416667    0.00057870  42 t-inv F
  0.250000  0.416667 -0.083333    0.00057870  42 t-inv F
 -0.250000 -0.416667  0.083333    0.00057870  42 t-inv F
  0.416667  0.083333 -0.250000    0.00057870  42 t-inv F
 -0.416667 -0.083333  0.250000    0.00057870  42 t-inv F
 -0.250000  0.083333 -0.416667    0.00057870  42 t-inv F
  0.250000 -0.083333  0.416667    0.00057870  42 t-inv F
 -0.416667  0.250000 -0.083333    0.00057870  42 t-inv F
  0.416667 -0.250000  0.083333    0.00057870  42 t-inv F
 -0.083333  0.416667 -0.250000    0.00057870  42 t-inv F
  0.083333 -0.416667  0.250000    0.00057870  42 t-inv F
 -0.416667 -0.083333 -0.250000    0.00057870  42 t-inv F
  0.416667  0.083333  0.250000    0.00057870  42 t-inv F
 -0.250000 -0.416667 -0.083333    0.00057870  42 t-inv F
  0.250000  0.416667  0.083333    0.00057870  42 t-inv F
 -0.083333 -0.250000 -0.416667    0.00057870  42 t-inv F
  0.083333  0.250000  0.416667    0.00057870  42 t-inv F
 -0.500000 -0.250000 -0.083333    0.00057870  43 t-inv F
  0.083333  0.500000  0.250000    0.00057870  43 t-inv F
 -0.083333 -0.500000 -0.250000    0.00057870  43 t-inv F
  0.250000  0.083333  0.500000    0.00057870  43 t-inv F
 -0.250000 -0.083333 -0.500000    0.00057870  43 t-inv F
 -0.250000  0.500000  0.083333    0.00057870  43 t-inv F
  0.250000 -0.500000 -0.083333    0.00057870  43 t-inv F
 -0.500000  0.083333  0.250000    0.00057870  43 t-inv F
  0.500000 -0.083333 -0.250000    0.00057870  43 t-inv F
 -0.083333  0.250000  0.500000    0.00057870  43 t-inv F
  0.083333 -0.250000 -0.500000    0.00057870  43 t-inv F
 -0.500000 -0.250000  0.083333    0.00057870  43 t-inv F
  0.500000  0.250000 -0.083333    0.00057870  43 t-inv F
 -0.083333 -0.500000  0.250000    0.00057870  43 t-inv F
  0.083333  0.500000 -0.250000    0.00057870  43 t-inv F
  0.250000 -0.500000  0.083333    0.00057870  43 t-inv F
 -0.250000  0.500000 -0.083333    0.00057870  43 t-inv F
  0.500000 -0.083333  0.250000    0.00057870  43 t-inv F
 -0.500000  0.083333 -0.250000    0.00057870  43 t-inv F
  0.250000 -0.083333 -0.500000    0.00057870  43 t-inv F
 -0.250000  0.083333  0.500000    0.00057870  43 t-inv F
  0.083333  0.250000 -0.500000    0.00057870  43 t-inv F
 -0.083333 -0.250000  0.500000    0.00057870  43 t-inv F
 -0.333333 -0.333333 -0.083333    0.00057870  44 t-inv F
  0.083333  0.333333  0.333333    0.00057870  44 t-inv F
 -0.083333 -0.333333 -0.333333    0.00057870  44 t-inv F
  0.333333  0.083333  0.333333    0.00057870  44 t-inv F
 -0.333333 -0.083333 -0.333333    0.00057870  44 t-inv F
 -0.333333  0.333333  0.083333    0.00057870  44 t-inv F
  0.333333 -0.333333 -0.083333    0.00057870  44 t-inv F
 -0.333333  0.083333  0.333333    0.00057870  44 t-inv F
  0.333333 -0.083333 -0.333333    0.00057870  44 t-inv F
 -0.083333  0.333333  0.333333    0.00057870  44 t-inv F
  0.083333 -0.333333 -0.333333    0.00057870  44 t-inv F
 -0.333333 -0.333333  0.083333    0.00057870  44 t-inv F
  0.333333  0.333333 -0.083333    0.00057870  44 t-inv F
 -0.083333 -0.333333  0.333333    0.00057870  44 t-inv F
  0.083333  0.333333 -0.333333    0.00057870  44 t-inv F
 -0.333333 -0.083333  0.333333    0.00057870  44 t-inv F
  0.333333  0.083333 -0.333333    0.00057870  44 t-inv F
  0.333333 -0.333333  0.083333    0.00057870  44 t-inv F
 -0.333333  0.333333 -0.083333    0.00057870  44 t-inv F
  0.333333 -0.083333  0.333333    0.00057870  44 t-inv F
 -0.333333  0.083333 -0.333333    0.00057870  44 t-inv F
  0.083333 -0.333333  0.333333    0.00057870  44 t-inv F
 -0.083333  0.333333 -0.333333    0.00057870  44 t-inv F
 -0.416667 -0.333333 -0.083333    0.00057870  45 t-inv F
  0.083333  0.416667  0.333333    0.00057870  45 t-inv F
 -0.083333 -0.416667 -0.333333    0.00057870  45 t-inv F
  0.333333  0.083333  0.416667    0.00057870  45 t-inv F
 -0.333333 -0.083333 -0.416667    0.00057870  45 t-inv F
 -0.333333  0.416667  0.083333    0.00057870  45 t-inv F
  0.333333 -0.416667 -0.083333    0.00057870  45 t-inv F
 -0.416667  0.083333  0.333333    0.00057870  45 t-inv F
  0.416667 -0.083333 -0.333333    0.00057870  45 t-inv F
 -0.083333  0.333333  0.416667    0.00057870  45 t-inv F
  0.083333 -0.333333 -0.416667    0.00057870  45 t-inv F
 -0.416667 -0.333333  0.083333    0.00057870  45 t-inv F
  0.416667  0.333333 -0.083333    0.00057870  45 t-inv F
 -0.083333 -0.416667  0.333333    0.00057870  45 t-inv F
  0.083333  0.416667 -0.333333    0.00057870  45 t-inv F
 -0.333333 -0.083333  0.416667    0.00057870  45 t-inv F
  0.333333  0.083333 -0.416667    0.00057870  45 t-inv F
  0.333333 -0.416667  0.083333    0.00057870  45 t-inv F
 -0.333333  0.416667 -0.083333    0.00057870  45 t-inv F
  0.416667 -0.083333  0.333333    0.00057870  45 t-inv F
 -0.416667  0.083333 -0.333333    0.00057870  45 t-inv F
  0.083333 -0.333333  0.416667    0.00057870  45 t-inv F
 -0.083333  0.333333 -0.416667    0.00057870  45 t-inv F
  0.083333 -0.416667 -0.333333    0.00057870  45 t-inv F
 -0.083333  0.416667  0.333333    0.00057870  45 t-inv F
  0.333333 -0.083333 -0.416667    0.00057870  45 t-inv F
 -0.333333  0.083333  0.416667    0.00057870  45 t-inv F
  0.416667 -0.333333 -0.083333    0.00057870  45 t-inv F
 -0.416667  0.333333  0.083333    0.00057870  45 t-inv F
  0.083333  0.333333 -0.416667    0.00057870  45 t-inv F
 -0.083333 -0.333333  0.416667    0.00057870  45 t-inv F
  0.333333  0.416667 -0.083333    0.00057870  45 t-inv F
 -0.333333 -0.416667  0.083333    0.00057870  45 t-inv F
  0.416667  0.083333 -0.333333    0.00057870  45 t-inv F
 -0.416667 -0.083333  0.333333    0.00057870  45 t-inv F
 -0.333333  0.083333 -0.416667    0.00057870  45 t-inv F
  0.333333 -0.083333  0.416667    0.00057870  45 t-inv F
 -0.416667  0.333333 -0.083333    0.00057870  45 t-inv F
  0.416667 -0.333333  0.083333    0.00057870  45 t-inv F
 -0.083333  0.416667 -0.333333    0.00057870  45 t-inv F
  0.083333 -0.416667  0.333333    0.00057870  45 t-inv F
 -0.416667 -0.083333 -0.333333    0.00057870  45 t-inv F
  0.416667  0.083333  0.333333    0.00057870  45 t-inv F
 -0.333333 -0.416667 -0.083333    0.00057870  45 t-inv F
  0.333333  0.416667  0.083333    0.00057870  45 t-inv F
 -0.083333 -0.333333 -0.416667    0.00057870  45 t-inv F
  0.083333  0.333333  0.416667    0.00057870  45 t-inv F
 -0.500000 -0.333333 -0.083333    0.00057870  46 t-inv F
  0.083333  0.500000  0.333333    0.00057870  46 t-inv F
 -0.083333 -0.500000 -0.333333    0.00057870  46 t-inv F
  0.333333  0.083333  0.500000    0.00057870  46 t-inv F
 -0.333333 -0.083333 -0.500000    0.00057870  46 t-inv F
 -0.333333  0.500000  0.083333    0.00057870  46 t-inv F
  0.333333 -0.500000 -0.083333    0.00057870  46 t-inv F
 -0.500000  0.083333  0.333333    0.00057870  46 t-inv F
  0.500000 -0.083333 -0.333333    0.00057870  46 t-inv F
 -0.083333  0.333333  0.500000    0.00057870  46 t-inv F
  0.083333 -0.333333 -0.500000    0.00057870  46 t-inv F
 -0.500000 -0.333333  0.083333    0.00057870  46 t-inv F
  0.500000  0.333333 -0.083333    0.00057870  46 t-inv F
 -0.083333 -0.500000  0.333333    0.00057870  46 t-inv F
  0.083333  0.500000 -0.333333    0.00057870  46 t-inv F
  0.333333 -0.500000  0.083333    0.00057870  46 t-inv F
 -0.333333  0.500000 -0.083333    0.00057870  46 t-inv F
  0.500000 -0.083333  0.333333    0.00057870  46 t-inv F
 -0.500000  0.083333 -0.333333    0.00057870  46 t-inv F
  0.333333 -0.083333 -0.500000    0.00057870  46 t-inv F
 -0.333333  0.083333  0.500000    0.00057870  46 t-inv F
  0.083333  0.333333 -0.500000    0.00057870  46 t-inv F
 -0.083333 -0.333333  0.500000    0.00057870  46 t-inv F
 -0.416667 -0.416667 -0.083333    0.00057870  47 t-inv F
  0.083333  0.416667  0.416667    0.00057870  47 t-inv F
 -0.083333 -0.416667 -0.416667    0.00057870  47 t-inv F
  0.416667  0.083333  0.416667    0.00057870  47 t-inv F
 -0.416667 -0.083333 -0.416667    0.00057870  47 t-inv F
 -0.416667  0.416667  0.083333    0.00057870  47 t-inv F
  0.416667 -0.416667 -0.083333    0.00057870  47 t-inv F
 -0.416667  0.083333  0.416667    0.00057870  47 t-inv F
  0.416667 -0.083333 -0.416667    0.00057870  47 t-inv F
 -0.083333  0.416667  0.416667    0.00057870  47 t-inv F
  0.083333 -0.416667 -0.416667    0.00057870  47 t-inv F
 -0.416667 -0.416667  0.083333    0.00057870  47 t-inv F
  0.416667  0.416667 -0.083333    0.00057870  47 t-inv F
 -0.083333 -0.416667  0.416667    0.00057870  47 t-inv F
  0.083333  0.416667 -0.416667    0.00057870  47 t-inv F
 -0.416667 -0.083333  0.416667    0.00057870  47 t-inv F
  0.416667  0.083333 -0.416667    0.00057870  47 t-inv F
  0.416667 -0.416667  0.083333    0.00057870  47 t-inv F
 -0.416667  0.416667 -0.083333    0.00057870  47 t-inv F
  0.416667 -0.083333  0.416667    0.00057870  47 t-inv F
 -0.416667  0.083333 -0.416667    0.00057870  47 t-inv F
  0.083333 -0.416667  0.416667    0.00057870  47 t-inv F
 -0.083333  0.416667 -0.416667    0.00057870  47 t-inv F
 -0.500000 -0.416667 -0.083333    0.00057870  48 t-inv F
  0.083333  0.500000  0.416667    0.00057870  48 t-inv F
 -0.083333 -0.500000 -0.416667    0.00057870  48 t-inv F
  0.416667  0.083333  0.500000    0.00057870  48 t-inv F
 -0.416667 -0.083333 -0.500000    0.00057870  48 t-inv F
 -0.416667  0.500000  0.083333    0.00057870  48 t-inv F
  0.416667 -0.500000 -0.083333    0.00057870  48 t-inv F
 -0.500000  0.083333  0.416667    0.00057870  48 t-inv F
  0.500000 -0.083333 -0.416667    0.00057870  48 t-inv F
 -0.083333  0.416667  0.500000    0.00057870  48 t-inv F
  0.083333 -0.416667 -0.500000    0.00057870  48 t-inv F
 -0.500000 -0.416667  0.083333    0.00057870  48 t-inv F
  0.500000  0.416667 -0.083333    0.00057870  48 t-inv F
 -0.083333 -0.500000  0.416667    0.00057870  48 t-inv F
  0.083333  0.500000 -0.416667    0.00057870  48 t-inv F
  0.416667 -0.500000  0.083333    0.00057870  48 t-inv F
 -0.416667  0.500000 -0.083333    0.00057870  48 t-inv F
  0.500000 -0.083333  0.416667    0.00057870  48 t-inv F
 -0.500000  0.083333 -0.416667    0.00057870  48 t-inv F
  0.416667 -0.083333 -0.500000    0.00057870  48 t-inv F
 -0.416667  0.083333  0.500000    0.00057870  48 t-inv F
  0.083333  0.416667 -0.500000    0.00057870  48 t-inv F
 -0.083333 -0.416667  0.500000    0.00057870  48 t-inv F
 -0.500000 -0.500000 -0.083333    0.00057870  49 t-inv F
  0.083333  0.500000  0.500000    0.00057870  49 t-inv F
 -0.083333 -0.500000 -0.500000    0.00057870  49 t-inv F
  0.500000  0.083333  0.500000    0.00057870  49 t-inv F
 -0.500000 -0.083333 -0.500000    0.00057870  49 t-inv F
 -0.166667 -0.166667 -0.166667    0.00057870  50 t-inv F
 -0.166667  0.166667  0.166667    0.00057870  50 t-inv F
  0.166667 -0.166667 -0.166667    0.00057870  50 t-inv F
 -0.166667 -0.166667  0.166667    0.00057870  50 t-inv F
  0.166667  0.166667 -0.166667    0.00057870  50 t-inv F
  0.166667 -0.166667  0.166667    0.00057870  50 t-inv F
 -0.166667  0.166667 -0.166667    0.00057870  50 t-inv F
 -0.250000 -0.166667 -0.166667    0.00057870  51 t-inv F
  0.166667  0.250000  0.166667    0.00057870  51 t-inv F
 -0.166667 -0.250000 -0.166667    0.00057870  51 t-inv F
  0.166667  0.166667  0.250000    0.00057870  51 t-inv F
 -0.166667 -0.166667 -0.250000    0.00057870  51 t-inv F
[...]
     40      18.0337      0.00000
     41      18.4212      0.00000
     42      19.3247      0.00000
     43      19.5969      0.00000
     44      19.9344      0.00000
     45      20.4822      0.00000
     46      21.1365      0.00000
     47      21.1627      0.00000
     48      21.6566      0.00000

 k-point    79 :       0.5000    0.4167    0.3333
  band No.  band energies     occupation 
      1     -27.2385      2.00000
      2     -27.2385      2.00000
      3     -12.5757      2.00000
      4     -12.5757      2.00000
      5     -12.4444      2.00000
      6     -12.4444      2.00000
      7     -12.3382      2.00000
      8     -12.3382      2.00000
      9       1.6510      0.32973
     10       1.6510      0.32973
     11       2.1074      0.00000
     12       2.1074      0.00000
     13       2.3006      0.00000
     14       2.3006      0.00000
     15       5.2245      0.00000
     16       5.2245      0.00000
     17       5.4035      0.00000
     18       5.4035      0.00000
     19       6.1331      0.00000
     20       6.1331      0.00000
     21       7.6452      0.00000
     22       7.6452      0.00000
     23       8.4374      0.00000
     24       8.4374      0.00000
     25       8.8876      0.00000
     26       8.8876      0.00000
     27      11.8039      0.00000
     28      11.8039      0.00000
     29      12.6677      0.00000
     30      12.6677      0.00000
     31      13.7683      0.00000
     32      13.7683      0.00000
     33      14.1331      0.00000
     34      14.1331      0.00000
     35      15.6072      0.00000
     36      15.6072      0.00000
     37      16.1012      0.00000
     38      16.1012      0.00000
     39      18.2727      0.00000
     40      18.2727      0.00000
     41      19.0691      0.00000
     42      19.0691      0.00000
     43      19.5428      0.00000
     44      19.5428      0.00000
     45      20.3350      0.00000
     46      20.3350      0.00000
     47      21.7590      0.00000
     48      21.7590      0.00000

 k-point    80 :       0.5000    0.5000    0.3333
  band No.  band energies     occupation 
      1     -27.2383      2.00000
      2     -27.2383      2.00000
      3     -12.5721      2.00000
      4     -12.5721      2.00000
      5     -12.4410      2.00000
      6     -12.4410      2.00000
      7     -12.3498      2.00000
      8     -12.3498      2.00000
      9       1.6694      0.13471
     10       1.6694      0.13471
     11       2.0973      0.00000
     12       2.0973      0.00000
     13       2.3602      0.00000
     14       2.3602      0.00000
     15       5.2393      0.00000
     16       5.2393      0.00000
     17       5.4425      0.00000
     18       5.4425      0.00000
     19       6.0228      0.00000
     20       6.0228      0.00000
     21       7.6910      0.00000
     22       7.6910      0.00000
     23       8.3588      0.00000
     24       8.3588      0.00000
     25       8.8496      0.00000
     26       8.8496      0.00000
     27      12.1062      0.00000
     28      12.1062      0.00000
     29      12.8519      0.00000
     30      12.8519      0.00000
     31      13.2057      0.00000
     32      13.2057      0.00000
     33      14.1133      0.00000
     34      14.1133      0.00000
     35      15.3794      0.00000
     36      15.3794      0.00000
     37      16.1523      0.00000
     38      16.1523      0.00000
     39      19.0819      0.00000
     40      19.0819      0.00000
     41      19.1832      0.00000
     42      19.1832      0.00000
     43      19.4580      0.00000
     44      19.4580      0.00000
     45      19.8740      0.00000
     46      19.8740      0.00000
     47      21.1487      0.00000
     48      21.1487      0.00000

 k-point    81 :       0.4167    0.4167    0.4167
  band No.  band energies     occupation 
      1     -27.2388      2.00000
      2     -27.2376      2.00000
      3     -12.5599      2.00000
      4     -12.5125      2.00000
      5     -12.5125      2.00000
      6     -12.3997      2.00000
      7     -12.3997      2.00000
      8     -12.3501      2.00000
      9       1.8372      0.00000
     10       1.9061      0.00000
     11       2.0916      0.00000
     12       2.0916      0.00000
     13       2.1874      0.00000
     14       2.1874      0.00000
     15       5.3714      0.00000
     16       5.3714      0.00000
     17       5.3920      0.00000
     18       5.3920      0.00000
     19       5.7255      0.00000
     20       5.9400      0.00000
     21       7.7748      0.00000
     22       8.1370      0.00000
     23       8.1370      0.00000
     24       8.5807      0.00000
     25       8.5807      0.00000
     26       8.9039      0.00000
     27      11.5720      0.00000
     28      12.2289      0.00000
     29      12.2289      0.00000
     30      13.3041      0.00000
     31      13.7718      0.00000
     32      13.7718      0.00000
     33      14.3403      0.00000
     34      14.3403      0.00000
     35      14.4600      0.00000
     36      15.3971      0.00000
     37      15.5785      0.00000
     38      15.5785      0.00000
     39      18.7253      0.00000
     40      18.7253      0.00000
     41      18.8521      0.00000
     42      18.9734      0.00000
     43      20.3928      0.00000
     44      20.4962      0.00000
     45      20.4962      0.00000
     46      21.2617      0.00000
     47      21.2617      0.00000
     48      22.1342      0.00000

 k-point    82 :       0.5000    0.4167    0.4167
  band No.  band energies     occupation 
      1     -27.2380      2.00000
      2     -27.2380      2.00000
      3     -12.5368      2.00000
      4     -12.5368      2.00000
      5     -12.4561      2.00000
      6     -12.4561      2.00000
      7     -12.3794      2.00000
      8     -12.3794      2.00000
      9       1.9138      0.00000
     10       1.9138      0.00000
     11       2.1159      0.00000
     12       2.1159      0.00000
     13       2.1944      0.00000
     14       2.1944      0.00000
     15       5.3863      0.00000
     16       5.3863      0.00000
     17       5.4198      0.00000
     18       5.4198      0.00000
     19       5.7084      0.00000
     20       5.7084      0.00000
     21       7.9441      0.00000
     22       7.9441      0.00000
     23       8.4192      0.00000
     24       8.4192      0.00000
     25       8.6560      0.00000
     26       8.6560      0.00000
     27      12.0089      0.00000
     28      12.0089      0.00000
     29      12.8752      0.00000
     30      12.8752      0.00000
     31      13.8233      0.00000
     32      13.8233      0.00000
     33      13.9173      0.00000
     34      13.9173      0.00000
     35      14.8776      0.00000
     36      14.8776      0.00000
     37      15.4630      0.00000
     38      15.4630      0.00000
     39      18.8452      0.00000
     40      18.8452      0.00000
     41      19.6035      0.00000
     42      19.6035      0.00000
     43      19.8998      0.00000
     44      19.8998      0.00000
     45      21.1549      0.00000
     46      21.1549      0.00000
     47      21.7957      0.00000
     48      21.7957      0.00000

 k-point    83 :       0.5000    0.5000    0.4167
  band No.  band energies     occupation 
      1     -27.2378      2.00000
      2     -27.2378      2.00000
      3     -12.5185      2.00000
      4     -12.5185      2.00000
      5     -12.4555      2.00000
      6     -12.4555      2.00000
      7     -12.4034      2.00000
      8     -12.4034      2.00000
      9       1.9924      0.00000
     10       1.9924      0.00000
     11       2.0880      0.00000
     12       2.0880      0.00000
     13       2.2239      0.00000
     14       2.2239      0.00000
     15       5.3912      0.00000
     16       5.3912      0.00000
     17       5.4609      0.00000
     18       5.4609      0.00000
     19       5.5665      0.00000
     20       5.5665      0.00000
     21       8.0413      0.00000
     22       8.0413      0.00000
     23       8.4802      0.00000
     24       8.4802      0.00000
     25       8.4843      0.00000
     26       8.4843      0.00000
     27      12.2974      0.00000
     28      12.2974      0.00000
     29      12.9786      0.00000
     30      12.9786      0.00000
     31      13.3251      0.00000
     32      13.3251      0.00000
     33      14.3350      0.00000
     34      14.3350      0.00000
     35      14.3951      0.00000
     36      14.3951      0.00000
     37      15.2945      0.00000
     38      15.2945      0.00000
     39      18.7903      0.00000
     40      18.7903      0.00000
     41      20.3792      0.00000
     42      20.3792      0.00000
     43      20.5563      0.00000
     44      20.5563      0.00000
     45      20.5661      0.00000
     46      20.5661      0.00000
     47      21.6116      0.00000
     48      21.6116      0.00000

 k-point    84 :       0.5000    0.5000    0.5000
  band No.  band energies     occupation 
      1     -27.2377      2.00000
      2     -27.2377      2.00000
      3     -12.4609      2.00000
      4     -12.4609      2.00000
      5     -12.4609      2.00000
      6     -12.4609      2.00000
      7     -12.4609      2.00000
      8     -12.4609      2.00000
      9       2.1302      0.00000
     10       2.1302      0.00000
     11       2.1302      0.00000
     12       2.1302      0.00000
     13       2.1302      0.00000
     14       2.1302      0.00000
     15       5.3718      0.00000
     16       5.3718      0.00000
     17       5.4678      0.00000
     18       5.4678      0.00000
     19       5.4678      0.00000
     20       5.4678      0.00000
     21       8.3389      0.00000
     22       8.3389      0.00000
     23       8.3389      0.00000
     24       8.3389      0.00000
     25       8.3389      0.00000
     26       8.3389      0.00000
     27      12.9020      0.00000
     28      12.9020      0.00000
     29      12.9020      0.00000
     30      12.9020      0.00000
     31      12.9020      0.00000
     32      12.9020      0.00000
     33      14.5156      0.00000
     34      14.5156      0.00000
     35      14.5156      0.00000
     36      14.5156      0.00000
     37      14.5156      0.00000
     38      14.5156      0.00000
     39      18.6584      0.00000
     40      18.6584      0.00000
     41      21.3083      0.00000
     42      21.3083      0.00000
     43      21.3083      0.00000
     44      21.3083      0.00000
     45      21.5578      0.00000
     46      21.5578      0.00000
     47      21.5578      0.00000
     48      21.5578      0.00000


--------------------------------------------------------------------------------------------------------


 soft charge-density along one line, spin component           1
         0         1         2         3         4         5         6         7         8         9
 total charge-density along one line
 
 pseudopotential strength for first ion, spin component:           1
  3.597  -7.174  -0.000  -0.000  -0.000  -0.000  -0.000   0.000
 -7.174   2.120   0.000   0.000   0.000  -0.000  -0.000   0.000
 -0.000   0.000  -7.165   0.000  -0.000   5.040   0.000  -0.000
 -0.000   0.000   0.000  -7.165  -0.000   0.000   5.040  -0.000
 -0.000   0.000  -0.000  -0.000  -7.165  -0.000  -0.000   5.040
 -0.000  -0.000   5.040   0.000  -0.000   5.946  -0.000   0.000
 -0.000  -0.000   0.000   5.040  -0.000  -0.000   5.946   0.000
  0.000   0.000  -0.000  -0.000   5.040   0.000   0.000   5.946
 -0.000   0.000   0.000  -0.000  -0.000  -0.000  -0.000  -0.000
  0.000  -0.000  -0.000  -0.000  -0.000  -0.000  -0.000  -0.000
 -0.000   0.000   0.000  -0.000   0.000   0.000  -0.000  -0.000
 -0.000   0.000  -0.000  -0.000  -0.000  -0.000  -0.000  -0.000
 -0.000   0.000   0.000   0.000  -0.000   0.000   0.000   0.000
 -0.000   0.000  -0.000  -0.000  -0.000   0.000  -0.000  -0.000
  0.000  -0.000  -0.000  -0.000  -0.000  -0.000  -0.000  -0.000
 -0.000   0.000   0.000  -0.000   0.000   0.000  -0.000   0.000
 -0.000   0.000  -0.000  -0.000  -0.000  -0.000  -0.000  -0.000
 -0.000   0.000   0.000   0.000  -0.000   0.000   0.000   0.000
 total augmentation occupancy for first ion, spin component:           1
  1.998  -0.014  -0.000  -0.000  -0.000   0.000   0.000   0.000   0.000  -0.000   0.000  -0.000   0.000   0.000   0.000  -0.000
 -0.014   1.021   0.000   0.000   0.000   0.000   0.000   0.000   0.000  -0.000  -0.000   0.000  -0.000   0.000  -0.000  -0.000
 -0.000  -0.000   1.993   0.000   0.000   0.003   0.000   0.000  -0.000   0.000   0.000   0.000   0.000   0.000  -0.000   0.000
 -0.000  -0.000   0.000   1.993   0.000   0.000   0.003   0.000   0.000   0.000   0.000   0.000   0.000   0.000  -0.000   0.000
 -0.000  -0.000   0.000   0.000   1.993   0.000   0.000   0.003   0.000  -0.000   0.000   0.000   0.000   0.000   0.000   0.000
  0.000   0.000   0.003   0.000   0.000   0.004   0.000   0.000   0.000  -0.000  -0.000   0.000   0.000  -0.000   0.000  -0.000
 -0.000   0.000   0.000   0.003   0.000   0.000   0.004   0.000   0.000   0.000  -0.000   0.000   0.000   0.000   0.000   0.000
 -0.000   0.000   0.000   0.000   0.003   0.000   0.000   0.004  -0.000  -0.000   0.000   0.000   0.000  -0.000   0.000   0.000
  0.000  -0.000  -0.000   0.000   0.000   0.000   0.000  -0.000   0.469   0.000  -0.000   0.000  -0.000  -0.185  -0.000   0.000
 -0.000   0.000   0.000   0.000  -0.000  -0.000   0.000  -0.000   0.000   0.469   0.000   0.000  -0.000  -0.000  -0.185  -0.000
  0.000  -0.000   0.000   0.000   0.000   0.000   0.000   0.000  -0.000   0.000   0.889   0.000   0.000   0.000   0.000  -0.340
 -0.000   0.000   0.000   0.000   0.000   0.000   0.000   0.000   0.000   0.000   0.000   0.469   0.000  -0.000  -0.000  -0.000
  0.000   0.000   0.000   0.000   0.000   0.000   0.000   0.000  -0.000  -0.000   0.000   0.000   0.889   0.000   0.000  -0.000
  0.000  -0.000   0.000   0.000   0.000  -0.000   0.000  -0.000  -0.185  -0.000   0.000  -0.000   0.000   0.073   0.000  -0.000
  0.000   0.000  -0.000  -0.000   0.000   0.000   0.000   0.000  -0.000  -0.185  -0.000  -0.000   0.000   0.000   0.073  -0.000
 -0.000  -0.000  -0.000   0.000   0.000   0.000  -0.000   0.000   0.000   0.000  -0.340   0.000  -0.000  -0.000   0.000   0.131
  0.000  -0.000   0.000  -0.000   0.000  -0.000   0.000   0.000  -0.000  -0.000  -0.000  -0.185  -0.000   0.000   0.000   0.000
 -0.000   0.000   0.000   0.000   0.000   0.000   0.000   0.000   0.000   0.000  -0.000  -0.000  -0.340  -0.000  -0.000   0.000


------------------------ aborting loop because EDIFF is reached ----------------------------------------


    CHARGE:  cpu time      0.0089: real time      0.0090
    FORLOC:  cpu time      0.0001: real time      0.0001
    FORNL :  cpu time      0.0227: real time      0.0228
    STRESS:  cpu time      0.2404: real time      0.2404
    FORCOR:  cpu time      0.0020: real time      0.0022
    FORHAR:  cpu time      0.0005: real time      0.0006
    MIXING:  cpu time      0.0005: real time      0.0005
    OFIELD:  cpu time      0.0001: real time      0.0001

  FORCE on cell =-STRESS in cart. coord.  units (eV):
  Direction    XX          YY          ZZ          XY          YZ          ZX
  --------------------------------------------------------------------------------------
  Alpha Z    82.58459    82.58459    82.58459
  Ewald    -347.42122  -347.42122  -347.42122    -0.00000    -0.00000    -0.00000
  Hartree    80.89955    80.89955    80.89955    -0.00000    -0.00000    -0.00000
  E(xc)     -64.97653   -64.97653   -64.97653     0.00000    -0.00000    -0.00000
  Local      64.10202    64.10202    64.10202    -0.00000    -0.00000    -0.00000
  n-local   -73.48671   -77.44165   -83.25359     0.59613    -0.39206     0.16213
  augment   -19.05647   -19.05647   -19.05647     0.00000     0.00000     0.00000
  Kinetic   277.43744   278.90185   289.26713    -0.37463     2.33998     0.30560
  Fock        0.00000     0.00000     0.00000     0.00000     0.00000     0.00000
  -------------------------------------------------------------------------------------
  Total      -0.05991    -0.05991    -0.05991     0.00000     0.00000     0.00000
  in kB      -0.75514    -0.75514    -0.75514     0.00000     0.00000     0.00000
  external pressure =       -0.76 kB  Pullay stress =        0.00 kB


 VOLUME and BASIS-vectors are now :
 -----------------------------------------------------------------------------
  energy-cutoff  :      243.34
  volume of cell :      127.11
      direct lattice vectors                 reciprocal lattice vectors
     5.027920000  0.000000000  0.000000000     0.198889402 -0.000000000  0.000000000
     0.000000000  5.027920000  0.000000000     0.000000000  0.198889402  0.000000000
     0.000000000  0.000000000  5.027920000    -0.000000000 -0.000000000  0.198889402

  length of vectors
     5.027920000  5.027920000  5.027920000     0.198889402  0.198889402  0.198889402


 FORCES acting on ions
    electron-ion (+dipol)            ewald-force                    non-local-force                 convergence-correction
 -----------------------------------------------------------------------------------------------
   -.875E-14 -.495E-14 0.201E-14   -.379E-15 -.236E-14 -.174E-14   -.507E-26 -.410E-26 0.118E-26   0.495E-15 0.149E-14 0.838E-14
   0.742E-13 0.548E-12 0.158E-12   0.908E-15 0.182E-14 0.125E-14   -.280E-25 -.280E-25 -.653E-26   -.738E-14 -.743E-14 -.104E-13
 -----------------------------------------------------------------------------------------------
   0.654E-13 0.543E-12 0.160E-12   0.529E-15 -.536E-15 -.492E-15   -.331E-25 -.321E-25 -.535E-26   -.688E-14 -.594E-14 -.203E-14
 
 
 POSITION                                       TOTAL-FORCE (eV/Angst)
 -----------------------------------------------------------------------------------
      0.00000      0.00000      0.00000        -0.000000     -0.000000     -0.000000
      2.51396      2.51396      2.51396         0.000000      0.000000      0.000000
 -----------------------------------------------------------------------------------
    total drift:                                0.000000      0.000000      0.000000


--------------------------------------------------------------------------------------------------------



  FREE ENERGIE OF THE ION-ELECTRON SYSTEM (eV)
  ---------------------------------------------------
  free  energy   TOTEN  =        -3.81985897 eV

  energy  without entropy=       -3.81594384  energy(sigma->0) =       -3.81790141
 


--------------------------------------------------------------------------------------------------------


    POTLOK:  cpu time      0.0040: real time      0.0040


--------------------------------------------------------------------------------------------------------


 writing wavefunctions
     LOOP+:  cpu time     20.3178: real time     20.3424
    4ORBIT:  cpu time      0.0000: real time      0.0000

 total amount of memory used by VASP MPI-rank0    46115. kBytes
=======================================================================

   base      :      30000. kBytes
   nonl-proj :      13971. kBytes
   fftplans  :         96. kBytes
   grid      :        405. kBytes
   one-center:         31. kBytes
   wavefun   :       1612. kBytes
 
  
  
 General timing and accounting informations for this job:
 ========================================================
  
                  Total CPU time used (sec):       21.155
                            User time (sec):       20.703
                          System time (sec):        0.452
                         Elapsed time (sec):       21.476
  
                   Maximum memory used (kb):      241708.
                   Average memory used (kb):          N/A
  
                          Minor page faults:        23385
                          Major page faults:            0
                 Voluntary context switches:         3668
