<?xml version="1.0" encoding="ISO-8859-1"?>
<modeling>
 <generator>
  <i name="program" type="string">vasp </i>
  <i name="version" type="string">6.4.3  </i>
  <i name="subversion" type="string">19Mar24 (build Jun 26 2024 13:02:28) complex                          parallel </i>
  <i name="platform" type="string">LinuxIFC </i>
  <i name="date" type="string">2025 08 08 </i>
  <i name="time" type="string">18:53:30 </i>
 </generator>
 <incar>
  <i type="string" name="SYSTEM">Ba</i>
  <i type="int" name="IBRION">    -1</i>
  <i type="int" name="ISYM">     2</i>
  <i name="ENCUT">    243.33530000</i>
  <i type="int" name="ISMEAR">     0</i>
  <i name="SIGMA">      0.05000000</i>
  <i type="logical" name="LWAVE"> T  </i>
  <i type="logical" name="LCHARG"> T  </i>
 </incar>
 <primitive_cell>
  <structure name="primitive_cell" >
   <crystal>
    <varray name="basis" >
     <v>       2.51396000       2.51396000      -2.51396000 </v>
     <v>      -2.51396000       2.51396000       2.51396000 </v>
     <v>       2.51396000      -2.51396000       2.51396000 </v>
    </varray>
    <i name="volume">     63.55285733 </i>
    <varray name="rec_basis" >
     <v>       0.19888940       0.19888940      -0.00000000 </v>
     <v>      -0.00000000       0.19888940       0.19888940 </v>
     <v>       0.19888940      -0.00000000       0.19888940 </v>
    </varray>
   </crystal>
   <varray name="positions" >
    <v>       0.00000000       0.00000000       0.00000000 </v>
   </varray>
  </structure>
  <varray name="primitive_index" >
   <v type="int" >        1 </v>
  </varray>
 </primitive_cell>
 <kpoints>
  <generation param="Gamma">
   <v type="int" name="divisions">      12       12       12 </v>
   <v name="usershift">      0.00000000       0.00000000       0.00000000 </v>
   <v name="genvec1">      0.08333333       0.00000000       0.00000000 </v>
   <v name="genvec2">      0.00000000       0.08333333       0.00000000 </v>
   <v name="genvec3">      0.00000000      -0.00000000       0.08333333 </v>
   <v name="shift">      0.00000000       0.00000000       0.00000000 </v>
  </generation>
  <varray name="kpointlist" >
   <v>       0.00000000       0.00000000       0.00000000 </v>
   <v>       0.08333333       0.00000000       0.00000000 </v>
   <v>       0.16666667       0.00000000       0.00000000 </v>
   <v>       0.25000000       0.00000000       0.00000000 </v>
   <v>       0.33333333       0.00000000       0.00000000 </v>
   <v>       0.41666667       0.00000000       0.00000000 </v>
   <v>       0.50000000       0.00000000       0.00000000 </v>
   <v>       0.08333333       0.08333333       0.00000000 </v>
   <v>       0.16666667       0.08333333       0.00000000 </v>
   <v>       0.25000000       0.08333333       0.00000000 </v>
   <v>       0.33333333       0.08333333       0.00000000 </v>
   <v>       0.41666667       0.08333333       0.00000000 </v>
   <v>       0.50000000       0.08333333       0.00000000 </v>
   <v>       0.16666667       0.16666667       0.00000000 </v>
   <v>       0.25000000       0.16666667       0.00000000 </v>
   <v>       0.33333333       0.16666667       0.00000000 </v>
   <v>       0.41666667       0.16666667       0.00000000 </v>
   <v>       0.50000000       0.16666667       0.00000000 </v>
   <v>       0.25000000       0.25000000       0.00000000 </v>
   <v>       0.33333333       0.25000000       0.00000000 </v>
   <v>       0.41666667       0.25000000       0.00000000 </v>
   <v>       0.50000000       0.25000000       0.00000000 </v>
   <v>       0.33333333       0.33333333       0.00000000 </v>
   <v>       0.41666667       0.33333333       0.00000000 </v>
   <v>       0.50000000       0.33333333       0.00000000 </v>
   <v>       0.41666667       0.41666667       0.00000000 </v>
   <v>       0.50000000       0.41666667       0.00000000 </v>
   <v>       0.50000000       0.50000000       0.00000000 </v>
   <v>       0.08333333       0.08333333       0.08333333 </v>
   <v>       0.16666667       0.08333333       0.08333333 </v>
   <v>       0.25000000       0.08333333       0.08333333 </v>
   <v>       0.33333333       0.08333333       0.08333333 </v>
   <v>       0.41666667       0.08333333       0.08333333 </v>
   <v>       0.50000000       0.08333333       0.08333333 </v>
   <v>       0.16666667       0.16666667       0.08333333 </v>
   <v>       0.25000000       0.16666667       0.08333333 </v>
   <v>       0.33333333       0.16666667       0.08333333 </v>
   <v>       0.41666667       0.16666667       0.08333333 </v>
   <v>       0.50000000       0.16666667       0.08333333 </v>
   <v>       0.25000000       0.25000000       0.08333333 </v>
   <v>       0.33333333       0.25000000       0.08333333 </v>
   <v>       0.41666667       0.25000000       0.08333333 </v>
   <v>       0.50000000       0.25000000       0.08333333 </v>
   <v>       0.33333333       0.33333333       0.08333333 </v>
   <v>       0.41666667       0.33333333       0.08333333 </v>
   <v>       0.50000000       0.33333333       0.08333333 </v>
   <v>       0.41666667       0.41666667       0.08333333 </v>
   <v>       0.50000000       0.41666667       0.08333333 </v>
   <v>       0.50000000       0.50000000       0.08333333 </v>
   <v>       0.16666667       0.16666667       0.16666667 </v>
   <v>       0.25000000       0.16666667       0.16666667 </v>
   <v>       0.33333333       0.16666667       0.16666667 </v>
   <v>       0.41666667       0.16666667       0.16666667 </v>
   <v>       0.50000000       0.16666667       0.16666667 </v>
   <v>       0.25000000       0.25000000       0.16666667 </v>
   <v>       0.33333333       0.25000000       0.16666667 </v>
   <v>       0.41666667       0.25000000       0.16666667 </v>
   <v>       0.50000000       0.25000000       0.16666667 </v>
   <v>       0.33333333       0.33333333       0.16666667 </v>
   <v>       0.41666667       0.33333333       0.16666667 </v>
   <v>       0.50000000       0.33333333       0.16666667 </v>
   <v>       0.41666667       0.41666667       0.16666667 </v>
   <v>       0.50000000       0.41666667       0.16666667 </v>
   <v>       0.50000000       0.50000000       0.16666667 </v>
   <v>       0.25000000       0.25000000       0.25000000 </v>
   <v>       0.33333333       0.25000000       0.25000000 </v>
   <v>       0.41666667       0.25000000       0.25000000 </v>
   <v>       0.50000000       0.25000000       0.25000000 </v>
   <v>       0.33333333       0.33333333       0.25000000 </v>
   <v>       0.41666667       0.33333333       0.25000000 </v>
   <v>       0.50000000       0.33333333       0.25000000 </v>
   <v>       0.41666667       0.41666667       0.25000000 </v>
   <v>       0.50000000       0.41666667       0.25000000 </v>
   <v>       0.50000000       0.50000000       0.25000000 </v>
   <v>       0.33333333       0.33333333       0.33333333 </v>
   <v>       0.41666667       0.33333333       0.33333333 </v>
   <v>       0.50000000       0.33333333       0.33333333 </v>
   <v>       0.41666667       0.41666667       0.33333333 </v>
   <v>       0.50000000       0.41666667       0.33333333 </v>
   <v>       0.50000000       0.50000000       0.33333333 </v>
   <v>       0.41666667       0.41666667       0.41666667 </v>
   <v>       0.50000000       0.41666667       0.41666667 </v>
   <v>       0.50000000       0.50000000       0.41666667 </v>
   <v>       0.50000000       0.50000000       0.50000000 </v>
  </varray>
  <varray name="weights" >
   <v>       0.00057870 </v>
   <v>       0.00347222 </v>
   <v>       0.00347222 </v>
   <v>       0.00347222 </v>
   <v>       0.00347222 </v>
   <v>       0.00347222 </v>
   <v>       0.00173611 </v>
   <v>       0.00694444 </v>
   <v>       0.01388889 </v>
   <v>       0.01388889 </v>
   <v>       0.01388889 </v>
   <v>       0.01388889 </v>
   <v>       0.00694444 </v>
   <v>       0.00694444 </v>
   <v>       0.01388889 </v>
   <v>       0.01388889 </v>
   <v>       0.01388889 </v>
   <v>       0.00694444 </v>
   <v>       0.00694444 </v>
   <v>       0.01388889 </v>
   <v>       0.01388889 </v>
   <v>       0.00694444 </v>
   <v>       0.00694444 </v>
   <v>       0.01388889 </v>
   <v>       0.00694444 </v>
   <v>       0.00694444 </v>
   <v>       0.00694444 </v>
   <v>       0.00173611 </v>
   <v>       0.00462963 </v>
   <v>       0.01388889 </v>
   <v>       0.01388889 </v>
   <v>       0.01388889 </v>
   <v>       0.01388889 </v>
   <v>       0.00694444 </v>
   <v>       0.01388889 </v>
   <v>       0.02777778 </v>
   <v>       0.02777778 </v>
   <v>       0.02777778 </v>
   <v>       0.01388889 </v>
   <v>       0.01388889 </v>
   <v>       0.02777778 </v>
   <v>       0.02777778 </v>
   <v>       0.01388889 </v>
   <v>       0.01388889 </v>
   <v>       0.02777778 </v>
   <v>       0.01388889 </v>
   <v>       0.01388889 </v>
   <v>       0.01388889 </v>
   <v>       0.00347222 </v>
   <v>       0.00462963 </v>
   <v>       0.01388889 </v>
   <v>       0.01388889 </v>
   <v>       0.01388889 </v>
   <v>       0.00694444 </v>
   <v>       0.01388889 </v>
   <v>       0.02777778 </v>
   <v>       0.02777778 </v>
   <v>       0.01388889 </v>
   <v>       0.01388889 </v>
   <v>       0.02777778 </v>
   <v>       0.01388889 </v>
   <v>       0.01388889 </v>
   <v>       0.01388889 </v>
   <v>       0.00347222 </v>
   <v>       0.00462963 </v>
   <v>       0.01388889 </v>
   <v>       0.01388889 </v>
   <v>       0.00694444 </v>
   <v>       0.01388889 </v>
   <v>       0.02777778 </v>
   <v>       0.01388889 </v>
   <v>       0.01388889 </v>
   <v>       0.01388889 </v>
   <v>       0.00347222 </v>
   <v>       0.00462963 </v>
   <v>       0.01388889 </v>
   <v>       0.00694444 </v>
   <v>       0.01388889 </v>
   <v>       0.01388889 </v>
   <v>       0.00347222 </v>
   <v>       0.00462963 </v>
   <v>       0.00694444 </v>
   <v>       0.00347222 </v>
   <v>       0.00057870 </v>
  </varray>
 </kpoints>
 <parameters>
  <separator name="general" >
   <i type="string" name="SYSTEM">Ba</i>
   <i type="logical" name="LCOMPAT"> F  </i>
  </separator>
  <separator name="electronic" >
   <i type="string" name="PREC">normal</i>
   <i name="ENMAX">    243.33530000</i>
   <i name="ENAUG">    351.16500000</i>
   <i name="EDIFF">      0.00010000</i>
   <i type="int" name="IALGO">    38</i>
   <i type="int" name="IWAVPR">    10</i>
   <i type="int" name="NBANDS">    48</i>
   <i type="int" name="NBANDSLOW">    -1</i>
   <i type="int" name="NBANDSHIGH">    -1</i>
   <i name="NELECT">     20.00000000</i>
   <i type="int" name="TURBO">     0</i>
   <i type="int" name="IRESTART">     0</i>
   <i type="int" name="NREBOOT">     0</i>
   <i type="int" name="NMIN">     0</i>
   <i name="EREF">      0.00000000</i>
   <separator name="electronic smearing" >
    <i type="int" name="ISMEAR">     0</i>
    <i name="SIGMA">      0.05000000</i>
    <i name="KSPACING">      0.50000000</i>
    <i type="logical" name="KGAMMA"> T  </i>
    <i type="logical" name="KBLOWUP"> T  </i>
   </separator>
   <separator name="electronic projectors" >
    <i type="logical" name="LREAL"> F  </i>
    <v name="ROPT">      0.00000000</v>
    <i type="int" name="LMAXPAW">  -100</i>
    <i type="int" name="LMAXMIX">     2</i>
    <i type="logical" name="NLSPLINE"> F  </i>
   </separator>
   <separator name="electronic startup" >
    <i type="int" name="ISTART">     1</i>
    <i type="int" name="ICHARG">     0</i>
    <i type="int" name="INIWAV">     1</i>
   </separator>
   <separator name="electronic spin" >
    <i type="int" name="ISPIN">     1</i>
    <i type="logical" name="LNONCOLLINEAR"> F  </i>
    <v name="MAGMOM">      1.00000000      1.00000000</v>
    <i name="NUPDOWN">     -1.00000000</i>
    <i type="logical" name="LSORBIT"> F  </i>
    <v name="SAXIS">      0.00000000      0.00000000      1.00000000</v>
    <i type="logical" name="LSPIRAL"> F  </i>
    <v name="QSPIRAL">      0.00000000      0.00000000      0.00000000</v>
    <i type="logical" name="LZEROZ"> F  </i>
   </separator>
   <separator name="electronic exchange-correlation" >
    <i type="logical" name="LASPH"> F  </i>
   </separator>
   <separator name="electronic convergence" >
    <i type="int" name="NELM">    60</i>
    <i type="int" name="NELMDL">     0</i>
    <i type="int" name="NELMIN">     2</i>
    <i name="ENINI">    243.33530000</i>
    <separator name="electronic convergence detail" >
     <i type="logical" name="LDIAG"> T  </i>
     <i type="logical" name="LSUBROT"> F  </i>
     <i name="WEIMIN">      0.00000000</i>
     <i name="EBREAK">      0.00000052</i>
     <i name="DEPER">      0.30000000</i>
     <i type="int" name="NRMM">     4</i>
     <i name="TIME">      0.40000000</i>
    </separator>
   </separator>
   <separator name="electronic mixer" >
    <i name="AMIX">      0.40000000</i>
    <i name="BMIX">      1.00000000</i>
    <i name="AMIN">      0.10000000</i>
    <i name="AMIX_MAG">      1.60000000</i>
    <i name="BMIX_MAG">      1.00000000</i>
    <separator name="electronic mixer details" >
     <i type="int" name="IMIX">     4</i>
     <i type="logical" name="MIXFIRST"> F  </i>
     <i type="int" name="MAXMIX">   -45</i>
     <i name="WC">    100.00000000</i>
     <i type="int" name="INIMIX">     1</i>
     <i type="int" name="MIXPRE">     1</i>
     <i type="int" name="MREMOVE">     5</i>
    </separator>
   </separator>
   <separator name="electronic dipolcorrection" >
    <i type="logical" name="LDIPOL"> F  </i>
    <i type="logical" name="LMONO"> F  </i>
    <i type="int" name="IDIPOL">     0</i>
    <i name="EPSILON">      1.00000000</i>
    <v name="DIPOL">   -100.00000000   -100.00000000   -100.00000000</v>
    <i name="EFIELD">      0.00000000</i>
    <i type="logical" name="LVACPOTAV"> F  </i>
   </separator>
  </separator>
  <separator name="grids" >
   <i type="int" name="NGX">    20</i>
   <i type="int" name="NGY">    20</i>
   <i type="int" name="NGZ">    20</i>
   <i type="int" name="NGXF">    40</i>
   <i type="int" name="NGYF">    40</i>
   <i type="int" name="NGZF">    40</i>
   <i type="logical" name="ADDGRID"> F  </i>
  </separator>
  <separator name="ionic" >
   <i type="int" name="NSW">     0</i>
   <i type="int" name="IBRION">    -1</i>
   <i type="int" name="MDALGO">     0</i>
   <i type="int" name="ISIF">     2</i>
   <i name="PSTRESS">      0.00000000</i>
   <i name="EDIFFG">      0.00100000</i>
   <i type="int" name="NFREE">     0</i>
   <i name="POTIM">      0.50000000</i>
   <i name="SMASS">     -3.00000000</i>
   <i name="SCALEE">      1.00000000</i>
  </separator>
  <separator name="ionic md" >
   <i name="TEBEG">      0.00010000</i>
   <i name="TEEND">      0.00010000</i>
   <i type="int" name="NBLOCK">     1</i>
   <i type="int" name="KBLOCK">     1</i>
   <i type="int" name="NPACO">   256</i>
   <i name="APACO">     10.00000000</i>
  </separator>
  <separator name="symmetry" >
   <i type="int" name="ISYM">     2</i>
   <i name="SYMPREC">      0.00001000</i>
  </separator>
  <separator name="dos" >
   <i type="int" name="LORBIT">     0</i>
   <v name="RWIGS">     -1.00000000</v>
   <i type="int" name="NEDOS">   301</i>
   <i name="EMIN">     10.00000000</i>
   <i name="EMAX">    -10.00000000</i>
   <i name="EFERMI">      0.00000000</i>
  </separator>
  <separator name="writing" >
   <i type="int" name="NWRITE">     2</i>
   <i type="logical" name="LWAVE"> T  </i>
   <i type="logical" name="LDOWNSAMPLE"> F  </i>
   <i type="logical" name="LCHARG"> T  </i>
   <i type="logical" name="LPARD"> F  </i>
   <i type="logical" name="LVTOT"> F  </i>
   <i type="logical" name="LVHAR"> F  </i>
   <i type="logical" name="LELF"> F  </i>
   <i type="logical" name="LOPTICS"> F  </i>
   <v name="STM">      0.00000000      0.00000000      0.00000000      0.00000000      0.00000000      0.00000000      0.00000000</v>
  </separator>
  <separator name="performance" >
   <i type="int" name="NPAR">    48</i>
   <i type="int" name="NSIM">     4</i>
   <i type="int" name="NBLK">    -1</i>
   <i type="logical" name="LPLANE"> T  </i>
   <i type="logical" name="LSCALAPACK"> T  </i>
   <i type="logical" name="LSCAAWARE"> T  </i>
   <i type="logical" name="LSCALU"> F  </i>
   <i type="logical" name="LASYNC"> F  </i>
   <i type="logical" name="LORBITALREAL"> F  </i>
  </separator>
  <separator name="miscellaneous" >
   <i type="int" name="IDIOT">     3</i>
   <i type="int" name="PHON_NSTRUCT">    -1</i>
   <i type="logical" name="LMUSIC"> F  </i>
   <v name="POMASS">    137.32700000</v>
   <v name="DARWINR">      0.00000000</v>
   <v name="DARWINV">      1.00000000</v>
   <i type="logical" name="LCORR"> T  </i>
  </separator>
  <i type="logical" name="GGA_COMPAT"> T  </i>
  <i type="logical" name="LBERRY"> F  </i>
  <i type="int" name="ICORELEVEL">     0</i>
  <i type="logical" name="LDAU"> F  </i>
  <i type="int" name="I_CONSTRAINED_M">     0</i>
  <separator name="electronic exchange-correlation" >
   <i type="string" name="GGA    ">PE</i>
   <i type="string" name="XC_C">1</i>
   <i type="int" name="VOSKOWN">     0</i>
   <i type="logical" name="LHFCALC"> F  </i>
   <i type="string" name="PRECFOCK"></i>
   <i type="logical" name="LSYMGRAD"> F  </i>
   <i type="logical" name="LHFONE"> F  </i>
   <i type="logical" name="LRHFCALC"> F  </i>
   <i type="logical" name="LTHOMAS"> F  </i>
   <i type="logical" name="LMODELHF"> F  </i>
   <i type="logical" name="LFOCKACE"> F  </i>
   <i name="ENCUT4O">     -1.00000000</i>
   <i type="int" name="EXXOEP">     0</i>
   <i type="int" name="FOURORBIT">     0</i>
   <i name="AEXX">      0.00000000</i>
   <i name="HFALPHA">      0.00000000</i>
   <i name="MCALPHA">      0.00000000</i>
   <i name="ALDAX">      1.00000000</i>
   <i name="AGGAX">      1.00000000</i>
   <i name="AMGGAX">      1.00000000</i>
   <i name="ALDAC">      1.00000000</i>
   <i name="AGGAC">      1.00000000</i>
   <i name="AMGGAC">      1.00000000</i>
   <i type="int" name="NKREDX">     1</i>
   <i type="int" name="NKREDY">     1</i>
   <i type="int" name="NKREDZ">     1</i>
   <i type="logical" name="SHIFTRED"> F  </i>
   <i type="logical" name="ODDONLY"> F  </i>
   <i type="logical" name="EVENONLY"> F  </i>
   <i type="int" name="LMAXFOCK">     0</i>
   <i type="int" name="NMAXFOCKAE">     0</i>
   <i type="logical" name="LFOCKAEDFT"> F  </i>
   <i name="HFSCREEN">      0.00000000</i>
   <i name="HFSCREENC">      0.00000000</i>
   <i type="int" name="NBANDSGWLOW">     0</i>
  </separator>
  <separator name="vdW DFT" >
   <i type="logical" name="LUSE_VDW"> F  </i>
   <i type="int" name="IVDW_NL">    -1</i>
   <i type="logical" name="LSPIN_VDW"> F  </i>
   <i name="ZAB_VDW">     -0.84910000</i>
   <i name="GAMMA_VDW">      1.39626340</i>
   <i name="ALPHA_VDW">      0.00000000</i>
   <i name="PARAM1">      0.12340000</i>
   <i name="PARAM2">      1.00000000</i>
   <i name="BPARAM">      6.30000000</i>
   <i name="CPARAM">      0.00930000</i>
  </separator>
  <separator name="model GW" >
   <i type="int" name="MODEL_GW">     0</i>
   <i name="MODEL_EPS0">     38.13171440</i>
   <i name="MODEL_ALPHA">      1.00000000</i>
  </separator>
  <separator name="linear response parameters" >
   <i type="logical" name="LEPSILON"> F  </i>
   <i type="logical" name="LRPA"> F  </i>
   <i type="logical" name="LNABLA"> F  </i>
   <i type="logical" name="LVEL"> F  </i>
   <i name="CSHIFT">      0.10000000</i>
   <i name="OMEGAMAX">     -1.00000000</i>
   <i name="DEG_THRESHOLD">      0.00200000</i>
   <i name="RTIME">     -0.10000000</i>
   <i name="WPLASMAI">      0.00000000</i>
   <v name="DFIELD">      0.00000000      0.00000000      0.00000000</v>
   <v name="WPLASMA">      0.00000000      0.00000000      0.00000000      0.00000000      0.00000000      0.00000000      0.00000000      0.00000000      0.00000000</v>
  </separator>
  <separator name="orbital magnetization" >
   <i type="logical" name="NUCIND"> F  </i>
   <v name="MAGPOS">      0.00000000      0.00000000      0.00000000</v>
   <i type="logical" name="LNICSALL"> T  </i>
   <i type="logical" name="ORBITALMAG"> F  </i>
   <i type="logical" name="LMAGBLOCH"> F  </i>
   <i type="logical" name="LCHIMAG"> F  </i>
   <i type="logical" name="LGAUGE"> T  </i>
   <i type="int" name="MAGATOM">     0</i>
   <v name="MAGDIPOL">      0.00000000      0.00000000      0.00000000</v>
   <v name="AVECCONST">      0.00000000      0.00000000      0.00000000</v>
  </separator>
  <separator name="response functions" >
   <i type="logical" name="LALL_IN_ONE"> F  </i>
   <i type="int" name="IALL_IN_ONE">    -1</i>
   <i type="int" name="NBANDS_WAVE">    -1</i>
   <i type="logical" name="LFINITE_TEMPERATURE"> F  </i>
   <i type="logical" name="LADDER"> F  </i>
   <i type="logical" name="LRPAFORCE"> F  </i>
   <i type="logical" name="LFXC"> F  </i>
   <i type="logical" name="LHARTREE"> T  </i>
   <i type="int" name="IBSE">     0</i>
   <v type="int" name="KPOINT">    -1     0     0     0</v>
   <i type="logical" name="LTCTC"> F  </i>
   <i type="logical" name="LTCTE"> F  </i>
   <i type="logical" name="LTETE"> F  </i>
   <i type="logical" name="LTRIPLET"> F  </i>
   <i type="logical" name="LFXCEPS"> F  </i>
   <i type="logical" name="LFXHEG"> F  </i>
   <i type="int" name="NATURALO">     2</i>
   <i type="logical" name="LHOLEGF"> F  </i>
   <i type="logical" name="L2ORDER"> F  </i>
   <i type="logical" name="LDMP1"> F  </i>
   <i type="logical" name="LMP2LT"> F  </i>
   <i type="logical" name="LSMP2LT"> F  </i>
   <i type="logical" name="LGWLF"> F  </i>
   <i name="ENCUTGW">     -1.60000002</i>
   <i name="ENCUTGWSOFT">     -1.60000002</i>
   <i name="ENCUTLF">     -1.00000000</i>
   <i type="logical" name="ESF_SPLINES"> F  </i>
   <i name="ESF_CONV">      0.01000000</i>
   <i type="int" name="ESF_NINTER">    15</i>
   <i type="int" name="LMAXMP2">    -1</i>
   <i name="SCISSOR">      0.00000000</i>
   <i type="int" name="NOMEGA">     0</i>
   <i type="int" name="NOMEGAR">     0</i>
   <i type="int" name="NBANDSGW">    -1</i>
   <i type="int" name="NBANDSO">    -1</i>
   <i type="int" name="NBANDSV">    -1</i>
   <i type="int" name="NELMGW">     1</i>
   <i type="int" name="NELMHF">     1</i>
   <i type="int" name="DIM">     3</i>
   <i type="int" name="IESPILON">     4</i>
   <i type="int" name="ANTIRES">     0</i>
   <i name="OMEGAMAX">    -30.00000000</i>
   <i name="OMEGAMIN">    -30.00000000</i>
   <i name="OMEGATL">   -200.00000000</i>
   <i type="int" name="OMEGAGRID">     0</i>
   <i name="CSHIFT">     -0.10000000</i>
   <i type="logical" name="LSELFENERGY"> F  </i>
   <i type="logical" name="LSPECTRAL"> F  </i>
   <i type="logical" name="LSPECTRALGW"> F  </i>
   <i type="logical" name="LSINGLES"> F  </i>
   <i type="logical" name="LFERMIGW"> F  </i>
   <i type="logical" name="ODDONLYGW"> F  </i>
   <i type="logical" name="EVENONLYGW"> F  </i>
   <i type="int" name="NKREDLFX">     1</i>
   <i type="int" name="NKREDLFY">     1</i>
   <i type="int" name="NKREDLFZ">     1</i>
   <i type="int" name="MAXMEM">  2800</i>
   <i type="int" name="TELESCOPE">     0</i>
   <i type="int" name="NTAUPAR">    -1</i>
   <i type="int" name="NOMEGAPAR">    -1</i>
   <i name="DAMP_NEWTON">      0.80000001</i>
   <i name="LAMBDA">      1.00000000</i>
  </separator>
  <separator name="External order field" >
   <i name="OFIELD_KAPPA">      0.00000000</i>
   <v name="OFIELD_K">      0.00000000      0.00000000      0.00000000</v>
   <i name="OFIELD_Q6_NEAR">      0.00000000</i>
   <i name="OFIELD_Q6_FAR">      0.00000000</i>
   <i name="OFIELD_A">      0.00000000</i>
  </separator>
  <separator name="optional k-points parameters" >
   <i type="int" name="KPOINTS_OPT_MODE">     1</i>
   <i type="logical" name="LKPOINTS_OPT"> T  </i>
  </separator>
 </parameters>
 <atominfo>
  <atoms>       2 </atoms>
  <types>       1 </types>
  <array name="atoms" >
   <dimension dim="1">ion</dimension>
   <field type="string">element</field>
   <field type="int">atomtype</field>
   <set>
    <rc><c>Ba</c><c>   1</c></rc>
    <rc><c>Ba</c><c>   1</c></rc>
   </set>
  </array>
  <array name="atomtypes" >
   <dimension dim="1">type</dimension>
   <field type="int">atomspertype</field>
   <field type="string">element</field>
   <field>mass</field>
   <field>valence</field>
   <field type="string">pseudopotential</field>
   <set>
    <rc><c>   2</c><c>Ba</c><c>    137.32700000</c><c>     10.00000000</c><c>PAW_PBE Ba_sv 06Sep2000                 </c></rc>
   </set>
  </array>
 </atominfo>
 <structure name="initialpos" >
  <crystal>
   <varray name="basis" >
    <v>       5.02792000       0.00000000       0.00000000 </v>
    <v>       0.00000000       5.02792000       0.00000000 </v>
    <v>       0.00000000       0.00000000       5.02792000 </v>
   </varray>
   <i name="volume">    127.10571466 </i>
   <varray name="rec_basis" >
    <v>       0.19888940      -0.00000000       0.00000000 </v>
    <v>       0.00000000       0.19888940       0.00000000 </v>
    <v>      -0.00000000      -0.00000000       0.19888940 </v>
   </varray>
  </crystal>
  <varray name="positions" >
   <v>       0.00000000       0.00000000       0.00000000 </v>
   <v>       0.50000000       0.50000000       0.50000000 </v>
  </varray>
 </structure>
 <calculation>
  <scstep>
   <time name="dav">    0.79    0.79</time>
   <time name="total">    0.81    0.81</time>
   <energy>
    <i name="alphaZ">     82.58458896 </i>
    <i name="ewald">  -1042.26374757 </i>
    <i name="hartreedc">   -242.72294680 </i>
    <i name="XCdc">     48.87631145 </i>
    <i name="pawpsdc">   1165.24871564 </i>
    <i name="pawaedc">  -1162.58211329 </i>
    <i name="eentropy">     -0.00391501 </i>
    <i name="bandstr">   -254.64938173 </i>
    <i name="atom">   1401.69262872 </i>
    <i name="e_fr_energy">     -3.81985963 </i>
    <i name="e_wo_entrp">     -3.81594462 </i>
    <i name="e_0_energy">     -3.81790212 </i>
   </energy>
  </scstep>
  <scstep>
   <time name="dav">    0.62    0.62</time>
   <time name="total">    0.62    0.62</time>
   <energy>
    <i name="alphaZ">     82.58458896 </i>
    <i name="ewald">  -1042.26374757 </i>
    <i name="hartreedc">   -242.71408660 </i>
    <i name="XCdc">     48.87591179 </i>
    <i name="pawpsdc">   1165.25197645 </i>
    <i name="pawaedc">  -1162.58624682 </i>
    <i name="eentropy">     -0.00391514 </i>
    <i name="bandstr">   -254.65696877 </i>
    <i name="atom">   1401.69262872 </i>
    <i name="e_fr_energy">     -3.81985897 </i>
    <i name="e_wo_entrp">     -3.81594384 </i>
    <i name="e_0_energy">     -3.81790141 </i>
   </energy>
  </scstep>
  <structure>
   <crystal>
    <varray name="basis" >
     <v>       5.02792000       0.00000000       0.00000000 </v>
     <v>       0.00000000       5.02792000       0.00000000 </v>
     <v>       0.00000000       0.00000000       5.02792000 </v>
    </varray>
    <i name="volume">    127.10571466 </i>
    <varray name="rec_basis" >
     <v>       0.19888940      -0.00000000       0.00000000 </v>
     <v>       0.00000000       0.19888940       0.00000000 </v>
     <v>      -0.00000000      -0.00000000       0.19888940 </v>
    </varray>
   </crystal>
   <varray name="positions" >
    <v>       0.00000000       0.00000000       0.00000000 </v>
    <v>       0.50000000       0.50000000       0.50000000 </v>
   </varray>
  </structure>
  <varray name="forces" >
   <v>      -0.00000000      -0.00000000      -0.00000000 </v>
   <v>       0.00000000       0.00000000       0.00000000 </v>
  </varray>
  <varray name="stress" >
   <v>      -0.75513869      -0.00000000       0.00000000 </v>
   <v>       0.00000000      -0.75513869       0.00000000 </v>
   <v>       0.00000000       0.00000000      -0.75513869 </v>
  </varray>
  <energy>
   <i name="e_fr_energy">     -3.81985897 </i>
   <i name="e_wo_entrp">     -3.81594384 </i>
   <i name="e_0_energy">     -3.81790141 </i>
  </energy>
  <dos comment="kpoints_opt">
   <i name="efermi">      1.75046453 </i>
   <total>
    <array>
     <dimension dim="1">gridpoints</dimension>
     <dimension dim="2">spin</dimension>
     <field>energy</field>
     <field>total</field>
     <field>integrated</field>
     <set>
      <set comment="spin 1">
       <r>   -29.7924     0.0000     0.0000 </r>
       <r>   -29.6083     0.0000     0.0000 </r>
       <r>   -29.4243     0.0000     0.0000 </r>
       <r>   -29.2402     0.0000     0.0000 </r>
       <r>   -29.0561     0.0000     0.0000 </r>
       <r>   -28.8720     0.0000     0.0000 </r>
       <r>   -28.6879     0.0000     0.0000 </r>
       <r>   -28.5038     0.0000     0.0000 </r>
       <r>   -28.3197     0.0000     0.0000 </r>
       <r>   -28.1356     0.0000     0.0000 </r>
       <r>   -27.9515     0.0000     0.0000 </r>
       <r>   -27.7674     0.0000     0.0000 </r>
       <r>   -27.5833     0.0000     0.0000 </r>
       <r>   -27.3992     0.0012     0.0002 </r>
       <r>   -27.2151    16.3674     3.0133 </r>
       <r>   -27.0311     5.3597     4.0000 </r>
       <r>   -26.8470     0.0000     4.0000 </r>
       <r>   -26.6629     0.0000     4.0000 </r>
       <r>   -26.4788     0.0000     4.0000 </r>
       <r>   -26.2947     0.0000     4.0000 </r>
       <r>   -26.1106     0.0000     4.0000 </r>
       <r>   -25.9265     0.0000     4.0000 </r>
       <r>   -25.7424     0.0000     4.0000 </r>
       <r>   -25.5583     0.0000     4.0000 </r>
       <r>   -25.3742     0.0000     4.0000 </r>
       <r>   -25.1901     0.0000     4.0000 </r>
       <r>   -25.0060     0.0000     4.0000 </r>
       <r>   -24.8219     0.0000     4.0000 </r>
       <r>   -24.6379     0.0000     4.0000 </r>
       <r>   -24.4538     0.0000     4.0000 </r>
       <r>   -24.2697     0.0000     4.0000 </r>
       <r>   -24.0856     0.0000     4.0000 </r>
       <r>   -23.9015     0.0000     4.0000 </r>
       <r>   -23.7174     0.0000     4.0000 </r>
       <r>   -23.5333     0.0000     4.0000 </r>
       <r>   -23.3492     0.0000     4.0000 </r>
       <r>   -23.1651     0.0000     4.0000 </r>
       <r>   -22.9810     0.0000     4.0000 </r>
       <r>   -22.7969     0.0000     4.0000 </r>
       <r>   -22.6128     0.0000     4.0000 </r>
       <r>   -22.4287     0.0000     4.0000 </r>
       <r>   -22.2447     0.0000     4.0000 </r>
       <r>   -22.0606     0.0000     4.0000 </r>
       <r>   -21.8765     0.0000     4.0000 </r>
       <r>   -21.6924     0.0000     4.0000 </r>
       <r>   -21.5083     0.0000     4.0000 </r>
       <r>   -21.3242     0.0000     4.0000 </r>
       <r>   -21.1401     0.0000     4.0000 </r>
       <r>   -20.9560     0.0000     4.0000 </r>
       <r>   -20.7719     0.0000     4.0000 </r>
       <r>   -20.5878     0.0000     4.0000 </r>
       <r>   -20.4037     0.0000     4.0000 </r>
       <r>   -20.2196     0.0000     4.0000 </r>
       <r>   -20.0356     0.0000     4.0000 </r>
       <r>   -19.8515     0.0000     4.0000 </r>
       <r>   -19.6674     0.0000     4.0000 </r>
       <r>   -19.4833     0.0000     4.0000 </r>
       <r>   -19.2992     0.0000     4.0000 </r>
       <r>   -19.1151     0.0000     4.0000 </r>
       <r>   -18.9310     0.0000     4.0000 </r>
       <r>   -18.7469     0.0000     4.0000 </r>
       <r>   -18.5628     0.0000     4.0000 </r>
       <r>   -18.3787     0.0000     4.0000 </r>
       <r>   -18.1946     0.0000     4.0000 </r>
       <r>   -18.0105     0.0000     4.0000 </r>
       <r>   -17.8264     0.0000     4.0000 </r>
       <r>   -17.6424     0.0000     4.0000 </r>
       <r>   -17.4583     0.0000     4.0000 </r>
       <r>   -17.2742     0.0000     4.0000 </r>
       <r>   -17.0901     0.0000     4.0000 </r>
       <r>   -16.9060     0.0000     4.0000 </r>
       <r>   -16.7219     0.0000     4.0000 </r>
       <r>   -16.5378     0.0000     4.0000 </r>
       <r>   -16.3537     0.0000     4.0000 </r>
       <r>   -16.1696     0.0000     4.0000 </r>
       <r>   -15.9855     0.0000     4.0000 </r>
       <r>   -15.8014     0.0000     4.0000 </r>
       <r>   -15.6173     0.0000     4.0000 </r>
       <r>   -15.4332     0.0000     4.0000 </r>
       <r>   -15.2492     0.0000     4.0000 </r>
       <r>   -15.0651     0.0000     4.0000 </r>
       <r>   -14.8810     0.0000     4.0000 </r>
       <r>   -14.6969     0.0000     4.0000 </r>
       <r>   -14.5128     0.0000     4.0000 </r>
       <r>   -14.3287     0.0000     4.0000 </r>
       <r>   -14.1446     0.0000     4.0000 </r>
       <r>   -13.9605     0.0000     4.0000 </r>
       <r>   -13.7764     0.0000     4.0000 </r>
       <r>   -13.5923     0.0000     4.0000 </r>
       <r>   -13.4082     0.0000     4.0000 </r>
       <r>   -13.2241     0.0000     4.0000 </r>
       <r>   -13.0400     0.0000     4.0000 </r>
       <r>   -12.8560     0.0000     4.0000 </r>
       <r>   -12.6719     0.0566     4.0104 </r>
       <r>   -12.4878    22.9383     8.2332 </r>
       <r>   -12.3037    29.2166    13.6117 </r>
       <r>   -12.1196    12.9715    15.9997 </r>
       <r>   -11.9355     0.0016    16.0000 </r>
       <r>   -11.7514     0.0000    16.0000 </r>
       <r>   -11.5673     0.0000    16.0000 </r>
       <r>   -11.3832     0.0000    16.0000 </r>
       <r>   -11.1991     0.0000    16.0000 </r>
       <r>   -11.0150     0.0000    16.0000 </r>
       <r>   -10.8309     0.0000    16.0000 </r>
       <r>   -10.6468     0.0000    16.0000 </r>
       <r>   -10.4628     0.0000    16.0000 </r>
       <r>   -10.2787     0.0000    16.0000 </r>
       <r>   -10.0946     0.0000    16.0000 </r>
       <r>    -9.9105     0.0000    16.0000 </r>
       <r>    -9.7264     0.0000    16.0000 </r>
       <r>    -9.5423     0.0000    16.0000 </r>
       <r>    -9.3582     0.0000    16.0000 </r>
       <r>    -9.1741     0.0000    16.0000 </r>
       <r>    -8.9900     0.0000    16.0000 </r>
       <r>    -8.8059     0.0000    16.0000 </r>
       <r>    -8.6218     0.0000    16.0000 </r>
       <r>    -8.4377     0.0000    16.0000 </r>
       <r>    -8.2536     0.0000    16.0000 </r>
       <r>    -8.0696     0.0000    16.0000 </r>
       <r>    -7.8855     0.0000    16.0000 </r>
       <r>    -7.7014     0.0000    16.0000 </r>
       <r>    -7.5173     0.0000    16.0000 </r>
       <r>    -7.3332     0.0000    16.0000 </r>
       <r>    -7.1491     0.0000    16.0000 </r>
       <r>    -6.9650     0.0000    16.0000 </r>
       <r>    -6.7809     0.0000    16.0000 </r>
       <r>    -6.5968     0.0000    16.0000 </r>
       <r>    -6.4127     0.0000    16.0000 </r>
       <r>    -6.2286     0.0000    16.0000 </r>
       <r>    -6.0445     0.0000    16.0000 </r>
       <r>    -5.8604     0.0000    16.0000 </r>
       <r>    -5.6764     0.0000    16.0000 </r>
       <r>    -5.4923     0.0000    16.0000 </r>
       <r>    -5.3082     0.0000    16.0000 </r>
       <r>    -5.1241     0.0000    16.0000 </r>
       <r>    -4.9400     0.0000    16.0000 </r>
       <r>    -4.7559     0.0000    16.0000 </r>
       <r>    -4.5718     0.0000    16.0000 </r>
       <r>    -4.3877     0.0000    16.0000 </r>
       <r>    -4.2036     0.0000    16.0000 </r>
       <r>    -4.0195     0.0000    16.0000 </r>
       <r>    -3.8354     0.0000    16.0000 </r>
       <r>    -3.6513     0.0000    16.0000 </r>
       <r>    -3.4673     0.0000    16.0000 </r>
       <r>    -3.2832     0.0000    16.0000 </r>
       <r>    -3.0991     0.0000    16.0000 </r>
       <r>    -2.9150     0.0000    16.0000 </r>
       <r>    -2.7309     0.0000    16.0000 </r>
       <r>    -2.5468     0.0000    16.0000 </r>
       <r>    -2.3627     0.0000    16.0000 </r>
       <r>    -2.1786     0.0000    16.0000 </r>
       <r>    -1.9945     0.0000    16.0000 </r>
       <r>    -1.8104     0.0000    16.0000 </r>
       <r>    -1.6263     0.0000    16.0000 </r>
       <r>    -1.4422     0.0000    16.0000 </r>
       <r>    -1.2581     0.0000    16.0000 </r>
       <r>    -1.0741     0.8713    16.1604 </r>
       <r>    -0.8900     1.0035    16.3451 </r>
       <r>    -0.7059     0.6249    16.4602 </r>
       <r>    -0.5218     0.5123    16.5545 </r>
       <r>    -0.3377     0.4539    16.6380 </r>
       <r>    -0.1536     0.4185    16.7151 </r>
       <r>     0.0305     0.3948    16.7878 </r>
       <r>     0.2146     0.3795    16.8576 </r>
       <r>     0.3987     0.3732    16.9263 </r>
       <r>     0.5828     0.3757    16.9955 </r>
       <r>     0.7669     1.7302    17.3140 </r>
       <r>     0.9510     1.7590    17.6378 </r>
       <r>     1.1351     3.3815    18.2603 </r>
       <r>     1.3191     4.2764    19.0476 </r>
       <r>     1.5032     2.4781    19.5038 </r>
       <r>     1.6873     1.7706    19.8297 </r>
       <r>     1.8714     2.5733    20.3034 </r>
       <r>     2.0555     3.1815    20.8891 </r>
       <r>     2.2396    14.1287    23.4901 </r>
       <r>     2.4237     4.4626    24.3117 </r>
       <r>     2.6078     1.8274    24.6481 </r>
       <r>     2.7919     1.4833    24.9211 </r>
       <r>     2.9760     1.3642    25.1723 </r>
       <r>     3.1601     1.3302    25.4172 </r>
       <r>     3.3442     4.3402    26.2162 </r>
       <r>     3.5283     8.9194    27.8582 </r>
       <r>     3.7123     3.0811    28.4254 </r>
       <r>     3.8964     2.2474    28.8391 </r>
       <r>     4.0805     1.9460    29.1973 </r>
       <r>     4.2646     1.7848    29.5259 </r>
       <r>     4.4487     1.6915    29.8373 </r>
       <r>     4.6328     2.4065    30.2803 </r>
       <r>     4.8169     5.8256    31.3528 </r>
       <r>     5.0010     6.5744    32.5630 </r>
       <r>     5.1851     6.5266    33.7645 </r>
       <r>     5.3692     9.6424    35.5396 </r>
       <r>     5.5533    10.0615    37.3919 </r>
       <r>     5.7374     2.6076    37.8719 </r>
       <r>     5.9215     2.9040    38.4065 </r>
       <r>     6.1055     1.8902    38.7545 </r>
       <r>     6.2896     1.8339    39.0921 </r>
       <r>     6.4737     2.4427    39.5418 </r>
       <r>     6.6578     2.0811    39.9249 </r>
       <r>     6.8419     1.7136    40.2403 </r>
       <r>     7.0260     1.3404    40.4871 </r>
       <r>     7.2101     0.8794    40.6490 </r>
       <r>     7.3942     1.2489    40.8789 </r>
       <r>     7.5783     1.7687    41.2045 </r>
       <r>     7.7624     1.6093    41.5007 </r>
       <r>     7.9465     1.7677    41.8262 </r>
       <r>     8.1306     3.1827    42.4121 </r>
       <r>     8.3147     4.3471    43.2123 </r>
       <r>     8.4987     5.3994    44.2063 </r>
       <r>     8.6828     7.2778    45.5461 </r>
       <r>     8.8669     4.3290    46.3431 </r>
       <r>     9.0510     4.3046    47.1355 </r>
       <r>     9.2351     3.6208    47.8021 </r>
       <r>     9.4192     3.0769    48.3685 </r>
       <r>     9.6033     2.8751    48.8978 </r>
       <r>     9.7874     2.9436    49.4397 </r>
       <r>     9.9715     3.2167    50.0318 </r>
       <r>    10.1556     1.6673    50.3388 </r>
       <r>    10.3397     1.6335    50.6395 </r>
       <r>    10.5238     1.6244    50.9385 </r>
       <r>    10.7078     1.6960    51.2507 </r>
       <r>    10.8919     1.8832    51.5974 </r>
       <r>    11.0760     3.2033    52.1871 </r>
       <r>    11.2601     4.8754    53.0846 </r>
       <r>    11.4442     3.3673    53.7045 </r>
       <r>    11.6283     2.4388    54.1535 </r>
       <r>    11.8124     1.5347    54.4360 </r>
       <r>    11.9965     1.4295    54.6992 </r>
       <r>    12.1806     1.9643    55.0608 </r>
       <r>    12.3647     2.5664    55.5333 </r>
       <r>    12.5488     4.0034    56.2703 </r>
       <r>    12.7329     7.0201    57.5626 </r>
       <r>    12.9170     7.1609    58.8809 </r>
       <r>    13.1010     5.5332    59.8995 </r>
       <r>    13.2851     3.1857    60.4859 </r>
       <r>    13.4692     2.4490    60.9368 </r>
       <r>    13.6533     2.4368    61.3854 </r>
       <r>    13.8374     2.8623    61.9123 </r>
       <r>    14.0215     4.3079    62.7053 </r>
       <r>    14.2056     5.6026    63.7367 </r>
       <r>    14.3897     6.5464    64.9419 </r>
       <r>    14.5738     4.2927    65.7321 </r>
       <r>    14.7579     3.3702    66.3525 </r>
       <r>    14.9420     4.0820    67.1040 </r>
       <r>    15.1261     4.6345    67.9572 </r>
       <r>    15.3102     2.9336    68.4972 </r>
       <r>    15.4942     3.7933    69.1956 </r>
       <r>    15.6783     3.2994    69.8030 </r>
       <r>    15.8624     3.8966    70.5203 </r>
       <r>    16.0465     2.6762    71.0130 </r>
       <r>    16.2306     3.8979    71.7305 </r>
       <r>    16.4147     3.6414    72.4009 </r>
       <r>    16.5988     3.3210    73.0122 </r>
       <r>    16.7829     3.1427    73.5908 </r>
       <r>    16.9670     3.9830    74.3240 </r>
       <r>    17.1511     3.1647    74.9066 </r>
       <r>    17.3352     4.7595    75.7828 </r>
       <r>    17.5193     6.8091    77.0363 </r>
       <r>    17.7034     4.9222    77.9424 </r>
       <r>    17.8874     4.2345    78.7220 </r>
       <r>    18.0715     3.0147    79.2770 </r>
       <r>    18.2556     2.3460    79.7089 </r>
       <r>    18.4397     2.5069    80.1704 </r>
       <r>    18.6238     2.9201    80.7079 </r>
       <r>    18.8079     5.7575    81.7678 </r>
       <r>    18.9920     5.2730    82.7386 </r>
       <r>    19.1761     4.9092    83.6423 </r>
       <r>    19.3602     3.1458    84.2214 </r>
       <r>    19.5443     3.4343    84.8537 </r>
       <r>    19.7284     2.4394    85.3027 </r>
       <r>    19.9125     3.6741    85.9791 </r>
       <r>    20.0966     3.2881    86.5844 </r>
       <r>    20.2806     4.3065    87.3772 </r>
       <r>    20.4647     2.7877    87.8904 </r>
       <r>    20.6488     3.0837    88.4581 </r>
       <r>    20.8329     3.1798    89.0435 </r>
       <r>    21.0170     3.5532    89.6976 </r>
       <r>    21.2011     4.5565    90.5364 </r>
       <r>    21.3852     5.0264    91.4617 </r>
       <r>    21.5693     4.4591    92.2826 </r>
       <r>    21.7534     4.3144    93.0768 </r>
       <r>    21.9375     4.1980    93.8497 </r>
       <r>    22.1216     2.1534    94.2461 </r>
       <r>    22.3057     1.1466    94.4571 </r>
       <r>    22.4898     0.7429    94.5939 </r>
       <r>    22.6738     2.7239    95.0954 </r>
       <r>    22.8579     3.4318    95.7271 </r>
       <r>    23.0420     1.3103    95.9683 </r>
       <r>    23.2261     0.1720    96.0000 </r>
       <r>    23.4102     0.0000    96.0000 </r>
       <r>    23.5943     0.0000    96.0000 </r>
       <r>    23.7784     0.0000    96.0000 </r>
       <r>    23.9625     0.0000    96.0000 </r>
       <r>    24.1466     0.0000    96.0000 </r>
       <r>    24.3307     0.0000    96.0000 </r>
       <r>    24.5148     0.0000    96.0000 </r>
       <r>    24.6989     0.0000    96.0000 </r>
       <r>    24.8830     0.0000    96.0000 </r>
       <r>    25.0670     0.0000    96.0000 </r>
       <r>    25.2511     0.0000    96.0000 </r>
       <r>    25.4352     0.0000    96.0000 </r>
      </set>
     </set>
    </array>
   </total>
  </dos>
  <eigenvalues_kpoints_opt comment="kpoints_opt">
   <kpoints>
    <varray name="kpointlist" >
     <v>       0.00000000       0.00000000       0.00000000 </v>
     <v>       0.01041667      -0.01041667       0.01041667 </v>
     <v>       0.02083333      -0.02083333       0.02083333 </v>
     <v>       0.03125000      -0.03125000       0.03125000 </v>
     <v>       0.04166667      -0.04166667       0.04166667 </v>
     <v>       0.05208333      -0.05208333       0.05208333 </v>
     <v>       0.06250000      -0.06250000       0.06250000 </v>
     <v>       0.07291667      -0.07291667       0.07291667 </v>
     <v>       0.08333333      -0.08333333       0.08333333 </v>
     <v>       0.09375000      -0.09375000       0.09375000 </v>
     <v>       0.10416667      -0.10416667       0.10416667 </v>
     <v>       0.11458333      -0.11458333       0.11458333 </v>
     <v>       0.12500000      -0.12500000       0.12500000 </v>
     <v>       0.13541667      -0.13541667       0.13541667 </v>
     <v>       0.14583333      -0.14583333       0.14583333 </v>
     <v>       0.15625000      -0.15625000       0.15625000 </v>
     <v>       0.16666667      -0.16666667       0.16666667 </v>
     <v>       0.17708333      -0.17708333       0.17708333 </v>
     <v>       0.18750000      -0.18750000       0.18750000 </v>
     <v>       0.19791667      -0.19791667       0.19791667 </v>
     <v>       0.20833333      -0.20833333       0.20833333 </v>
     <v>       0.21875000      -0.21875000       0.21875000 </v>
     <v>       0.22916667      -0.22916667       0.22916667 </v>
     <v>       0.23958333      -0.23958333       0.23958333 </v>
     <v>       0.25000000      -0.25000000       0.25000000 </v>
     <v>       0.26041667      -0.26041667       0.26041667 </v>
     <v>       0.27083333      -0.27083333       0.27083333 </v>
     <v>       0.28125000      -0.28125000       0.28125000 </v>
     <v>       0.29166667      -0.29166667       0.29166667 </v>
     <v>       0.30208333      -0.30208333       0.30208333 </v>
     <v>       0.31250000      -0.31250000       0.31250000 </v>
     <v>       0.32291667      -0.32291667       0.32291667 </v>
     <v>       0.33333333      -0.33333333       0.33333333 </v>
     <v>       0.34375000      -0.34375000       0.34375000 </v>
     <v>       0.35416667      -0.35416667       0.35416667 </v>
     <v>       0.36458333      -0.36458333       0.36458333 </v>
     <v>       0.37500000      -0.37500000       0.37500000 </v>
     <v>       0.38541667      -0.38541667       0.38541667 </v>
     <v>       0.39583333      -0.39583333       0.39583333 </v>
     <v>       0.40625000      -0.40625000       0.40625000 </v>
     <v>       0.41666667      -0.41666667       0.41666667 </v>
     <v>       0.42708333      -0.42708333       0.42708333 </v>
     <v>       0.43750000      -0.43750000       0.43750000 </v>
     <v>       0.44791667      -0.44791667       0.44791667 </v>
     <v>       0.45833333      -0.45833333       0.45833333 </v>
     <v>       0.46875000      -0.46875000       0.46875000 </v>
     <v>       0.47916667      -0.47916667       0.47916667 </v>
     <v>       0.48958333      -0.48958333       0.48958333 </v>
     <v>       0.50000000      -0.50000000       0.50000000 </v>
     <v>       0.50000000      -0.50000000       0.50000000 </v>
     <v>       0.48958333      -0.48958333       0.50000000 </v>
     <v>       0.47916667      -0.47916667       0.50000000 </v>
     <v>       0.46875000      -0.46875000       0.50000000 </v>
     <v>       0.45833333      -0.45833333       0.50000000 </v>
     <v>       0.44791667      -0.44791667       0.50000000 </v>
     <v>       0.43750000      -0.43750000       0.50000000 </v>
     <v>       0.42708333      -0.42708333       0.50000000 </v>
     <v>       0.41666667      -0.41666667       0.50000000 </v>
     <v>       0.40625000      -0.40625000       0.50000000 </v>
     <v>       0.39583333      -0.39583333       0.50000000 </v>
     <v>       0.38541667      -0.38541667       0.50000000 </v>
     <v>       0.37500000      -0.37500000       0.50000000 </v>
     <v>       0.36458333      -0.36458333       0.50000000 </v>
     <v>       0.35416667      -0.35416667       0.50000000 </v>
     <v>       0.34375000      -0.34375000       0.50000000 </v>
     <v>       0.33333333      -0.33333333       0.50000000 </v>
     <v>       0.32291667      -0.32291667       0.50000000 </v>
     <v>       0.31250000      -0.31250000       0.50000000 </v>
     <v>       0.30208333      -0.30208333       0.50000000 </v>
     <v>       0.29166667      -0.29166667       0.50000000 </v>
     <v>       0.28125000      -0.28125000       0.50000000 </v>
     <v>       0.27083333      -0.27083333       0.50000000 </v>
     <v>       0.26041667      -0.26041667       0.50000000 </v>
     <v>       0.25000000      -0.25000000       0.50000000 </v>
     <v>       0.23958333      -0.23958333       0.50000000 </v>
     <v>       0.22916667      -0.22916667       0.50000000 </v>
     <v>       0.21875000      -0.21875000       0.50000000 </v>
     <v>       0.20833333      -0.20833333       0.50000000 </v>
     <v>       0.19791667      -0.19791667       0.50000000 </v>
     <v>       0.18750000      -0.18750000       0.50000000 </v>
     <v>       0.17708333      -0.17708333       0.50000000 </v>
     <v>       0.16666667      -0.16666667       0.50000000 </v>
     <v>       0.15625000      -0.15625000       0.50000000 </v>
     <v>       0.14583333      -0.14583333       0.50000000 </v>
     <v>       0.13541667      -0.13541667       0.50000000 </v>
     <v>       0.12500000      -0.12500000       0.50000000 </v>
     <v>       0.11458333      -0.11458333       0.50000000 </v>
     <v>       0.10416667      -0.10416667       0.50000000 </v>
     <v>       0.09375000      -0.09375000       0.50000000 </v>
     <v>       0.08333333      -0.08333333       0.50000000 </v>
     <v>       0.07291667      -0.07291667       0.50000000 </v>
     <v>       0.06250000      -0.06250000       0.50000000 </v>
     <v>       0.05208333      -0.05208333       0.50000000 </v>
     <v>       0.04166667      -0.04166667       0.50000000 </v>
     <v>       0.03125000      -0.03125000       0.50000000 </v>
     <v>       0.02083333      -0.02083333       0.50000000 </v>
     <v>       0.01041667      -0.01041667       0.50000000 </v>
     <v>       0.00000000      -0.00000000       0.50000000 </v>
     <v>       0.00000000       0.00000000       0.50000000 </v>
     <v>       0.00000000       0.00000000       0.48958333 </v>
     <v>       0.00000000       0.00000000       0.47916667 </v>
     <v>       0.00000000       0.00000000       0.46875000 </v>
     <v>       0.00000000       0.00000000       0.45833333 </v>
     <v>       0.00000000       0.00000000       0.44791667 </v>
     <v>       0.00000000       0.00000000       0.43750000 </v>
     <v>       0.00000000       0.00000000       0.42708333 </v>
     <v>       0.00000000       0.00000000       0.41666667 </v>
     <v>       0.00000000       0.00000000       0.40625000 </v>
     <v>       0.00000000       0.00000000       0.39583333 </v>
     <v>       0.00000000       0.00000000       0.38541667 </v>
     <v>       0.00000000       0.00000000       0.37500000 </v>
     <v>       0.00000000       0.00000000       0.36458333 </v>
     <v>       0.00000000       0.00000000       0.35416667 </v>
     <v>       0.00000000       0.00000000       0.34375000 </v>
     <v>       0.00000000       0.00000000       0.33333333 </v>
     <v>       0.00000000       0.00000000       0.32291667 </v>
     <v>       0.00000000       0.00000000       0.31250000 </v>
     <v>       0.00000000       0.00000000       0.30208333 </v>
     <v>       0.00000000       0.00000000       0.29166667 </v>
     <v>       0.00000000       0.00000000       0.28125000 </v>
     <v>       0.00000000       0.00000000       0.27083333 </v>
     <v>       0.00000000       0.00000000       0.26041667 </v>
     <v>       0.00000000       0.00000000       0.25000000 </v>
     <v>       0.00000000       0.00000000       0.23958333 </v>
     <v>       0.00000000       0.00000000       0.22916667 </v>
     <v>       0.00000000       0.00000000       0.21875000 </v>
     <v>       0.00000000       0.00000000       0.20833333 </v>
     <v>       0.00000000       0.00000000       0.19791667 </v>
     <v>       0.00000000       0.00000000       0.18750000 </v>
     <v>       0.00000000       0.00000000       0.17708333 </v>
     <v>       0.00000000       0.00000000       0.16666667 </v>
     <v>       0.00000000       0.00000000       0.15625000 </v>
     <v>       0.00000000       0.00000000       0.14583333 </v>
     <v>       0.00000000       0.00000000       0.13541667 </v>
     <v>       0.00000000       0.00000000       0.12500000 </v>
     <v>       0.00000000       0.00000000       0.11458333 </v>
     <v>       0.00000000       0.00000000       0.10416667 </v>
     <v>       0.00000000       0.00000000       0.09375000 </v>
     <v>       0.00000000       0.00000000       0.08333333 </v>
     <v>       0.00000000       0.00000000       0.07291667 </v>
     <v>       0.00000000       0.00000000       0.06250000 </v>
     <v>       0.00000000       0.00000000       0.05208333 </v>
     <v>       0.00000000       0.00000000       0.04166667 </v>
     <v>       0.00000000       0.00000000       0.03125000 </v>
     <v>       0.00000000       0.00000000       0.02083333 </v>
     <v>       0.00000000       0.00000000       0.01041667 </v>
     <v>       0.00000000       0.00000000       0.00000000 </v>
    </varray>
    <varray name="weights" >
     <v>       0.00680272 </v>
     <v>       0.00680272 </v>
     <v>       0.00680272 </v>
     <v>       0.00680272 </v>
     <v>       0.00680272 </v>
     <v>       0.00680272 </v>
     <v>       0.00680272 </v>
     <v>       0.00680272 </v>
     <v>       0.00680272 </v>
     <v>       0.00680272 </v>
     <v>       0.00680272 </v>
     <v>       0.00680272 </v>
     <v>       0.00680272 </v>
     <v>       0.00680272 </v>
     <v>       0.00680272 </v>
     <v>       0.00680272 </v>
     <v>       0.00680272 </v>
     <v>       0.00680272 </v>
     <v>       0.00680272 </v>
     <v>       0.00680272 </v>
     <v>       0.00680272 </v>
     <v>       0.00680272 </v>
     <v>       0.00680272 </v>
     <v>       0.00680272 </v>
     <v>       0.00680272 </v>
     <v>       0.00680272 </v>
     <v>       0.00680272 </v>
     <v>       0.00680272 </v>
     <v>       0.00680272 </v>
     <v>       0.00680272 </v>
     <v>       0.00680272 </v>
     <v>       0.00680272 </v>
     <v>       0.00680272 </v>
     <v>       0.00680272 </v>
     <v>       0.00680272 </v>
     <v>       0.00680272 </v>
     <v>       0.00680272 </v>
     <v>       0.00680272 </v>
     <v>       0.00680272 </v>
     <v>       0.00680272 </v>
     <v>       0.00680272 </v>
     <v>       0.00680272 </v>
     <v>       0.00680272 </v>
     <v>       0.00680272 </v>
     <v>       0.00680272 </v>
     <v>       0.00680272 </v>
     <v>       0.00680272 </v>
     <v>       0.00680272 </v>
     <v>       0.00680272 </v>
     <v>       0.00680272 </v>
     <v>       0.00680272 </v>
     <v>       0.00680272 </v>
     <v>       0.00680272 </v>
     <v>       0.00680272 </v>
     <v>       0.00680272 </v>
     <v>       0.00680272 </v>
     <v>       0.00680272 </v>
     <v>       0.00680272 </v>
     <v>       0.00680272 </v>
     <v>       0.00680272 </v>
     <v>       0.00680272 </v>
     <v>       0.00680272 </v>
     <v>       0.00680272 </v>
     <v>       0.00680272 </v>
     <v>       0.00680272 </v>
     <v>       0.00680272 </v>
     <v>       0.00680272 </v>
     <v>       0.00680272 </v>
     <v>       0.00680272 </v>
     <v>       0.00680272 </v>
     <v>       0.00680272 </v>
     <v>       0.00680272 </v>
     <v>       0.00680272 </v>
     <v>       0.00680272 </v>
     <v>       0.00680272 </v>
     <v>       0.00680272 </v>
     <v>       0.00680272 </v>
     <v>       0.00680272 </v>
     <v>       0.00680272 </v>
     <v>       0.00680272 </v>
     <v>       0.00680272 </v>
     <v>       0.00680272 </v>
     <v>       0.00680272 </v>
     <v>       0.00680272 </v>
     <v>       0.00680272 </v>
     <v>       0.00680272 </v>
     <v>       0.00680272 </v>
     <v>       0.00680272 </v>
     <v>       0.00680272 </v>
     <v>       0.00680272 </v>
     <v>       0.00680272 </v>
     <v>       0.00680272 </v>
     <v>       0.00680272 </v>
     <v>       0.00680272 </v>
     <v>       0.00680272 </v>
     <v>       0.00680272 </v>
     <v>       0.00680272 </v>
     <v>       0.00680272 </v>
     <v>       0.00680272 </v>
     <v>       0.00680272 </v>
     <v>       0.00680272 </v>
     <v>       0.00680272 </v>
     <v>       0.00680272 </v>
     <v>       0.00680272 </v>
     <v>       0.00680272 </v>
     <v>       0.00680272 </v>
     <v>       0.00680272 </v>
     <v>       0.00680272 </v>
     <v>       0.00680272 </v>
     <v>       0.00680272 </v>
     <v>       0.00680272 </v>
     <v>       0.00680272 </v>
     <v>       0.00680272 </v>
     <v>       0.00680272 </v>
     <v>       0.00680272 </v>
     <v>       0.00680272 </v>
     <v>       0.00680272 </v>
     <v>       0.00680272 </v>
     <v>       0.00680272 </v>
     <v>       0.00680272 </v>
     <v>       0.00680272 </v>
     <v>       0.00680272 </v>
     <v>       0.00680272 </v>
     <v>       0.00680272 </v>
     <v>       0.00680272 </v>
     <v>       0.00680272 </v>
     <v>       0.00680272 </v>
     <v>       0.00680272 </v>
     <v>       0.00680272 </v>
     <v>       0.00680272 </v>
     <v>       0.00680272 </v>
     <v>       0.00680272 </v>
     <v>       0.00680272 </v>
     <v>       0.00680272 </v>
     <v>       0.00680272 </v>
     <v>       0.00680272 </v>
     <v>       0.00680272 </v>
     <v>       0.00680272 </v>
     <v>       0.00680272 </v>
     <v>       0.00680272 </v>
     <v>       0.00680272 </v>
     <v>       0.00680272 </v>
     <v>       0.00680272 </v>
     <v>       0.00680272 </v>
     <v>       0.00680272 </v>
     <v>       0.00680272 </v>
     <v>       0.00680272 </v>
    </varray>
   </kpoints>
   <eigenvalues>
    <array>
     <dimension dim="1">band</dimension>
     <dimension dim="2">kpoint</dimension>
     <dimension dim="3">spin</dimension>
     <field>eigene</field>
     <set>
      <set comment="spin 1">
       <set comment="kpoint 1">
        <r>  -27.2828 </r>
        <r>  -27.2101 </r>
        <r>  -12.5470 </r>
        <r>  -12.5470 </r>
        <r>  -12.5470 </r>
        <r>  -12.2372 </r>
        <r>  -12.2372 </r>
        <r>  -12.2372 </r>
        <r>   -1.1289 </r>
        <r>    1.0843 </r>
        <r>    1.0843 </r>
        <r>    3.4374 </r>
        <r>    3.4374 </r>
        <r>    3.4374 </r>
        <r>    4.8274 </r>
        <r>    4.8274 </r>
        <r>    5.9323 </r>
        <r>    5.9323 </r>
        <r>    5.9323 </r>
        <r>    6.3067 </r>
        <r>    6.3067 </r>
        <r>    6.3067 </r>
        <r>    8.5258 </r>
        <r>    8.5258 </r>
        <r>    8.5258 </r>
        <r>    8.9569 </r>
        <r>   12.4568 </r>
        <r>   13.1119 </r>
        <r>   13.1119 </r>
        <r>   13.8331 </r>
        <r>   13.8331 </r>
        <r>   14.3717 </r>
        <r>   14.3717 </r>
        <r>   14.3717 </r>
        <r>   17.4026 </r>
        <r>   17.4026 </r>
        <r>   17.4026 </r>
        <r>   17.5975 </r>
        <r>   19.1685 </r>
        <r>   19.1685 </r>
        <r>   19.1685 </r>
        <r>   20.1128 </r>
        <r>   20.1128 </r>
        <r>   20.1128 </r>
        <r>   20.4586 </r>
        <r>   21.5641 </r>
        <r>   21.5654 </r>
        <r>   21.5678 </r>
       </set>
       <set comment="kpoint 2">
        <r>  -27.2827 </r>
        <r>  -27.2101 </r>
        <r>  -12.5473 </r>
        <r>  -12.5473 </r>
        <r>  -12.5468 </r>
        <r>  -12.2380 </r>
        <r>  -12.2373 </r>
        <r>  -12.2373 </r>
        <r>   -1.1258 </r>
        <r>    1.0862 </r>
        <r>    1.0862 </r>
        <r>    3.4353 </r>
        <r>    3.4353 </r>
        <r>    3.4410 </r>
        <r>    4.8247 </r>
        <r>    4.8247 </r>
        <r>    5.8560 </r>
        <r>    5.9140 </r>
        <r>    5.9140 </r>
        <r>    6.3271 </r>
        <r>    6.3271 </r>
        <r>    6.3716 </r>
        <r>    8.5277 </r>
        <r>    8.5355 </r>
        <r>    8.5355 </r>
        <r>    8.9693 </r>
        <r>   12.4631 </r>
        <r>   13.1048 </r>
        <r>   13.1048 </r>
        <r>   13.7704 </r>
        <r>   13.7704 </r>
        <r>   14.3527 </r>
        <r>   14.4377 </r>
        <r>   14.4377 </r>
        <r>   17.3740 </r>
        <r>   17.4086 </r>
        <r>   17.4086 </r>
        <r>   17.6140 </r>
        <r>   19.1341 </r>
        <r>   19.1607 </r>
        <r>   19.1607 </r>
        <r>   20.0868 </r>
        <r>   20.0868 </r>
        <r>   20.1182 </r>
        <r>   20.4779 </r>
        <r>   21.5598 </r>
        <r>   21.5919 </r>
        <r>   21.5948 </r>
       </set>
       <set comment="kpoint 3">
        <r>  -27.2825 </r>
        <r>  -27.2103 </r>
        <r>  -12.5476 </r>
        <r>  -12.5476 </r>
        <r>  -12.5449 </r>
        <r>  -12.2406 </r>
        <r>  -12.2375 </r>
        <r>  -12.2375 </r>
        <r>   -1.1166 </r>
        <r>    1.0919 </r>
        <r>    1.0919 </r>
        <r>    3.4289 </r>
        <r>    3.4289 </r>
        <r>    3.4518 </r>
        <r>    4.8169 </r>
        <r>    4.8169 </r>
        <r>    5.6984 </r>
        <r>    5.8677 </r>
        <r>    5.8677 </r>
        <r>    6.3795 </r>
        <r>    6.3795 </r>
        <r>    6.4948 </r>
        <r>    8.5334 </r>
        <r>    8.5642 </r>
        <r>    8.5642 </r>
        <r>    9.0071 </r>
        <r>   12.4820 </r>
        <r>   13.0838 </r>
        <r>   13.0838 </r>
        <r>   13.6324 </r>
        <r>   13.6324 </r>
        <r>   14.2967 </r>
        <r>   14.5855 </r>
        <r>   14.5855 </r>
        <r>   17.2916 </r>
        <r>   17.4265 </r>
        <r>   17.4265 </r>
        <r>   17.6609 </r>
        <r>   19.0375 </r>
        <r>   19.1378 </r>
        <r>   19.1378 </r>
        <r>   20.0146 </r>
        <r>   20.0146 </r>
        <r>   20.1290 </r>
        <r>   20.5379 </r>
        <r>   21.5427 </r>
        <r>   21.6465 </r>
        <r>   21.6480 </r>
       </set>
       <set comment="kpoint 4">
        <r>  -27.2822 </r>
        <r>  -27.2105 </r>
        <r>  -12.5479 </r>
        <r>  -12.5479 </r>
        <r>  -12.5418 </r>
        <r>  -12.2448 </r>
        <r>  -12.2379 </r>
        <r>  -12.2379 </r>
        <r>   -1.1014 </r>
        <r>    1.1013 </r>
        <r>    1.1013 </r>
        <r>    3.4181 </r>
        <r>    3.4181 </r>
        <r>    3.4698 </r>
        <r>    4.8045 </r>
        <r>    4.8045 </r>
        <r>    5.5152 </r>
        <r>    5.8072 </r>
        <r>    5.8072 </r>
        <r>    6.4500 </r>
        <r>    6.4500 </r>
        <r>    6.6206 </r>
        <r>    8.5430 </r>
        <r>    8.6113 </r>
        <r>    8.6113 </r>
        <r>    9.0704 </r>
        <r>   12.5134 </r>
        <r>   13.0492 </r>
        <r>   13.0492 </r>
        <r>   13.4704 </r>
        <r>   13.4704 </r>
        <r>   14.2074 </r>
        <r>   14.7639 </r>
        <r>   14.7639 </r>
        <r>   17.1635 </r>
        <r>   17.4556 </r>
        <r>   17.4556 </r>
        <r>   17.7293 </r>
        <r>   18.8971 </r>
        <r>   19.1010 </r>
        <r>   19.1010 </r>
        <r>   19.9088 </r>
        <r>   19.9088 </r>
        <r>   20.1364 </r>
        <r>   20.6398 </r>
        <r>   21.5154 </r>
        <r>   21.6836 </r>
        <r>   21.6849 </r>
       </set>
       <set comment="kpoint 5">
        <r>  -27.2817 </r>
        <r>  -27.2109 </r>
        <r>  -12.5484 </r>
        <r>  -12.5484 </r>
        <r>  -12.5375 </r>
        <r>  -12.2506 </r>
        <r>  -12.2385 </r>
        <r>  -12.2385 </r>
        <r>   -1.0801 </r>
        <r>    1.1145 </r>
        <r>    1.1145 </r>
        <r>    3.4029 </r>
        <r>    3.4029 </r>
        <r>    3.4950 </r>
        <r>    4.7886 </r>
        <r>    4.7886 </r>
        <r>    5.3215 </r>
        <r>    5.7409 </r>
        <r>    5.7409 </r>
        <r>    6.5303 </r>
        <r>    6.5303 </r>
        <r>    6.7337 </r>
        <r>    8.5564 </r>
        <r>    8.6755 </r>
        <r>    8.6755 </r>
        <r>    9.1587 </r>
        <r>   12.5575 </r>
        <r>   13.0020 </r>
        <r>   13.0020 </r>
        <r>   13.3024 </r>
        <r>   13.3024 </r>
        <r>   14.0893 </r>
        <r>   14.9544 </r>
        <r>   14.9544 </r>
        <r>   16.9997 </r>
        <r>   17.4948 </r>
        <r>   17.4948 </r>
        <r>   17.7997 </r>
        <r>   18.7424 </r>
        <r>   19.0522 </r>
        <r>   19.0522 </r>
        <r>   19.7822 </r>
        <r>   19.7822 </r>
        <r>   20.1364 </r>
        <r>   20.7778 </r>
        <r>   21.4772 </r>
        <r>   21.7346 </r>
        <r>   21.7376 </r>
       </set>
       <set comment="kpoint 6">
        <r>  -27.2811 </r>
        <r>  -27.2113 </r>
        <r>  -12.5489 </r>
        <r>  -12.5489 </r>
        <r>  -12.5320 </r>
        <r>  -12.2580 </r>
        <r>  -12.2392 </r>
        <r>  -12.2392 </r>
        <r>   -1.0529 </r>
        <r>    1.1313 </r>
        <r>    1.1313 </r>
        <r>    3.3830 </r>
        <r>    3.3830 </r>
        <r>    3.5275 </r>
        <r>    4.7704 </r>
        <r>    4.7704 </r>
        <r>    5.1232 </r>
        <r>    5.6727 </r>
        <r>    5.6727 </r>
        <r>    6.6164 </r>
        <r>    6.6164 </r>
        <r>    6.8292 </r>
        <r>    8.5736 </r>
        <r>    8.7554 </r>
        <r>    8.7554 </r>
        <r>    9.2711 </r>
        <r>   12.6140 </r>
        <r>   12.9431 </r>
        <r>   12.9431 </r>
        <r>   13.1354 </r>
        <r>   13.1354 </r>
        <r>   13.9474 </r>
        <r>   15.1502 </r>
        <r>   15.1502 </r>
        <r>   16.8098 </r>
        <r>   17.5426 </r>
        <r>   17.5426 </r>
        <r>   17.8308 </r>
        <r>   18.6225 </r>
        <r>   18.9940 </r>
        <r>   18.9940 </r>
        <r>   19.6443 </r>
        <r>   19.6443 </r>
        <r>   20.1297 </r>
        <r>   20.9424 </r>
        <r>   21.4277 </r>
        <r>   21.7953 </r>
        <r>   21.8038 </r>
       </set>
       <set comment="kpoint 7">
        <r>  -27.2804 </r>
        <r>  -27.2118 </r>
        <r>  -12.5496 </r>
        <r>  -12.5496 </r>
        <r>  -12.5254 </r>
        <r>  -12.2669 </r>
        <r>  -12.2402 </r>
        <r>  -12.2402 </r>
        <r>   -1.0200 </r>
        <r>    1.1517 </r>
        <r>    1.1517 </r>
        <r>    3.3584 </r>
        <r>    3.3584 </r>
        <r>    3.5670 </r>
        <r>    4.7512 </r>
        <r>    4.7512 </r>
        <r>    4.9231 </r>
        <r>    5.6048 </r>
        <r>    5.6048 </r>
        <r>    6.7060 </r>
        <r>    6.7060 </r>
        <r>    6.9058 </r>
        <r>    8.5946 </r>
        <r>    8.8490 </r>
        <r>    8.8490 </r>
        <r>    9.4057 </r>
        <r>   12.6830 </r>
        <r>   12.8739 </r>
        <r>   12.8739 </r>
        <r>   12.9725 </r>
        <r>   12.9725 </r>
        <r>   13.7861 </r>
        <r>   15.3476 </r>
        <r>   15.3476 </r>
        <r>   16.6016 </r>
        <r>   17.5972 </r>
        <r>   17.5972 </r>
        <r>   17.7635 </r>
        <r>   18.6023 </r>
        <r>   18.9290 </r>
        <r>   18.9290 </r>
        <r>   19.5020 </r>
        <r>   19.5020 </r>
        <r>   20.1186 </r>
        <r>   21.1246 </r>
        <r>   21.3663 </r>
        <r>   21.8659 </r>
        <r>   21.8672 </r>
       </set>
       <set comment="kpoint 8">
        <r>  -27.2796 </r>
        <r>  -27.2125 </r>
        <r>  -12.5504 </r>
        <r>  -12.5504 </r>
        <r>  -12.5178 </r>
        <r>  -12.2772 </r>
        <r>  -12.2413 </r>
        <r>  -12.2413 </r>
        <r>   -0.9814 </r>
        <r>    1.1756 </r>
        <r>    1.1756 </r>
        <r>    3.3289 </r>
        <r>    3.3289 </r>
        <r>    3.6138 </r>
        <r>    4.7233 </r>
        <r>    4.7325 </r>
        <r>    4.7325 </r>
        <r>    5.5382 </r>
        <r>    5.5382 </r>
        <r>    6.7980 </r>
        <r>    6.7980 </r>
        <r>    6.9640 </r>
        <r>    8.6194 </r>
        <r>    8.9542 </r>
        <r>    8.9542 </r>
        <r>    9.5595 </r>
        <r>   12.7645 </r>
        <r>   12.7955 </r>
        <r>   12.7955 </r>
        <r>   12.8160 </r>
        <r>   12.8160 </r>
        <r>   13.6092 </r>
        <r>   15.5439 </r>
        <r>   15.5439 </r>
        <r>   16.3814 </r>
        <r>   17.5913 </r>
        <r>   17.6559 </r>
        <r>   17.6559 </r>
        <r>   18.6915 </r>
        <r>   18.8602 </r>
        <r>   18.8602 </r>
        <r>   19.3603 </r>
        <r>   19.3603 </r>
        <r>   20.1048 </r>
        <r>   21.2924 </r>
        <r>   21.3175 </r>
        <r>   21.9376 </r>
        <r>   21.9430 </r>
       </set>
       <set comment="kpoint 9">
        <r>  -27.2787 </r>
        <r>  -27.2131 </r>
        <r>  -12.5512 </r>
        <r>  -12.5512 </r>
        <r>  -12.5091 </r>
        <r>  -12.2888 </r>
        <r>  -12.2426 </r>
        <r>  -12.2426 </r>
        <r>   -0.9373 </r>
        <r>    1.2027 </r>
        <r>    1.2027 </r>
        <r>    3.2946 </r>
        <r>    3.2946 </r>
        <r>    3.6676 </r>
        <r>    4.5252 </r>
        <r>    4.7153 </r>
        <r>    4.7153 </r>
        <r>    5.4737 </r>
        <r>    5.4737 </r>
        <r>    6.8915 </r>
        <r>    6.8915 </r>
        <r>    7.0052 </r>
        <r>    8.6481 </r>
        <r>    9.0686 </r>
        <r>    9.0686 </r>
        <r>    9.7287 </r>
        <r>   12.6678 </r>
        <r>   12.6678 </r>
        <r>   12.7096 </r>
        <r>   12.7096 </r>
        <r>   12.8586 </r>
        <r>   13.4196 </r>
        <r>   15.7364 </r>
        <r>   15.7364 </r>
        <r>   16.1538 </r>
        <r>   17.3600 </r>
        <r>   17.7153 </r>
        <r>   17.7153 </r>
        <r>   18.7911 </r>
        <r>   18.7911 </r>
        <r>   18.8467 </r>
        <r>   19.2239 </r>
        <r>   19.2239 </r>
        <r>   20.0901 </r>
        <r>   21.2055 </r>
        <r>   21.5163 </r>
        <r>   21.9353 </r>
        <r>   22.0253 </r>
       </set>
       <set comment="kpoint 10">
        <r>  -27.2776 </r>
        <r>  -27.2139 </r>
        <r>  -12.5521 </r>
        <r>  -12.5521 </r>
        <r>  -12.4996 </r>
        <r>  -12.3015 </r>
        <r>  -12.2441 </r>
        <r>  -12.2441 </r>
        <r>   -0.8879 </r>
        <r>    1.2330 </r>
        <r>    1.2330 </r>
        <r>    3.2557 </r>
        <r>    3.2557 </r>
        <r>    3.7285 </r>
        <r>    4.3298 </r>
        <r>    4.7007 </r>
        <r>    4.7007 </r>
        <r>    5.4116 </r>
        <r>    5.4116 </r>
        <r>    6.9858 </r>
        <r>    6.9858 </r>
        <r>    7.0317 </r>
        <r>    8.6806 </r>
        <r>    9.1893 </r>
        <r>    9.1893 </r>
        <r>    9.9094 </r>
        <r>   12.5301 </r>
        <r>   12.5301 </r>
        <r>   12.6173 </r>
        <r>   12.6173 </r>
        <r>   12.9652 </r>
        <r>   13.2196 </r>
        <r>   15.9221 </r>
        <r>   15.9221 </r>
        <r>   15.9228 </r>
        <r>   17.1024 </r>
        <r>   17.7706 </r>
        <r>   17.7706 </r>
        <r>   18.7254 </r>
        <r>   18.7254 </r>
        <r>   19.0367 </r>
        <r>   19.0976 </r>
        <r>   19.0976 </r>
        <r>   20.0758 </r>
        <r>   21.1048 </r>
        <r>   21.7178 </r>
        <r>   21.9130 </r>
        <r>   22.1128 </r>
       </set>
       <set comment="kpoint 11">
        <r>  -27.2765 </r>
        <r>  -27.2148 </r>
        <r>  -12.5530 </r>
        <r>  -12.5530 </r>
        <r>  -12.4893 </r>
        <r>  -12.3152 </r>
        <r>  -12.2457 </r>
        <r>  -12.2457 </r>
        <r>   -0.8335 </r>
        <r>    1.2663 </r>
        <r>    1.2663 </r>
        <r>    3.2124 </r>
        <r>    3.2124 </r>
        <r>    3.7965 </r>
        <r>    4.1381 </r>
        <r>    4.6895 </r>
        <r>    4.6895 </r>
        <r>    5.3523 </r>
        <r>    5.3523 </r>
        <r>    7.0457 </r>
        <r>    7.0805 </r>
        <r>    7.0805 </r>
        <r>    8.7169 </r>
        <r>    9.3132 </r>
        <r>    9.3132 </r>
        <r>   10.0971 </r>
        <r>   12.4053 </r>
        <r>   12.4053 </r>
        <r>   12.5203 </r>
        <r>   12.5203 </r>
        <r>   13.0107 </r>
        <r>   13.0845 </r>
        <r>   15.6915 </r>
        <r>   16.0969 </r>
        <r>   16.0969 </r>
        <r>   16.8339 </r>
        <r>   17.8152 </r>
        <r>   17.8152 </r>
        <r>   18.6678 </r>
        <r>   18.6678 </r>
        <r>   18.9879 </r>
        <r>   18.9879 </r>
        <r>   19.2470 </r>
        <r>   20.0630 </r>
        <r>   20.9896 </r>
        <r>   21.8716 </r>
        <r>   21.9206 </r>
        <r>   21.9711 </r>
       </set>
       <set comment="kpoint 12">
        <r>  -27.2753 </r>
        <r>  -27.2157 </r>
        <r>  -12.5540 </r>
        <r>  -12.5540 </r>
        <r>  -12.4782 </r>
        <r>  -12.3298 </r>
        <r>  -12.2475 </r>
        <r>  -12.2475 </r>
        <r>   -0.7741 </r>
        <r>    1.3024 </r>
        <r>    1.3024 </r>
        <r>    3.1652 </r>
        <r>    3.1652 </r>
        <r>    3.8714 </r>
        <r>    3.9509 </r>
        <r>    4.6821 </r>
        <r>    4.6821 </r>
        <r>    5.2962 </r>
        <r>    5.2962 </r>
        <r>    7.0492 </r>
        <r>    7.1750 </r>
        <r>    7.1750 </r>
        <r>    8.7570 </r>
        <r>    9.4362 </r>
        <r>    9.4362 </r>
        <r>   10.2877 </r>
        <r>   12.2966 </r>
        <r>   12.2966 </r>
        <r>   12.4198 </r>
        <r>   12.4198 </r>
        <r>   12.7944 </r>
        <r>   13.2165 </r>
        <r>   15.4627 </r>
        <r>   16.2562 </r>
        <r>   16.2562 </r>
        <r>   16.5621 </r>
        <r>   17.8402 </r>
        <r>   17.8402 </r>
        <r>   18.6234 </r>
        <r>   18.6234 </r>
        <r>   18.9031 </r>
        <r>   18.9031 </r>
        <r>   19.4708 </r>
        <r>   20.0529 </r>
        <r>   20.8594 </r>
        <r>   21.7839 </r>
        <r>   21.7842 </r>
        <r>   21.8178 </r>
       </set>
       <set comment="kpoint 13">
        <r>  -27.2739 </r>
        <r>  -27.2166 </r>
        <r>  -12.5549 </r>
        <r>  -12.5549 </r>
        <r>  -12.4665 </r>
        <r>  -12.3451 </r>
        <r>  -12.2496 </r>
        <r>  -12.2496 </r>
        <r>   -0.7102 </r>
        <r>    1.3410 </r>
        <r>    1.3410 </r>
        <r>    3.1146 </r>
        <r>    3.1146 </r>
        <r>    3.7687 </r>
        <r>    3.9531 </r>
        <r>    4.6789 </r>
        <r>    4.6789 </r>
        <r>    5.2434 </r>
        <r>    5.2434 </r>
        <r>    7.0440 </r>
        <r>    7.2687 </r>
        <r>    7.2687 </r>
        <r>    8.8009 </r>
        <r>    9.5540 </r>
        <r>    9.5540 </r>
        <r>   10.4768 </r>
        <r>   12.2079 </r>
        <r>   12.2079 </r>
        <r>   12.3172 </r>
        <r>   12.3172 </r>
        <r>   12.5716 </r>
        <r>   13.3614 </r>
        <r>   15.2394 </r>
        <r>   16.2916 </r>
        <r>   16.3938 </r>
        <r>   16.3938 </r>
        <r>   17.8357 </r>
        <r>   17.8357 </r>
        <r>   18.5985 </r>
        <r>   18.5985 </r>
        <r>   18.8520 </r>
        <r>   18.8520 </r>
        <r>   19.7038 </r>
        <r>   20.0464 </r>
        <r>   20.7140 </r>
        <r>   21.5936 </r>
        <r>   21.5936 </r>
        <r>   21.7518 </r>
       </set>
       <set comment="kpoint 14">
        <r>  -27.2726 </r>
        <r>  -27.2176 </r>
        <r>  -12.5559 </r>
        <r>  -12.5559 </r>
        <r>  -12.4543 </r>
        <r>  -12.3611 </r>
        <r>  -12.2519 </r>
        <r>  -12.2519 </r>
        <r>   -0.6418 </r>
        <r>    1.3819 </r>
        <r>    1.3819 </r>
        <r>    3.0611 </r>
        <r>    3.0611 </r>
        <r>    3.5922 </r>
        <r>    4.0417 </r>
        <r>    4.6800 </r>
        <r>    4.6800 </r>
        <r>    5.1942 </r>
        <r>    5.1942 </r>
        <r>    7.0317 </r>
        <r>    7.3612 </r>
        <r>    7.3612 </r>
        <r>    8.8486 </r>
        <r>    9.6612 </r>
        <r>    9.6612 </r>
        <r>   10.6600 </r>
        <r>   12.1438 </r>
        <r>   12.1438 </r>
        <r>   12.2140 </r>
        <r>   12.2140 </r>
        <r>   12.3429 </r>
        <r>   13.5190 </r>
        <r>   15.0243 </r>
        <r>   16.0252 </r>
        <r>   16.5035 </r>
        <r>   16.5035 </r>
        <r>   17.7956 </r>
        <r>   17.7956 </r>
        <r>   18.5995 </r>
        <r>   18.5995 </r>
        <r>   18.8398 </r>
        <r>   18.8398 </r>
        <r>   19.9432 </r>
        <r>   20.0445 </r>
        <r>   20.5535 </r>
        <r>   21.4066 </r>
        <r>   21.4066 </r>
        <r>   21.6783 </r>
       </set>
       <set comment="kpoint 15">
        <r>  -27.2711 </r>
        <r>  -27.2187 </r>
        <r>  -12.5568 </r>
        <r>  -12.5568 </r>
        <r>  -12.4417 </r>
        <r>  -12.3773 </r>
        <r>  -12.2544 </r>
        <r>  -12.2544 </r>
        <r>   -0.5691 </r>
        <r>    1.4248 </r>
        <r>    1.4248 </r>
        <r>    3.0055 </r>
        <r>    3.0055 </r>
        <r>    3.4218 </r>
        <r>    4.1369 </r>
        <r>    4.6853 </r>
        <r>    4.6853 </r>
        <r>    5.1488 </r>
        <r>    5.1488 </r>
        <r>    7.0137 </r>
        <r>    7.4519 </r>
        <r>    7.4519 </r>
        <r>    8.9002 </r>
        <r>    9.7519 </r>
        <r>    9.7519 </r>
        <r>   10.8328 </r>
        <r>   12.1090 </r>
        <r>   12.1096 </r>
        <r>   12.1096 </r>
        <r>   12.1114 </r>
        <r>   12.1114 </r>
        <r>   13.6892 </r>
        <r>   14.8209 </r>
        <r>   15.7650 </r>
        <r>   16.5797 </r>
        <r>   16.5797 </r>
        <r>   17.7212 </r>
        <r>   17.7212 </r>
        <r>   18.6314 </r>
        <r>   18.6314 </r>
        <r>   18.8642 </r>
        <r>   18.8642 </r>
        <r>   20.0482 </r>
        <r>   20.1860 </r>
        <r>   20.3786 </r>
        <r>   21.2266 </r>
        <r>   21.2266 </r>
        <r>   21.5999 </r>
       </set>
       <set comment="kpoint 16">
        <r>  -27.2696 </r>
        <r>  -27.2197 </r>
        <r>  -12.5577 </r>
        <r>  -12.5577 </r>
        <r>  -12.4289 </r>
        <r>  -12.3940 </r>
        <r>  -12.2571 </r>
        <r>  -12.2571 </r>
        <r>   -0.4926 </r>
        <r>    1.4695 </r>
        <r>    1.4695 </r>
        <r>    2.9484 </r>
        <r>    2.9484 </r>
        <r>    3.2579 </r>
        <r>    4.2386 </r>
        <r>    4.6946 </r>
        <r>    4.6946 </r>
        <r>    5.1073 </r>
        <r>    5.1073 </r>
        <r>    6.9908 </r>
        <r>    7.5400 </r>
        <r>    7.5400 </r>
        <r>    8.9556 </r>
        <r>    9.8208 </r>
        <r>    9.8208 </r>
        <r>   10.9904 </r>
        <r>   11.8703 </r>
        <r>   12.0107 </r>
        <r>   12.0107 </r>
        <r>   12.1103 </r>
        <r>   12.1103 </r>
        <r>   13.8713 </r>
        <r>   14.6332 </r>
        <r>   15.5126 </r>
        <r>   16.6196 </r>
        <r>   16.6196 </r>
        <r>   17.6195 </r>
        <r>   17.6195 </r>
        <r>   18.6966 </r>
        <r>   18.6966 </r>
        <r>   18.9171 </r>
        <r>   18.9171 </r>
        <r>   20.0584 </r>
        <r>   20.1902 </r>
        <r>   20.4279 </r>
        <r>   21.0558 </r>
        <r>   21.0558 </r>
        <r>   21.5214 </r>
       </set>
       <set comment="kpoint 17">
        <r>  -27.2681 </r>
        <r>  -27.2208 </r>
        <r>  -12.5586 </r>
        <r>  -12.5586 </r>
        <r>  -12.4159 </r>
        <r>  -12.4109 </r>
        <r>  -12.2601 </r>
        <r>  -12.2601 </r>
        <r>   -0.4125 </r>
        <r>    1.5155 </r>
        <r>    1.5155 </r>
        <r>    2.8905 </r>
        <r>    2.8905 </r>
        <r>    3.1010 </r>
        <r>    4.3467 </r>
        <r>    4.7077 </r>
        <r>    4.7077 </r>
        <r>    5.0699 </r>
        <r>    5.0699 </r>
        <r>    6.9641 </r>
        <r>    7.6251 </r>
        <r>    7.6251 </r>
        <r>    9.0148 </r>
        <r>    9.8639 </r>
        <r>    9.8639 </r>
        <r>   11.1275 </r>
        <r>   11.6274 </r>
        <r>   11.9133 </r>
        <r>   11.9133 </r>
        <r>   12.1493 </r>
        <r>   12.1493 </r>
        <r>   14.0626 </r>
        <r>   14.4677 </r>
        <r>   15.2690 </r>
        <r>   16.6241 </r>
        <r>   16.6241 </r>
        <r>   17.4985 </r>
        <r>   17.4985 </r>
[...]
       <r>   18.8452    0.0000 </r>
       <r>   18.8452    0.0000 </r>
       <r>   19.6035    0.0000 </r>
       <r>   19.6035    0.0000 </r>
       <r>   19.8998    0.0000 </r>
       <r>   19.8998    0.0000 </r>
       <r>   21.1549    0.0000 </r>
       <r>   21.1549    0.0000 </r>
       <r>   21.7957    0.0000 </r>
       <r>   21.7957    0.0000 </r>
      </set>
      <set comment="kpoint 83">
       <r>  -27.2378    1.0000 </r>
       <r>  -27.2378    1.0000 </r>
       <r>  -12.5185    1.0000 </r>
       <r>  -12.5185    1.0000 </r>
       <r>  -12.4555    1.0000 </r>
       <r>  -12.4555    1.0000 </r>
       <r>  -12.4034    1.0000 </r>
       <r>  -12.4034    1.0000 </r>
       <r>    1.9924    0.0000 </r>
       <r>    1.9924    0.0000 </r>
       <r>    2.0880    0.0000 </r>
       <r>    2.0880    0.0000 </r>
       <r>    2.2239    0.0000 </r>
       <r>    2.2239    0.0000 </r>
       <r>    5.3912    0.0000 </r>
       <r>    5.3912    0.0000 </r>
       <r>    5.4609    0.0000 </r>
       <r>    5.4609    0.0000 </r>
       <r>    5.5665    0.0000 </r>
       <r>    5.5665    0.0000 </r>
       <r>    8.0413    0.0000 </r>
       <r>    8.0413    0.0000 </r>
       <r>    8.4802    0.0000 </r>
       <r>    8.4802    0.0000 </r>
       <r>    8.4843    0.0000 </r>
       <r>    8.4843    0.0000 </r>
       <r>   12.2974    0.0000 </r>
       <r>   12.2974    0.0000 </r>
       <r>   12.9786    0.0000 </r>
       <r>   12.9786    0.0000 </r>
       <r>   13.3251    0.0000 </r>
       <r>   13.3251    0.0000 </r>
       <r>   14.3350    0.0000 </r>
       <r>   14.3350    0.0000 </r>
       <r>   14.3951    0.0000 </r>
       <r>   14.3951    0.0000 </r>
       <r>   15.2945    0.0000 </r>
       <r>   15.2945    0.0000 </r>
       <r>   18.7903    0.0000 </r>
       <r>   18.7903    0.0000 </r>
       <r>   20.3792    0.0000 </r>
       <r>   20.3792    0.0000 </r>
       <r>   20.5563    0.0000 </r>
       <r>   20.5563    0.0000 </r>
       <r>   20.5661    0.0000 </r>
       <r>   20.5661    0.0000 </r>
       <r>   21.6116    0.0000 </r>
       <r>   21.6116    0.0000 </r>
      </set>
      <set comment="kpoint 84">
       <r>  -27.2377    1.0000 </r>
       <r>  -27.2377    1.0000 </r>
       <r>  -12.4609    1.0000 </r>
       <r>  -12.4609    1.0000 </r>
       <r>  -12.4609    1.0000 </r>
       <r>  -12.4609    1.0000 </r>
       <r>  -12.4609    1.0000 </r>
       <r>  -12.4609    1.0000 </r>
       <r>    2.1302    0.0000 </r>
       <r>    2.1302    0.0000 </r>
       <r>    2.1302    0.0000 </r>
       <r>    2.1302    0.0000 </r>
       <r>    2.1302    0.0000 </r>
       <r>    2.1302    0.0000 </r>
       <r>    5.3718    0.0000 </r>
       <r>    5.3718    0.0000 </r>
       <r>    5.4678    0.0000 </r>
       <r>    5.4678    0.0000 </r>
       <r>    5.4678    0.0000 </r>
       <r>    5.4678    0.0000 </r>
       <r>    8.3389    0.0000 </r>
       <r>    8.3389    0.0000 </r>
       <r>    8.3389    0.0000 </r>
       <r>    8.3389    0.0000 </r>
       <r>    8.3389    0.0000 </r>
       <r>    8.3389    0.0000 </r>
       <r>   12.9020    0.0000 </r>
       <r>   12.9020    0.0000 </r>
       <r>   12.9020    0.0000 </r>
       <r>   12.9020    0.0000 </r>
       <r>   12.9020    0.0000 </r>
       <r>   12.9020    0.0000 </r>
       <r>   14.5156    0.0000 </r>
       <r>   14.5156    0.0000 </r>
       <r>   14.5156    0.0000 </r>
       <r>   14.5156    0.0000 </r>
       <r>   14.5156    0.0000 </r>
       <r>   14.5156    0.0000 </r>
       <r>   18.6584    0.0000 </r>
       <r>   18.6584    0.0000 </r>
       <r>   21.3083    0.0000 </r>
       <r>   21.3083    0.0000 </r>
       <r>   21.3083    0.0000 </r>
       <r>   21.3083    0.0000 </r>
       <r>   21.5578    0.0000 </r>
       <r>   21.5578    0.0000 </r>
       <r>   21.5578    0.0000 </r>
       <r>   21.5578    0.0000 </r>
      </set>
     </set>
    </set>
   </array>
  </eigenvalues>
  <separator name="orbital magnetization" >
   <v name="MAGDIPOLOUT">      0.00000000      0.00000000      0.00000000</v>
  </separator>
  <dos>
   <i name="efermi">      1.61654901 </i>
   <total>
    <array>
     <dimension dim="1">gridpoints</dimension>
     <dimension dim="2">spin</dimension>
     <field>energy</field>
     <field>total</field>
     <field>integrated</field>
     <set>
      <set comment="spin 1">
       <r>   -29.7924     0.0000     0.0000 </r>
       <r>   -29.6083     0.0000     0.0000 </r>
       <r>   -29.4243     0.0000     0.0000 </r>
       <r>   -29.2402     0.0000     0.0000 </r>
       <r>   -29.0561     0.0000     0.0000 </r>
       <r>   -28.8720     0.0000     0.0000 </r>
       <r>   -28.6879     0.0000     0.0000 </r>
       <r>   -28.5038     0.0000     0.0000 </r>
       <r>   -28.3197     0.0000     0.0000 </r>
       <r>   -28.1356     0.0000     0.0000 </r>
       <r>   -27.9515     0.0000     0.0000 </r>
       <r>   -27.7674     0.0000     0.0000 </r>
       <r>   -27.5833     0.0000     0.0000 </r>
       <r>   -27.3992     0.0004     0.0001 </r>
       <r>   -27.2151    16.5086     3.0392 </r>
       <r>   -27.0311     5.2192     4.0000 </r>
       <r>   -26.8470     0.0000     4.0000 </r>
       <r>   -26.6629     0.0000     4.0000 </r>
       <r>   -26.4788     0.0000     4.0000 </r>
       <r>   -26.2947     0.0000     4.0000 </r>
       <r>   -26.1106     0.0000     4.0000 </r>
       <r>   -25.9265     0.0000     4.0000 </r>
       <r>   -25.7424     0.0000     4.0000 </r>
       <r>   -25.5583     0.0000     4.0000 </r>
       <r>   -25.3742     0.0000     4.0000 </r>
       <r>   -25.1901     0.0000     4.0000 </r>
       <r>   -25.0060     0.0000     4.0000 </r>
       <r>   -24.8219     0.0000     4.0000 </r>
       <r>   -24.6379     0.0000     4.0000 </r>
       <r>   -24.4538     0.0000     4.0000 </r>
       <r>   -24.2697     0.0000     4.0000 </r>
       <r>   -24.0856     0.0000     4.0000 </r>
       <r>   -23.9015     0.0000     4.0000 </r>
       <r>   -23.7174     0.0000     4.0000 </r>
       <r>   -23.5333     0.0000     4.0000 </r>
       <r>   -23.3492     0.0000     4.0000 </r>
       <r>   -23.1651     0.0000     4.0000 </r>
       <r>   -22.9810     0.0000     4.0000 </r>
       <r>   -22.7969     0.0000     4.0000 </r>
       <r>   -22.6128     0.0000     4.0000 </r>
       <r>   -22.4287     0.0000     4.0000 </r>
       <r>   -22.2447     0.0000     4.0000 </r>
       <r>   -22.0606     0.0000     4.0000 </r>
       <r>   -21.8765     0.0000     4.0000 </r>
       <r>   -21.6924     0.0000     4.0000 </r>
       <r>   -21.5083     0.0000     4.0000 </r>
       <r>   -21.3242     0.0000     4.0000 </r>
       <r>   -21.1401     0.0000     4.0000 </r>
       <r>   -20.9560     0.0000     4.0000 </r>
       <r>   -20.7719     0.0000     4.0000 </r>
       <r>   -20.5878     0.0000     4.0000 </r>
       <r>   -20.4037     0.0000     4.0000 </r>
       <r>   -20.2196     0.0000     4.0000 </r>
       <r>   -20.0356     0.0000     4.0000 </r>
       <r>   -19.8515     0.0000     4.0000 </r>
       <r>   -19.6674     0.0000     4.0000 </r>
       <r>   -19.4833     0.0000     4.0000 </r>
       <r>   -19.2992     0.0000     4.0000 </r>
       <r>   -19.1151     0.0000     4.0000 </r>
       <r>   -18.9310     0.0000     4.0000 </r>
       <r>   -18.7469     0.0000     4.0000 </r>
       <r>   -18.5628     0.0000     4.0000 </r>
       <r>   -18.3787     0.0000     4.0000 </r>
       <r>   -18.1946     0.0000     4.0000 </r>
       <r>   -18.0105     0.0000     4.0000 </r>
       <r>   -17.8264     0.0000     4.0000 </r>
       <r>   -17.6424     0.0000     4.0000 </r>
       <r>   -17.4583     0.0000     4.0000 </r>
       <r>   -17.2742     0.0000     4.0000 </r>
       <r>   -17.0901     0.0000     4.0000 </r>
       <r>   -16.9060     0.0000     4.0000 </r>
       <r>   -16.7219     0.0000     4.0000 </r>
       <r>   -16.5378     0.0000     4.0000 </r>
       <r>   -16.3537     0.0000     4.0000 </r>
       <r>   -16.1696     0.0000     4.0000 </r>
       <r>   -15.9855     0.0000     4.0000 </r>
       <r>   -15.8014     0.0000     4.0000 </r>
       <r>   -15.6173     0.0000     4.0000 </r>
       <r>   -15.4332     0.0000     4.0000 </r>
       <r>   -15.2492     0.0000     4.0000 </r>
       <r>   -15.0651     0.0000     4.0000 </r>
       <r>   -14.8810     0.0000     4.0000 </r>
       <r>   -14.6969     0.0000     4.0000 </r>
       <r>   -14.5128     0.0000     4.0000 </r>
       <r>   -14.3287     0.0000     4.0000 </r>
       <r>   -14.1446     0.0000     4.0000 </r>
       <r>   -13.9605     0.0000     4.0000 </r>
       <r>   -13.7764     0.0000     4.0000 </r>
       <r>   -13.5923     0.0000     4.0000 </r>
       <r>   -13.4082     0.0000     4.0000 </r>
       <r>   -13.2241     0.0000     4.0000 </r>
       <r>   -13.0400     0.0000     4.0000 </r>
       <r>   -12.8560     0.0000     4.0000 </r>
       <r>   -12.6719     1.2440     4.2290 </r>
       <r>   -12.4878    21.0474     8.1037 </r>
       <r>   -12.3037    28.4100    13.3337 </r>
       <r>   -12.1196    14.4825    15.9998 </r>
       <r>   -11.9355     0.0008    16.0000 </r>
       <r>   -11.7514     0.0000    16.0000 </r>
       <r>   -11.5673     0.0000    16.0000 </r>
       <r>   -11.3832     0.0000    16.0000 </r>
       <r>   -11.1991     0.0000    16.0000 </r>
       <r>   -11.0150     0.0000    16.0000 </r>
       <r>   -10.8309     0.0000    16.0000 </r>
       <r>   -10.6468     0.0000    16.0000 </r>
       <r>   -10.4628     0.0000    16.0000 </r>
       <r>   -10.2787     0.0000    16.0000 </r>
       <r>   -10.0946     0.0000    16.0000 </r>
       <r>    -9.9105     0.0000    16.0000 </r>
       <r>    -9.7264     0.0000    16.0000 </r>
       <r>    -9.5423     0.0000    16.0000 </r>
       <r>    -9.3582     0.0000    16.0000 </r>
       <r>    -9.1741     0.0000    16.0000 </r>
       <r>    -8.9900     0.0000    16.0000 </r>
       <r>    -8.8059     0.0000    16.0000 </r>
       <r>    -8.6218     0.0000    16.0000 </r>
       <r>    -8.4377     0.0000    16.0000 </r>
       <r>    -8.2536     0.0000    16.0000 </r>
       <r>    -8.0696     0.0000    16.0000 </r>
       <r>    -7.8855     0.0000    16.0000 </r>
       <r>    -7.7014     0.0000    16.0000 </r>
       <r>    -7.5173     0.0000    16.0000 </r>
       <r>    -7.3332     0.0000    16.0000 </r>
       <r>    -7.1491     0.0000    16.0000 </r>
       <r>    -6.9650     0.0000    16.0000 </r>
       <r>    -6.7809     0.0000    16.0000 </r>
       <r>    -6.5968     0.0000    16.0000 </r>
       <r>    -6.4127     0.0000    16.0000 </r>
       <r>    -6.2286     0.0000    16.0000 </r>
       <r>    -6.0445     0.0000    16.0000 </r>
       <r>    -5.8604     0.0000    16.0000 </r>
       <r>    -5.6764     0.0000    16.0000 </r>
       <r>    -5.4923     0.0000    16.0000 </r>
       <r>    -5.3082     0.0000    16.0000 </r>
       <r>    -5.1241     0.0000    16.0000 </r>
       <r>    -4.9400     0.0000    16.0000 </r>
       <r>    -4.7559     0.0000    16.0000 </r>
       <r>    -4.5718     0.0000    16.0000 </r>
       <r>    -4.3877     0.0000    16.0000 </r>
       <r>    -4.2036     0.0000    16.0000 </r>
       <r>    -4.0195     0.0000    16.0000 </r>
       <r>    -3.8354     0.0000    16.0000 </r>
       <r>    -3.6513     0.0000    16.0000 </r>
       <r>    -3.4673     0.0000    16.0000 </r>
       <r>    -3.2832     0.0000    16.0000 </r>
       <r>    -3.0991     0.0000    16.0000 </r>
       <r>    -2.9150     0.0000    16.0000 </r>
       <r>    -2.7309     0.0000    16.0000 </r>
       <r>    -2.5468     0.0000    16.0000 </r>
       <r>    -2.3627     0.0000    16.0000 </r>
       <r>    -2.1786     0.0000    16.0000 </r>
       <r>    -1.9945     0.0000    16.0000 </r>
       <r>    -1.8104     0.0000    16.0000 </r>
       <r>    -1.6263     0.0000    16.0000 </r>
       <r>    -1.4422     0.0000    16.0000 </r>
       <r>    -1.2581     0.0000    16.0000 </r>
       <r>    -1.0741     0.0219    16.0040 </r>
       <r>    -0.8900     0.1578    16.0331 </r>
       <r>    -0.7059     0.3186    16.0917 </r>
       <r>    -0.5218     0.3441    16.1551 </r>
       <r>    -0.3377     0.4623    16.2402 </r>
       <r>    -0.1536     0.4518    16.3234 </r>
       <r>     0.0305     0.8125    16.4729 </r>
       <r>     0.2146     0.7191    16.6053 </r>
       <r>     0.3987     1.0543    16.7994 </r>
       <r>     0.5828     1.2145    17.0230 </r>
       <r>     0.7669     1.7792    17.3505 </r>
       <r>     0.9510     2.8036    17.8667 </r>
       <r>     1.1351     2.6009    18.3455 </r>
       <r>     1.3191     3.5047    18.9907 </r>
       <r>     1.5032     4.0537    19.7369 </r>
       <r>     1.6873     2.5977    20.2151 </r>
       <r>     1.8714     1.5613    20.5026 </r>
       <r>     2.0555     2.5302    20.9683 </r>
       <r>     2.2396     6.4876    22.1627 </r>
       <r>     2.4237     8.1013    23.6540 </r>
       <r>     2.6078     7.8673    25.1023 </r>
       <r>     2.7919     5.3905    26.0947 </r>
       <r>     2.9760     3.4204    26.7244 </r>
       <r>     3.1601     2.5610    27.1958 </r>
       <r>     3.3442     2.0646    27.5759 </r>
       <r>     3.5283     1.1148    27.7811 </r>
       <r>     3.7123     1.8451    28.1208 </r>
       <r>     3.8964     2.1765    28.5215 </r>
       <r>     4.0805     3.0762    29.0878 </r>
       <r>     4.2646     2.6571    29.5769 </r>
       <r>     4.4487     3.9313    30.3007 </r>
       <r>     4.6328     3.4416    30.9343 </r>
       <r>     4.8169     4.5457    31.7711 </r>
       <r>     5.0010     5.1304    32.7155 </r>
       <r>     5.1851     6.1790    33.8530 </r>
       <r>     5.3692    10.1831    35.7277 </r>
       <r>     5.5533     6.7747    36.9748 </r>
       <r>     5.7374     1.4789    37.2471 </r>
       <r>     5.9215     2.2526    37.6618 </r>
       <r>     6.1055     1.0932    37.8630 </r>
       <r>     6.2896     2.2268    38.2730 </r>
       <r>     6.4737     1.7365    38.5927 </r>
       <r>     6.6578     2.3440    39.0242 </r>
       <r>     6.8419     2.9662    39.5702 </r>
       <r>     7.0260     1.8011    39.9018 </r>
       <r>     7.2101     1.3457    40.1495 </r>
       <r>     7.3942     2.5114    40.6118 </r>
       <r>     7.5783     2.7430    41.1168 </r>
       <r>     7.7624     3.4256    41.7474 </r>
       <r>     7.9465     3.4296    42.3788 </r>
       <r>     8.1306     2.9625    42.9242 </r>
       <r>     8.3147     3.0129    43.4788 </r>
       <r>     8.4987     4.7207    44.3479 </r>
       <r>     8.6828     4.1089    45.1043 </r>
       <r>     8.8669     2.6992    45.6012 </r>
       <r>     9.0510     3.0020    46.1538 </r>
       <r>     9.2351     3.5879    46.8143 </r>
       <r>     9.4192     5.0877    47.7509 </r>
       <r>     9.6033     3.1547    48.3317 </r>
       <r>     9.7874     3.3618    48.9506 </r>
       <r>     9.9715     4.0024    49.6874 </r>
       <r>    10.1556     3.5552    50.3419 </r>
       <r>    10.3397     2.6922    50.8375 </r>
       <r>    10.5238     2.1082    51.2256 </r>
       <r>    10.7078     2.1177    51.6154 </r>
       <r>    10.8919     2.3194    52.0424 </r>
       <r>    11.0760     1.9539    52.4021 </r>
       <r>    11.2601     2.4158    52.8468 </r>
       <r>    11.4442     5.0382    53.7743 </r>
       <r>    11.6283     4.6249    54.6257 </r>
       <r>    11.8124     3.7365    55.3136 </r>
       <r>    11.9965     2.8556    55.8393 </r>
       <r>    12.1806     3.4632    56.4768 </r>
       <r>    12.3647     2.0126    56.8473 </r>
       <r>    12.5488     2.9689    57.3939 </r>
       <r>    12.7329     4.2926    58.1841 </r>
       <r>    12.9170     4.7135    59.0518 </r>
       <r>    13.1010     3.2108    59.6429 </r>
       <r>    13.2851     3.0989    60.2134 </r>
       <r>    13.4692     3.0705    60.7787 </r>
       <r>    13.6533     1.8664    61.1222 </r>
       <r>    13.8374     3.5596    61.7775 </r>
       <r>    14.0215     3.9310    62.5012 </r>
       <r>    14.2056     6.5723    63.7111 </r>
       <r>    14.3897     5.0869    64.6475 </r>
       <r>    14.5738     3.9458    65.3739 </r>
       <r>    14.7579     4.2712    66.1602 </r>
       <r>    14.9420     3.4878    66.8023 </r>
       <r>    15.1261     2.9391    67.3434 </r>
       <r>    15.3102     2.9031    67.8778 </r>
       <r>    15.4942     2.9503    68.4209 </r>
       <r>    15.6783     4.8501    69.3138 </r>
       <r>    15.8624     3.8281    70.0185 </r>
       <r>    16.0465     2.8547    70.5440 </r>
       <r>    16.2306     4.4150    71.3568 </r>
       <r>    16.4147     3.7486    72.0469 </r>
       <r>    16.5988     3.9272    72.7699 </r>
       <r>    16.7829     4.1862    73.5405 </r>
       <r>    16.9670     4.0300    74.2824 </r>
       <r>    17.1511     4.5928    75.1279 </r>
       <r>    17.3352     5.7333    76.1833 </r>
       <r>    17.5193     4.0526    76.9294 </r>
       <r>    17.7034     4.3376    77.7279 </r>
       <r>    17.8874     5.1075    78.6681 </r>
       <r>    18.0715     3.9632    79.3977 </r>
       <r>    18.2556     3.6243    80.0649 </r>
       <r>    18.4397     5.0152    80.9882 </r>
       <r>    18.6238     4.2784    81.7758 </r>
       <r>    18.8079     4.5343    82.6105 </r>
       <r>    18.9920     5.1374    83.5563 </r>
       <r>    19.1761     5.4925    84.5674 </r>
       <r>    19.3602     2.9947    85.1187 </r>
       <r>    19.5443     3.7630    85.8114 </r>
       <r>    19.7284     4.6959    86.6759 </r>
       <r>    19.9125     3.9158    87.3968 </r>
       <r>    20.0966     4.3570    88.1989 </r>
       <r>    20.2806     4.5744    89.0410 </r>
       <r>    20.4647     3.7875    89.7383 </r>
       <r>    20.6488     2.8136    90.2562 </r>
       <r>    20.8329     3.6321    90.9249 </r>
       <r>    21.0170     4.7095    91.7919 </r>
       <r>    21.2011     4.8973    92.6934 </r>
       <r>    21.3852     3.4128    93.3217 </r>
       <r>    21.5693     4.2277    94.1000 </r>
       <r>    21.7534     4.8159    94.9865 </r>
       <r>    21.9375     2.1269    95.3781 </r>
       <r>    22.1216     1.4133    95.6382 </r>
       <r>    22.3057     0.7912    95.7839 </r>
       <r>    22.4898     0.1616    95.8136 </r>
       <r>    22.6738     0.6694    95.9369 </r>
       <r>    22.8579     0.2650    95.9857 </r>
       <r>    23.0420     0.0779    96.0000 </r>
       <r>    23.2261     0.0000    96.0000 </r>
       <r>    23.4102     0.0000    96.0000 </r>
       <r>    23.5943     0.0000    96.0000 </r>
       <r>    23.7784     0.0000    96.0000 </r>
       <r>    23.9625     0.0000    96.0000 </r>
       <r>    24.1466     0.0000    96.0000 </r>
       <r>    24.3307     0.0000    96.0000 </r>
       <r>    24.5148     0.0000    96.0000 </r>
       <r>    24.6989     0.0000    96.0000 </r>
       <r>    24.8830     0.0000    96.0000 </r>
       <r>    25.0670     0.0000    96.0000 </r>
       <r>    25.2511     0.0000    96.0000 </r>
       <r>    25.4352     0.0000    96.0000 </r>
      </set>
     </set>
    </array>
   </total>
  </dos>
 </calculation>
 <structure name="finalpos" >
  <crystal>
   <varray name="basis" >
    <v>       5.02792000       0.00000000       0.00000000 </v>
    <v>       0.00000000       5.02792000       0.00000000 </v>
    <v>       0.00000000       0.00000000       5.02792000 </v>
   </varray>
   <i name="volume">    127.10571466 </i>
   <varray name="rec_basis" >
    <v>       0.19888940      -0.00000000       0.00000000 </v>
    <v>       0.00000000       0.19888940       0.00000000 </v>
    <v>      -0.00000000      -0.00000000       0.19888940 </v>
   </varray>
  </crystal>
  <varray name="positions" >
   <v>       0.00000000       0.00000000       0.00000000 </v>
   <v>       0.50000000       0.50000000       0.50000000 </v>
  </varray>
 </structure>
</modeling>
