Zn                                      
   1.00000000000000     
     2.661690    0.000000    0.000000
     1.330845    2.305091    0.000000
     0.000000    0.000000    5.003970
   Zn
     2
Direct
  0.000000  0.000000  0.000000
  0.333333  0.333333  0.500000
 
   24   24   48
  600.45      568.00      479.86      359.70      236.19      133.10      63.176      26.717      14.015      10.727    
  8.7524      7.6766      7.3433      7.6766      8.7524      10.727      14.015      26.717      63.176      133.10    
  236.19      359.70      479.86      568.00      568.00      507.74      404.04      283.48      172.44      88.968    
  39.136      17.680      11.938      9.5615      8.0944      7.4290      7.4295      8.0950      9.5612      11.937    
  17.680      39.138      88.971      172.44      283.48      404.03      507.73      568.00      479.86      404.04    
  300.99      195.72      108.90      51.302      22.485      13.115      10.335      8.5388      7.5748      7.2778    
  7.5748      8.5387      10.335      13.115      22.485      51.303      108.90      195.72      300.99      404.03    
  479.85      507.80      359.70      283.48      195.72      116.40      58.842      26.660      14.354      10.971    
  8.9447      7.7429      7.2076      7.2073      7.7426      8.9447      10.971      14.353      26.658      58.842    
  116.40      195.73      283.49      359.71      404.19      404.19      236.19      172.44      108.90      58.842    
  28.316      15.210      11.387      9.2526      7.8919      7.1865      6.9721      7.1866      7.8922      9.2531    
  11.387      15.209      28.313      58.840      108.90      172.45      236.20      283.69      301.29      283.69    
  133.10      88.968      51.302      26.660      15.210      11.532      9.4182      7.9921      7.1861      6.8338    
  6.8338      7.1862      7.9926      9.4192      11.533      15.210      26.658      51.299      88.967      133.10    
  172.63      196.06      196.05      172.63      63.176      39.136      22.485      14.354      11.387      9.4182    
  8.0269      7.1890      6.7630      6.6338      6.7625      7.1885      8.0270      9.4194      11.390      14.356    
  22.485      39.134      63.172      89.090      109.16      116.72      109.16      89.094      26.717      17.680    
  13.115      10.971      9.2526      7.9921      7.1890      6.7412      6.5450      6.5449      6.7406      7.1878    
  7.9909      9.2528      10.974      13.119      17.682      26.716      39.183      51.430      59.034      59.036    
  51.434      39.187      14.015      11.938      10.335      8.9447      7.8919      7.1861      6.7630      6.5450    
  6.4786      6.5454      6.7630      7.1849      7.8896      8.9427      10.335      11.940      14.019      17.674    
  22.502      26.709      28.380      26.709      22.502      17.672      10.727      9.5615      8.5388      7.7429    
  7.1865      6.8338      6.6338      6.5449      6.5454      6.6351      6.8351      7.1865      7.7406      8.5351    
  9.5588      10.727      11.895      13.056      14.293      15.153      15.152      14.290      13.052      11.892    
  8.7524      8.0944      7.5748      7.2076      6.9721      6.8338      6.7625      6.7406      6.7630      6.8351    
  6.9743      7.2095      7.5749      8.0920      8.7488      9.4881      10.216      10.826      11.230      11.370    
  11.228      10.824      10.216      9.4905      7.6766      7.4290      7.2778      7.2073      7.1866      7.1862    
  7.1885      7.1878      7.1849      7.1865      7.2095      7.2815      7.4319      7.6765      8.0044      8.3756    
  8.7310      9.0087      9.1602      9.1600      9.0090      8.7331      8.3792      8.0073      7.3433      7.4295    
  7.5748      7.7426      7.8922      7.9926      8.0270      7.9909      7.8896      7.7406      7.5749      7.4319    
  7.3467      7.3361      7.3921      7.4865      7.5838      7.6543      7.6803      7.6560      7.5864      7.4885    
  7.3921      7.3337      7.6766      8.0950      8.5387      8.9447      9.2531      9.4192      9.4194      9.2528    
  8.9427      8.5351      8.0920      7.6765      7.3361      7.0912      6.9349      6.8444      6.7963      6.7758    
  6.7765      6.7977      6.8445      6.9327      7.0875      7.3333      8.7524      9.5612      10.335      10.971    
  11.387      11.533      11.390      10.974      10.335      9.5588      8.7488      8.0044      7.3921      6.9349    
  6.6203      6.4210      6.3116      6.2767      6.3112      6.4197      6.6181      6.9329      7.3920      8.0067    
  10.727      11.937      13.115      14.353      15.209      15.210      14.356      13.119      11.940      10.727    
  9.4881      8.3756      7.4865      6.8444      6.4210      6.1706      6.0552      6.0547      6.1693      6.4197    
  6.8444      7.4888      8.3793      9.4908      14.015      17.680      22.485      26.658      28.313      26.658    
  22.485      17.682      14.019      11.895      10.216      8.7310      7.5838      6.7963      6.3116      6.0552    
  5.9753      6.0548      6.3116      6.7975      7.5861      8.7330      10.216      11.893      26.717      39.138    
  51.303      58.842      58.840      51.299      39.134      26.716      17.674      13.056      10.826      9.0087    
  7.6543      6.7758      6.2767      6.0547      6.0548      6.2772      6.7770      7.6555      9.0085      10.824    
  13.052      17.672      63.176      88.971      108.90      116.40      108.90      88.967      63.172      39.183    
  22.502      14.293      11.230      9.1602      7.6803      6.7765      6.3112      6.1693      6.3116      6.7770    
  7.6802      9.1590      11.228      14.291      22.501      39.184      133.10      172.44      195.72      195.73    
  172.45      133.10      89.090      51.430      26.709      15.153      11.370      9.1600      7.6560      6.7977    
  6.4197      6.4197      6.7975      7.6555      9.1590      11.369      15.153      26.711      51.432      89.092    
  236.19      283.48      300.99      283.49      236.20      172.63      109.16      59.034      28.380      15.152    
  11.228      9.0090      7.5864      6.8445      6.6181      6.8444      7.5861      9.0085      11.228      15.153    
  28.383      59.037      109.16      172.63      359.70      404.03      404.03      359.71      283.69      196.06    
  116.72      59.036      26.709      14.290      10.824      8.7331      7.4885      6.9327      6.9329      7.4888    
  8.7330      10.824      14.291      26.711      59.037      116.71      196.05      283.69      479.86      507.73    
  479.85      404.19      301.29      196.05      109.16      51.434      22.502      13.052      10.216      8.3792    
  7.3921      7.0875      7.3920      8.3793      10.216      13.052      22.501      51.432      109.16      196.05    
  301.29      404.19      568.00      568.00      507.80      404.19      283.69      172.63      89.094      39.187    
  17.672      11.892      9.4905      8.0073      7.3337      7.3333      8.0067      9.4908      11.893      17.672    
  39.184      89.092      172.63      283.69      404.19      507.81      572.00      540.93      456.59      341.68    
  223.74      125.60      59.439      25.332      13.681      10.558      8.6307      7.5860      7.2619      7.5845    
  8.6306      10.559      13.681      25.331      59.439      125.60      223.74      341.68      456.59      540.94    
  540.93      483.26      384.07      268.87      163.01      83.780      36.888      17.019      11.749      9.4208    
  7.9935      7.3477      7.3471      7.9931      9.4215      11.750      17.018      36.889      83.784      163.01    
  268.87      384.06      483.26      540.93      456.59      384.07      285.59      185.17      102.65      48.281    
  21.428      12.862      10.179      8.4268      7.4908      7.2020      7.4896      8.4267      10.180      12.862    
  21.427      48.283      102.65      185.17      285.59      384.06      456.58      483.33      341.68      268.87    
  185.17      109.76      55.365      25.284      13.993      10.804      8.8229      7.6546      7.1351      7.1341    
  7.6536      8.8237      10.805      13.992      25.282      55.366      109.76      185.17      268.87      341.68    
  384.21      384.21      223.74      163.01      102.65      55.365      26.818      14.772      11.214      9.1241    
  7.7994      7.1147      6.9062      7.1140      7.7997      9.1253      11.214      14.769      26.815      55.364    
  102.65      163.01      223.75      269.07      285.86      269.06      125.60      83.780      48.281      25.284    
  14.772      11.357      9.2863      7.8967      7.1137      6.7715      6.7711      7.1133      7.8977      9.2877    
  11.357      14.771      25.282      48.278      83.779      125.60      163.18      185.48      185.48      163.18    
  59.439      36.888      21.428      13.993      11.214      9.2863      7.9305      7.1159      6.7020      6.5761    
  6.7011      7.1155      7.9313      9.2877      11.216      13.995      21.428      36.886      59.435      83.891    
  102.88      110.05      102.89      83.894      25.332      17.019      12.862      10.804      9.1241      7.8967    
  7.1159      6.6805      6.4893      6.4890      6.6797      7.1150      7.8960      9.1245      10.806      12.866    
  17.021      25.331      36.926      48.392      55.535      55.537      48.397      36.931      13.681      11.749    
  10.179      8.8229      7.7994      7.1137      6.7020      6.4893      6.4243      6.4895      6.7018      7.1124    
  7.7972      8.8212      10.179      11.752      13.684      17.008      21.433      25.317      26.865      25.318    
  21.434      17.006      10.558      9.4208      8.4268      7.6546      7.1147      6.7715      6.5761      6.4890    
  6.4895      6.5773      6.7726      7.1142      7.6520      8.4232      9.4187      10.559      11.704      12.795    
  13.921      14.700      14.700      13.919      12.792      11.700      8.6307      7.9935      7.4908      7.1351    
  6.9062      6.7711      6.7011      6.6797      6.7018      6.7726      6.9082      7.1365      7.4903      7.9907    
  8.6271      9.3452      10.054      10.651      11.046      11.183      11.044      10.648      10.053      9.3470    
  7.5860      7.3477      7.2020      7.1341      7.1140      7.1133      7.1155      7.1150      7.1124      7.1142    
  7.1365      7.2058      7.3501      7.5851      7.9007      8.2589      8.6026      8.8716      9.0184      9.0181    
  8.8713      8.6040      8.2624      7.9042      7.2619      7.3471      7.4896      7.6536      7.7997      7.8977    
  7.9313      7.8960      7.7972      7.6520      7.4903      7.3501      7.2652      7.2521      7.3033      7.3919    
  7.4838      7.5504      7.5750      7.5520      7.4863      7.3941      7.3039      7.2503      7.5845      7.9931    
  8.4267      8.8237      9.1253      9.2877      9.2877      9.1245      8.8212      8.4232      7.9907      7.5851    
  7.2521      7.0113      6.8563      6.7653      6.7159      6.6944      6.6953      6.7176      6.7659      6.8546    
  7.0078      7.2489      8.6306      9.4215      10.180      10.805      11.214      11.357      11.216      10.806    
  10.179      9.4187      8.6271      7.9007      7.3033      6.8563      6.5477      6.3510      6.2426      6.2080    
  6.2425      6.3501      6.5455      6.8540      7.3025      7.9025      10.559      11.750      12.862      13.992    
  14.769      14.771      13.995      12.866      11.752      10.559      9.3452      8.2589      7.3919      6.7653    
  6.3510      6.1053      5.9918      5.9913      6.1040      6.3496      6.7648      7.3936      8.2624      9.3483    
  13.681      17.018      21.427      25.282      26.815      25.282      21.428      17.021      13.684      11.704    
  10.054      8.6026      7.4838      6.7159      6.2426      5.9918      5.9134      5.9911      6.2423      6.7170    
  7.4860      8.6047      10.055      11.702      25.331      36.889      48.283      55.366      55.364      48.278    
  36.886      25.331      17.008      12.795      10.651      8.8716      7.5504      6.6944      6.2080      5.9913    
  5.9911      6.2081      6.6959      7.5522      8.8717      10.649      12.792      17.005      59.439      83.784    
  102.65      109.76      102.65      83.779      59.435      36.926      21.433      13.921      11.046      9.0184    
  7.5750      6.6953      6.2425      6.1040      6.2423      6.6959      7.5757      9.0176      11.044      13.919    
  21.432      36.928      125.60      163.01      185.17      185.17      163.01      125.60      83.891      48.392    
  25.317      14.700      11.183      9.0181      7.5520      6.7176      6.3501      6.3496      6.7170      7.5522    
  9.0176      11.182      14.700      25.319      48.395      83.893      223.74      268.87      285.59      268.87    
  223.75      163.18      102.88      55.535      26.865      14.700      11.044      8.8713      7.4863      6.7659    
  6.5455      6.7648      7.4860      8.8717      11.044      14.700      26.867      55.539      102.89      163.18    
  341.68      384.06      384.06      341.68      269.07      185.48      110.05      55.537      25.318      13.919    
  10.648      8.6040      7.3941      6.8546      6.8540      7.3936      8.6047      10.649      13.919      25.319    
  55.539      110.05      185.48      269.06      456.59      483.26      456.58      384.21      285.86      185.48    
  102.89      48.397      21.434      12.792      10.053      8.2624      7.3039      7.0078      7.3025      8.2624    
  10.055      12.792      21.432      48.395      102.89      185.48      285.86      384.21      540.94      540.93    
  483.33      384.21      269.06      163.18      83.894      36.931      17.006      11.700      9.3470      7.9042    
  7.2503      7.2489      7.9025      9.3483      11.702      17.005      36.928      83.893      163.18      269.06    
  384.21      483.33      493.70      466.48      392.62      292.25      189.74      105.32      49.500      21.764    
  12.827      10.072      8.2816      7.3238      7.0272      7.3209      8.2815      10.075      12.827      21.761    
  49.499      105.32      189.74      292.25      392.63      466.48      466.48      415.97      329.24      228.88    
  137.36      69.861      31.001      15.349      11.204      9.0176      7.7028      7.1122      7.1107      7.7013    
  9.0193      11.205      15.348      31.000      69.864      137.36      228.88      329.23      415.97      466.48    
  392.62      329.24      243.42      156.44      85.806      40.295      18.726      12.197      9.7287      8.1048    
  7.2472      6.9830      7.2449      8.1048      9.7308      12.197      18.725      40.297      85.811      156.44    
  243.41      329.23      392.62      416.02      292.25      228.88      156.44      91.843      46.137      21.738    
  13.079      10.320      8.4733      7.3993      6.9241      6.9225      7.3977      8.4748      10.321      13.076    
  21.736      46.139      91.847      156.44      228.88      292.25      329.35      329.35      189.74      137.36    
  85.806      46.137      22.948      13.666      10.711      8.7547      7.5329      6.9056      6.7143      6.9040    
  7.5332      8.7566      10.711      13.663      22.946      46.137      85.807      137.36      189.75      229.04    
  243.64      229.03      105.32      69.861      40.295      21.738      13.666      10.848      8.9069      7.6225    
  6.9033      6.5895      6.5886      6.9026      7.6239      8.9086      10.847      13.664      21.736      40.293    
  69.860      105.32      137.50      156.68      156.68      137.49      49.500      31.001      18.726      13.079    
  10.711      8.9069      7.6536      6.9043      6.5237      6.4076      6.5224      6.9040      7.6549      8.9084    
  10.712      13.080      18.726      30.998      49.497      69.941      85.982      92.060      85.982      69.943    
  21.764      15.349      12.197      10.320      8.7547      7.6225      6.9043      6.5030      6.3262      6.3257    
  6.5021      6.9037      7.6223      8.7554      10.323      12.201      15.351      21.762      31.018      40.363    
  46.247      46.249      40.367      31.023      12.827      11.204      9.7287      8.4733      7.5329      6.9033    
  6.5237      6.3262      6.2655      6.3262      6.5233      6.9021      7.5309      8.4720      9.7298      11.207    
  12.830      15.324      18.702      21.729      22.948      21.730      18.704      15.324      10.072      9.0176    
  8.1048      7.3993      6.9056      6.5895      6.4076      6.3257      6.3262      6.4086      6.5901      6.9046    
  7.3965      8.1015      9.0162      10.074      11.149      12.110      12.976      13.559      13.558      12.975    
  12.107      11.146      8.2816      7.7028      7.2472      6.9241      6.7143      6.5886      6.5224      6.5021    
  6.5233      6.5901      6.7160      6.9250      7.2462      7.6998      8.2783      8.9352      9.5890      10.144    
  10.514      10.643      10.512      10.141      9.5874      8.9364      7.3238      7.1122      6.9830      6.9225    
  6.9040      6.9026      6.9040      6.9037      6.9021      6.9046      6.9250      6.9864      7.1140      7.3223    
  7.6035      7.9247      8.2347      8.4787      8.6123      8.6118      8.4779      8.2354      7.9277      7.6072    
  7.0272      7.1107      7.2449      7.3977      7.5332      7.6239      7.6549      7.6223      7.5309      7.3965    
  7.2462      7.1140      7.0303      7.0102      7.0482      7.1205      7.1972      7.2533      7.2741      7.2547    
  7.1995      7.1228      7.0494      7.0093      7.3209      7.7013      8.1048      8.4748      8.7566      8.9086    
  8.9084      8.7554      8.4720      8.1015      7.6998      7.3223      7.0102      6.7814      6.6302      6.5376    
  6.4848      6.4610      6.4619      6.4867      6.5385      6.6289      6.7783      7.0070      8.2815      9.0193    
  9.7308      10.321      10.711      10.847      10.712      10.323      9.7298      9.0162      8.2783      7.6035    
  7.0482      6.6302      6.3381      6.1492      6.0435      6.0096      6.0437      6.1486      6.3362      6.6276    
  7.0468      7.6047      10.075      11.205      12.197      13.076      13.663      13.664      13.080      12.201    
  11.207      10.074      8.9352      7.9247      7.1205      6.5376      6.1492      5.9165      5.8081      5.8077    
  5.9153      6.1477      6.5367      7.1215      7.9278      8.9386      12.827      15.348      18.725      21.736    
  22.946      21.736      18.726      15.351      12.830      11.149      9.5890      8.2347      7.1972      6.4848    
  6.0435      5.8081      5.7341      5.8071      6.0430      6.4857      7.1992      8.2368      9.5902      11.148    
  21.761      31.000      40.297      46.139      46.137      40.293      30.998      21.762      15.324      12.110    
  10.144      8.4787      7.2533      6.4610      6.0096      5.8077      5.8071      6.0093      6.4625      7.2554    
  8.4790      10.142      12.107      15.322      49.499      69.864      85.811      91.847      85.807      69.860    
  49.497      31.018      18.702      12.976      10.514      8.6123      7.2741      6.4619      6.0437      5.9153    
  6.0430      6.4625      7.2755      8.6118      10.511      12.974      18.702      31.019      105.32      137.36    
  156.44      156.44      137.36      105.32      69.941      40.363      21.729      13.559      10.643      8.6118    
  7.2547      6.4867      6.1486      6.1477      6.4857      7.2554      8.6118      10.641      13.557      21.730    
  40.366      69.942      189.74      228.88      243.41      228.88      189.75      137.50      85.982      46.247    
  22.948      13.558      10.512      8.4779      7.1995      6.5385      6.3362      6.5367      7.1992      8.4790    
  10.511      13.557      22.950      46.252      85.983      137.49      292.25      329.23      329.23      292.25    
  229.04      156.68      92.060      46.249      21.730      12.975      10.141      8.2354      7.1228      6.6289    
  6.6276      7.1215      8.2368      10.142      12.974      21.730      46.252      92.062      156.68      229.03    
  392.63      415.97      392.62      329.35      243.64      156.68      85.982      40.367      18.704      12.107    
  9.5874      7.9277      7.0494      6.7783      7.0468      7.9278      9.5902      12.107      18.702      40.366    
  85.983      156.68      243.63      329.36      466.48      466.48      416.02      329.35      229.03      137.49    
  69.943      31.023      15.324      11.146      8.9364      7.6072      7.0093      7.0070      7.6047      8.9386    
  11.148      15.322      31.019      69.942      137.49      229.03      329.36      416.03      384.09      362.30    
  303.34      223.60      143.03      78.010      36.622      17.444      11.742      9.3280      7.7508      6.9225    
  6.6667      6.9185      7.7507      9.3318      11.742      17.440      36.621      78.013      143.03      223.60    
  303.34      362.31      362.30      321.96      252.92      173.66      102.48      51.471      23.627      13.390    
  10.357      8.4038      7.2590      6.7500      6.7477      7.2567      8.4062      10.359      13.388      23.626    
  51.474      102.48      173.66      252.91      321.96      362.31      303.34      252.92      185.08      117.19    
  63.331      30.089      15.511      11.265      9.0401      7.6144      6.8730      6.6450      6.8697      7.6144    
  9.0433      11.265      15.509      30.091      63.337      117.19      185.08      252.91      303.33      322.00    
  223.60      173.66      117.19      67.861      34.233      17.448      11.946      9.5753      7.9408      7.0079    
  6.5978      6.5957      7.0059      7.9429      9.5772      11.943      17.446      34.236      67.865      117.19    
  173.66      223.60      253.00      253.00      143.03      102.48      63.331      34.233      18.239      12.342    
  9.9328      8.1916      7.1254      6.5822      6.4164      6.5800      7.1255      8.1939      9.9323      12.338    
  18.237      34.234      63.332      102.48      143.03      173.77      185.23      173.76      78.010      51.471    
  30.089      17.448      12.342      10.058      8.3279      7.2039      6.5789      6.3062      6.3050      6.5778    
  7.2054      8.3297      10.057      12.339      17.447      30.087      51.470      78.013      102.56      117.35    
  117.34      102.56      36.622      23.627      15.511      11.946      9.9328      8.3279      7.2312      6.5784    
  6.2462      6.1445      6.2448      6.5782      7.2328      8.3294      9.9333      11.946      15.511      23.625    
  36.619      51.511      63.428      67.984      63.427      51.512      17.444      13.390      11.265      9.5753    
  8.1916      7.2039      6.5784      6.2270      6.0711      6.0706      6.2261      6.5781      7.2042      8.1925    
  9.5776      11.268      13.391      17.442      23.617      30.099      34.266      34.267      30.102      23.621    
  11.742      10.357      9.0401      7.9408      7.1254      6.5789      6.2462      6.0711      6.0168      6.0710    
  6.2458      6.5778      7.1237      7.9401      9.0417      10.360      11.744      13.346      15.448      17.383    
  18.176      17.385      15.450      13.347      9.3280      8.4038      7.6144      7.0079      6.5822      6.3062    
  6.1445      6.0706      6.0710      6.1453      6.3064      6.5809      7.0052      7.6116      8.4030      9.3300    
  10.289      11.150      11.802      12.185      12.185      11.801      11.147      10.286      7.7508      7.2590    
  6.8730      6.5978      6.4164      6.3050      6.2448      6.2261      6.2458      6.3064      6.4177      6.5981    
  6.8716      7.2560      7.7480      8.3115      8.8789      9.3661      9.6946      9.8098      9.6926      9.3630    
  8.8768      8.3121      6.9225      6.7500      6.6450      6.5957      6.5800      6.5778      6.5782      6.5781    
  6.5778      6.5809      6.5981      6.6480      6.7512      6.9204      7.1510      7.4170      7.6762      7.8819    
  7.9952      7.9946      7.8807      7.6762      7.4194      7.1547      6.6667      6.7477      6.8697      7.0059    
  7.1255      7.2054      7.2328      7.2042      7.1237      7.0052      6.8716      6.7512      6.6693      6.6395    
  6.6580      6.7066      6.7612      6.8020      6.8172      6.8031      6.7630      6.7088      6.6597      6.6393    
  6.9185      7.2567      7.6144      7.9429      8.1939      8.3297      8.3294      8.1925      7.9401      7.6116    
  7.2560      6.9204      6.6395      6.4282      6.2826      6.1881      6.1308      6.1037      6.1046      6.1327    
  6.1893      6.2820      6.4257      6.6363      7.7507      8.4062      9.0433      9.5772      9.9323      10.057    
  9.9333      9.5776      9.0417      8.4030      7.7480      7.1510      6.6580      6.2826      6.0150      5.8375    
  5.7360      5.7032      5.7365      5.8374      6.0134      6.2801      6.6563      7.1515      9.3318      10.359    
  11.265      11.943      12.338      12.339      11.946      11.268      10.360      9.3300      8.3115      7.4170    
  6.7066      6.1881      5.8375      5.6238      5.5229      5.5226      5.6229      5.8361      6.1869      6.7069    
  7.4195      8.3150      11.742      13.388      15.509      17.446      18.237      17.447      15.511      13.391    
  11.744      10.289      8.8789      7.6762      6.7612      6.1308      5.7360      5.5229      5.4553      5.5219    
  5.7354      6.1315      6.7629      7.6781      8.8805      10.289      17.440      23.626      30.091      34.236    
  34.234      30.087      23.625      17.442      13.346      11.150      9.3661      7.8819      6.8020      6.1037    
  5.7032      5.5226      5.5219      5.7026      6.1051      6.8043      7.8825      9.3648      11.148      13.344    
  36.621      51.474      63.337      67.865      63.332      51.470      36.619      23.617      15.448      11.802    
  9.6946      7.9952      6.8172      6.1046      5.7365      5.6229      5.7354      6.1051      6.8192      7.9952    
  9.6918      11.799      15.447      23.617      78.013      102.48      117.19      117.19      102.48      78.013    
  51.511      30.099      17.383      12.185      9.8098      7.9946      6.8031      6.1327      5.8374      5.8361    
  6.1315      6.8043      7.9952      9.8071      12.183      17.384      30.102      51.512      143.03      173.66    
  185.08      173.66      143.03      102.56      63.428      34.266      18.176      12.185      9.6926      7.8807    
  6.7630      6.1893      6.0134      6.1869      6.7629      7.8825      9.6918      12.183      18.178      34.271    
  63.430      102.56      223.60      252.91      252.91      223.60      173.77      117.35      67.984      34.267    
  17.385      11.801      9.3630      7.6762      6.7088      6.2820      6.2801      6.7069      7.6781      9.3648    
  11.799      17.384      34.271      67.986      117.34      173.76      303.34      321.96      303.33      253.00    
  185.23      117.34      63.427      30.102      15.450      11.147      8.8768      7.4194      6.6597      6.4257    
  6.6563      7.4195      8.8805      11.148      15.447      30.102      63.430      117.34      185.23      253.00    
  362.31      362.31      322.00      253.00      173.76      102.56      51.512      23.621      13.347      10.286    
  8.3121      7.1547      6.6393      6.6363      7.1515      8.3150      10.289      13.344      23.617      51.512    
  102.56      173.76      253.00      322.00      266.59      250.79      208.21      151.22      94.760      50.823    
  24.642      13.826      10.502      8.4165      7.1052      6.4289      6.2204      6.4242      7.1050      8.4210    
  10.502      13.821      24.641      50.826      94.760      151.22      208.22      250.80      250.79      221.63    
  172.09      116.05      67.106      33.766      17.153      11.699      9.3060      7.6573      6.7166      6.3023    
  6.2994      6.7137      7.6601      9.3086      11.696      17.151      33.770      67.109      116.05      172.08    
  221.63      250.79      208.21      172.09      124.06      77.068      41.305      20.819      12.854      10.107    
  8.1994      7.0176      6.4123      6.2263      6.4085      7.0178      8.2032      10.107      12.851      20.821    
  41.311      77.069      124.05      172.08      208.21      221.65      151.22      116.05      77.068      44.229    
  23.248      13.863      10.710      8.6602      7.2944      6.5286      6.1936      6.1913      6.5263      7.2968    
  8.6625      10.708      13.861      23.252      44.233      77.067      116.05      151.22      172.13      172.13    
  94.760      67.106      41.305      23.248      14.277      11.033      8.9711      7.5080      6.6284      6.1827    
  6.0464      6.1803      6.6285      7.5105      8.9705      11.029      14.276      23.250      41.306      67.106    
  94.764      116.11      124.13      116.10      50.823      33.766      20.819      13.863      11.033      9.0809    
  7.6247      6.6949      6.1797      5.9542      5.9528      6.1783      6.6964      7.6263      9.0794      11.030    
  13.862      20.818      33.765      50.825      67.145      77.138      77.135      67.139      24.642      17.153    