Zn                                      
   1.00000000000000     
     2.661690    0.000000    0.000000
     1.330845    2.305091    0.000000
     0.000000    0.000000    5.003970
   Zn
     2
Direct
  0.000000  0.000000  0.000000
  0.333333  0.333333  0.500000
 
   24   24   48
 0.60045434612E+03 0.56799977220E+03 0.47985554523E+03 0.35970450386E+03 0.23619328384E+03
 0.13309899184E+03 0.63175860152E+02 0.26716606375E+02 0.14015348362E+02 0.10727018578E+02
 0.87523735303E+01 0.76766189548E+01 0.73432722964E+01 0.76766213116E+01 0.87523746882E+01
 0.10727017122E+02 0.14015347335E+02 0.26716608197E+02 0.63175861813E+02 0.13309898834E+03
 0.23619327561E+03 0.35970449727E+03 0.47985554470E+03 0.56799977475E+03 0.56799977220E+03
 0.50773854510E+03 0.40403679380E+03 0.28348401004E+03 0.17244215798E+03 0.88968430441E+02
 0.39135754590E+02 0.17680105138E+02 0.11937698875E+02 0.95614788036E+01 0.80943660886E+01
 0.74290479887E+01 0.74294934669E+01 0.80949728888E+01 0.95611807322E+01 0.11936865136E+02
 0.17680376596E+02 0.39137941258E+02 0.88971106760E+02 0.17244278270E+03 0.28348132956E+03
 0.40403195932E+03 0.50773412585E+03 0.56799801767E+03 0.47985554523E+03 0.40403679380E+03
 0.30099308320E+03 0.19572396117E+03 0.10889964158E+03 0.51301651321E+02 0.22484852853E+02
 0.13115126996E+02 0.10335380870E+02 0.85388057726E+01 0.75747725399E+01 0.72777711986E+01
 0.75748256882E+01 0.85387251115E+01 0.10335004594E+02 0.13114713602E+02 0.22485195108E+02
 0.51303354117E+02 0.10890199273E+03 0.19572486535E+03 0.30099081821E+03 0.40403212420E+03
 0.47985170076E+03 0.50780266593E+03 0.35970450386E+03 0.28348401004E+03 0.19572396117E+03
 0.11640098124E+03 0.58842469671E+02 0.26659750316E+02 0.14354071633E+02 0.10971263894E+02
 0.89446730349E+01 0.77428801327E+01 0.72075612380E+01 0.72073390634E+01 0.77425874135E+01
 0.89447410146E+01 0.10971264584E+02 0.14353219093E+02 0.26658283885E+02 0.58841823561E+02
 0.11640220974E+03 0.19572642576E+03 0.28348610446E+03 0.35970541726E+03 0.40418900168E+03
 0.40418884100E+03 0.23619328384E+03 0.17244215798E+03 0.10889964158E+03 0.58842469671E+02
 0.28315808927E+02 0.15210294188E+02 0.11387308490E+02 0.92526394526E+01 0.78918610712E+01
 0.71865327100E+01 0.69720968791E+01 0.71866406235E+01 0.78921883918E+01 0.92531012714E+01
 0.11387328209E+02 0.15209045858E+02 0.28313160359E+02 0.58839834784E+02 0.10889947298E+03
 0.17244589343E+03 0.23619946958E+03 0.28369192903E+03 0.30128564924E+03 0.28368716093E+03
 0.13309899184E+03 0.88968430441E+02 0.51301651321E+02 0.26659750316E+02 0.15210294188E+02
 0.11531546922E+02 0.94182076750E+01 0.79920633664E+01 0.71860567215E+01 0.68338136849E+01
 0.68338220571E+01 0.71861814273E+01 0.79925688184E+01 0.94192265544E+01 0.11532544375E+02
 0.15210090601E+02 0.26657669785E+02 0.51298775997E+02 0.88967128676E+02 0.13310060573E+03
 0.17263454103E+03 0.19605648403E+03 0.19605492352E+03 0.17263143094E+03 0.63175860152E+02
 0.39135754590E+02 0.22484852853E+02 0.14354071633E+02 0.11387308490E+02 0.94182076750E+01
 0.80269237147E+01 0.71890058133E+01 0.67629614304E+01 0.66337585449E+01 0.67625478696E+01
 0.71885170941E+01 0.80269970538E+01 0.94194141759E+01 0.11389521679E+02 0.14356192016E+02
 0.22485387416E+02 0.39133899553E+02 0.63172155304E+02 0.89090384453E+02 0.10915576603E+03
 0.11671598050E+03 0.10915827915E+03 0.89094355645E+02 0.26716606375E+02 0.17680105138E+02
 0.13115126996E+02 0.10971263894E+02 0.92526394526E+01 0.79920633664E+01 0.71890058133E+01
 0.67411875142E+01 0.65449652432E+01 0.65448700697E+01 0.67406480861E+01 0.71877982016E+01
 0.79908505867E+01 0.92528262355E+01 0.10973656144E+02 0.13118720393E+02 0.17682442448E+02
 0.26715655131E+02 0.39182576766E+02 0.51429601839E+02 0.59034031470E+02 0.59036015634E+02
 0.51434171016E+02 0.39186612979E+02 0.14015348362E+02 0.11937698875E+02 0.10335380870E+02
 0.89446730349E+01 0.78918610712E+01 0.71860567215E+01 0.67629614304E+01 0.65449652432E+01
 0.64785615981E+01 0.65453604303E+01 0.67629651430E+01 0.71848511707E+01 0.78895740315E+01
 0.89426695922E+01 0.10335315431E+02 0.11939973354E+02 0.14018536097E+02 0.17674472676E+02
 0.22501800674E+02 0.26708870693E+02 0.28380492965E+02 0.26709483563E+02 0.22501608164E+02
 0.17672408362E+02 0.10727018578E+02 0.95614788036E+01 0.85388057726E+01 0.77428801327E+01
 0.71865327100E+01 0.68338136849E+01 0.66337585449E+01 0.65448700697E+01 0.65453604303E+01
 0.66350505608E+01 0.68351294210E+01 0.71864908795E+01 0.77405716765E+01 0.85351020760E+01
 0.95587886803E+01 0.10727309463E+02 0.11895325590E+02 0.13055555984E+02 0.14293122459E+02
 0.15152563420E+02 0.15151523369E+02 0.14290158866E+02 0.13051555097E+02 0.11892218388E+02
 0.87523735303E+01 0.80943660886E+01 0.75747725399E+01 0.72075612380E+01 0.69720968791E+01
 0.68338220571E+01 0.67625478696E+01 0.67406480861E+01 0.67629651430E+01 0.68351294210E+01
 0.69742962034E+01 0.72095212358E+01 0.75748679510E+01 0.80919916204E+01 0.87488121960E+01
 0.94880975794E+01 0.10215887485E+02 0.10826491337E+02 0.11230031728E+02 0.11369853036E+02
 0.11227845596E+02 0.10824106129E+02 0.10215576048E+02 0.94904853417E+01 0.76766189548E+01
 0.74290479887E+01 0.72777711986E+01 0.72073390634E+01 0.71866406236E+01 0.71861814273E+01
 0.71885170941E+01 0.71877982016E+01 0.71848511707E+01 0.71864908795E+01 0.72095212358E+01
 0.72815021438E+01 0.74319094656E+01 0.76765041475E+01 0.80043667812E+01 0.83755967457E+01
 0.87309969125E+01 0.90087032306E+01 0.91601597398E+01 0.91599706201E+01 0.90089745029E+01
 0.87330639564E+01 0.83792161695E+01 0.80073454443E+01 0.73432722964E+01 0.74294934669E+01
 0.75748256882E+01 0.77425874135E+01 0.78921883918E+01 0.79925688184E+01 0.80269970538E+01
 0.79908505867E+01 0.78895740315E+01 0.77405716765E+01 0.75748679510E+01 0.74319094656E+01
 0.73467396676E+01 0.73361424042E+01 0.73921062860E+01 0.74864877281E+01 0.75838079806E+01
 0.76542795006E+01 0.76802521785E+01 0.76559921010E+01 0.75864156525E+01 0.74885005770E+01
 0.73920657092E+01 0.73337291488E+01 0.76766213116E+01 0.80949728888E+01 0.85387251115E+01
 0.89447410146E+01 0.92531012714E+01 0.94192265544E+01 0.94194141759E+01 0.92528262355E+01
 0.89426695922E+01 0.85351020760E+01 0.80919916204E+01 0.76765041475E+01 0.73361424042E+01
 0.70912131316E+01 0.69348628201E+01 0.68443925258E+01 0.67963431653E+01 0.67757918255E+01
 0.67765108454E+01 0.67976741376E+01 0.68445441336E+01 0.69326836488E+01 0.70874855516E+01
 0.73332838174E+01 0.87523746882E+01 0.95611807322E+01 0.10335004594E+02 0.10971264584E+02
 0.11387328209E+02 0.11532544375E+02 0.11389521679E+02 0.10973656144E+02 0.10335315431E+02
 0.95587886803E+01 0.87488121960E+01 0.80043667812E+01 0.73921062860E+01 0.69348628201E+01
 0.66203216927E+01 0.64209816496E+01 0.63115703759E+01 0.62766780334E+01 0.63111533510E+01
 0.64196774073E+01 0.66181281279E+01 0.69329065744E+01 0.73920096066E+01 0.80067384562E+01
 0.10727017122E+02 0.11936865136E+02 0.13114713602E+02 0.14353219093E+02 0.15209045858E+02
 0.15210090601E+02 0.14356192016E+02 0.13118720393E+02 0.11939973354E+02 0.10727309463E+02
 0.94880975794E+01 0.83755967457E+01 0.74864877281E+01 0.68443925258E+01 0.64209816496E+01
 0.61705861122E+01 0.60551912535E+01 0.60546988066E+01 0.61692908776E+01 0.64196659763E+01
 0.68444365587E+01 0.74887953415E+01 0.83792951496E+01 0.94907825538E+01 0.14015347335E+02
 0.17680376596E+02 0.22485195108E+02 0.26658283885E+02 0.28313160359E+02 0.26657669785E+02
 0.22485387416E+02 0.17682442448E+02 0.14018536097E+02 0.11895325590E+02 0.10215887485E+02
 0.87309969125E+01 0.75838079806E+01 0.67963431653E+01 0.63115703759E+01 0.60551912535E+01
 0.59753466131E+01 0.60547979719E+01 0.63115663915E+01 0.67975440377E+01 0.75860890282E+01
 0.87329976351E+01 0.10215953884E+02 0.11893052206E+02 0.26716608197E+02 0.39137941258E+02
 0.51303354117E+02 0.58841823561E+02 0.58839834784E+02 0.51298775997E+02 0.39133899553E+02
 0.26715655131E+02 0.17674472676E+02 0.13055555984E+02 0.10826491337E+02 0.90087032306E+01
 0.76542795006E+01 0.67757918255E+01 0.62766780334E+01 0.60546988066E+01 0.60547979719E+01
 0.62772237808E+01 0.67769991538E+01 0.76554857969E+01 0.90085128153E+01 0.10824103493E+02
 0.13051970143E+02 0.17672139418E+02 0.63175861813E+02 0.88971106760E+02 0.10890199273E+03
 0.11640220974E+03 0.10889947298E+03 0.88967128676E+02 0.63172155304E+02 0.39182576766E+02
 0.22501800674E+02 0.14293122459E+02 0.11230031728E+02 0.91601597398E+01 0.76802521785E+01
 0.67765108454E+01 0.63111533510E+01 0.61692908776E+01 0.63115663915E+01 0.67769991538E+01
 0.76801800878E+01 0.91589573329E+01 0.11227824015E+02 0.14291005156E+02 0.22501264847E+02
 0.39184429309E+02 0.13309898834E+03 0.17244278270E+03 0.19572486535E+03 0.19572642576E+03
 0.17244589343E+03 0.13310060573E+03 0.89090384453E+02 0.51429601839E+02 0.26708870693E+02
 0.15152563420E+02 0.11369853036E+02 0.91599706201E+01 0.76559921010E+01 0.67976741376E+01
 0.64196774073E+01 0.64196659763E+01 0.67975440377E+01 0.76554857969E+01 0.91589573329E+01
 0.11368862289E+02 0.15152767974E+02 0.26710944792E+02 0.51432467518E+02 0.89091678610E+02
 0.23619327561E+03 0.28348132956E+03 0.30099081821E+03 0.28348610446E+03 0.23619946958E+03
 0.17263454103E+03 0.10915576603E+03 0.59034031470E+02 0.28380492965E+02 0.15151523369E+02
 0.11227845596E+02 0.90089745029E+01 0.75864156525E+01 0.68445441336E+01 0.66181281279E+01
 0.68444365587E+01 0.75860890282E+01 0.90085128153E+01 0.11227824015E+02 0.15152767974E+02
 0.28383138165E+02 0.59036664892E+02 0.10915593325E+03 0.17263080082E+03 0.35970449727E+03
 0.40403195932E+03 0.40403212420E+03 0.35970541726E+03 0.28369192903E+03 0.19605648403E+03
 0.11671598050E+03 0.59036015634E+02 0.26709483563E+02 0.14290158866E+02 0.10824106129E+02
 0.87330639564E+01 0.74885005770E+01 0.69326836488E+01 0.69329065744E+01 0.74887953415E+01
 0.87329976351E+01 0.10824103493E+02 0.14291005156E+02 0.26710944792E+02 0.59036664892E+02
 0.11671476370E+03 0.19605403049E+03 0.28368983598E+03 0.47985554470E+03 0.50773412585E+03
 0.47985170076E+03 0.40418900168E+03 0.30128564924E+03 0.19605492352E+03 0.10915827915E+03
 0.51434171016E+02 0.22501608164E+02 0.13051555097E+02 0.10215576048E+02 0.83792161695E+01
 0.73920657092E+01 0.70874855516E+01 0.73920096066E+01 0.83792951496E+01 0.10215953884E+02
 0.13051970143E+02 0.22501264847E+02 0.51432467518E+02 0.10915593325E+03 0.19605403049E+03
 0.30128792453E+03 0.40419367522E+03 0.56799977475E+03 0.56799801767E+03 0.50780266593E+03
 0.40418884100E+03 0.28368716093E+03 0.17263143094E+03 0.89094355645E+02 0.39186612979E+02
 0.17672408362E+02 0.11892218388E+02 0.94904853417E+01 0.80073454443E+01 0.73337291488E+01
 0.73332838174E+01 0.80067384562E+01 0.94907825538E+01 0.11893052206E+02 0.17672139418E+02
 0.39184429309E+02 0.89091678610E+02 0.17263080082E+03 0.28368983598E+03 0.40419367522E+03
 0.50780708932E+03 0.57199868064E+03 0.54093365585E+03 0.45658550296E+03 0.34168247824E+03
 0.22374148140E+03 0.12560185382E+03 0.59439185609E+02 0.25332474943E+02 0.13680973127E+02
 0.10558010592E+02 0.86306612331E+01 0.75859659733E+01 0.72618538163E+01 0.75844537201E+01
 0.86306249873E+01 0.10559495064E+02 0.13680971832E+02 0.25330796649E+02 0.59438680394E+02
 0.12560279755E+03 0.22374147394E+03 0.34168182427E+03 0.45658681092E+03 0.54093611600E+03
 0.54093365585E+03 0.48326466698E+03 0.38406712891E+03 0.26887159067E+03 0.16300533049E+03
 0.83780466140E+02 0.36888009082E+02 0.17018818434E+02 0.11749359692E+02 0.94207966175E+01
 0.79935201362E+01 0.73477319885E+01 0.73471474532E+01 0.79930818533E+01 0.94215115781E+01
 0.11749583466E+02 0.17018065770E+02 0.36888978066E+02 0.83783799972E+02 0.16300674877E+03
 0.26886808907E+03 0.38406184878E+03 0.48326186022E+03 0.54093316646E+03 0.45658550296E+03
 0.38406712891E+03 0.28559187013E+03 0.18517323798E+03 0.10264980172E+03 0.48280545570E+02
 0.21427501041E+02 0.12862355284E+02 0.10178775099E+02 0.84267669825E+01 0.74907857360E+01
 0.72020426827E+01 0.74895708897E+01 0.84267147799E+01 0.10179722020E+02 0.12862026986E+02
 0.21426758260E+02 0.48282548050E+02 0.10265364317E+03 0.18517399033E+03 0.28558773876E+03
 0.38406169388E+03 0.45658240887E+03 0.48332514638E+03 0.34168247824E+03 0.26887159067E+03
 0.18517323798E+03 0.10976140067E+03 0.55365306811E+02 0.25283544902E+02 0.13993455702E+02
 0.10803848864E+02 0.88228664469E+01 0.76546469478E+01 0.71350761082E+01 0.71341014214E+01
 0.76536175602E+01 0.88236960812E+01 0.10804555234E+02 0.13991874121E+02 0.25281682737E+02
 0.55366062604E+02 0.10976378333E+03 0.18517456923E+03 0.26887185603E+03 0.34168303478E+03
 0.38420928910E+03 0.38420883498E+03 0.22374148140E+03 0.16300533049E+03 0.10264980172E+03
 0.55365306811E+02 0.26817960931E+02 0.14771714055E+02 0.11214172812E+02 0.91240653647E+01
 0.77994282683E+01 0.71147387194E+01 0.69061894634E+01 0.71139640253E+01 0.77997374670E+01
 0.91252965029E+01 0.11213955503E+02 0.14769392430E+02 0.26815412283E+02 0.55363944446E+02
 0.10265001037E+03 0.16300826481E+03 0.22374747481E+03 0.26906532379E+03 0.28586390661E+03
 0.26905988097E+03 0.12560185382E+03 0.83780466140E+02 0.48280545570E+02 0.25283544902E+02
 0.14771714055E+02 0.11356711311E+02 0.92863112736E+01 0.78966933293E+01 0.71136580217E+01
 0.67715301998E+01 0.67710536432E+01 0.71133113681E+01 0.78977025805E+01 0.92877461317E+01
 0.11356945965E+02 0.14770552246E+02 0.25281519726E+02 0.48278112387E+02 0.83779204947E+02
 0.12560391125E+03 0.16318394294E+03 0.18548148373E+03 0.18547907943E+03 0.16317946898E+03
 0.59439185609E+02 0.36888009082E+02 0.21427501041E+02 0.13993455702E+02 0.11214172812E+02
 0.92863112736E+01 0.79305194395E+01 0.71159240750E+01 0.67019820756E+01 0.65761088740E+01
 0.67010919498E+01 0.71155204455E+01 0.79312873924E+01 0.92877361943E+01 0.11215845963E+02
 0.13995078831E+02 0.21427830615E+02 0.36885830778E+02 0.59435396296E+02 0.83891356225E+02
 0.10288441105E+03 0.11004992803E+03 0.10288571551E+03 0.83894433839E+02 0.25332474943E+02
 0.17018818434E+02 0.12862355284E+02 0.10803848864E+02 0.91240653647E+01 0.78966933293E+01
 0.71159240750E+01 0.66804686421E+01 0.64893386481E+01 0.64890049175E+01 0.66796758891E+01
 0.71149989752E+01 0.78960084178E+01 0.91245291378E+01 0.10806364676E+02 0.12866056660E+02
 0.17020882893E+02 0.25330769395E+02 0.36926474823E+02 0.48392114358E+02 0.55535003659E+02
 0.55536799755E+02 0.48396602282E+02 0.36931068488E+02 0.13680973127E+02 0.11749359692E+02
 0.10178775099E+02 0.88228664469E+01 0.77994282683E+01 0.71136580217E+01 0.67019820756E+01
 0.64893386481E+01 0.64243396026E+01 0.64895011086E+01 0.67017858176E+01 0.71124098735E+01
 0.77972234681E+01 0.88211841158E+01 0.10179354368E+02 0.11752214296E+02 0.13684076676E+02
 0.17007618292E+02 0.21432957585E+02 0.25316550425E+02 0.26864907737E+02 0.25317706096E+02
 0.21433700559E+02 0.17006352147E+02 0.10558010592E+02 0.94207966175E+01 0.84267669825E+01
 0.76546469478E+01 0.71147387194E+01 0.67715301998E+01 0.65761088740E+01 0.64890049175E+01
 0.64895011086E+01 0.65773293517E+01 0.67725512941E+01 0.71142147205E+01 0.76519693281E+01
 0.84231513260E+01 0.94186879296E+01 0.10558994274E+02 0.11703878494E+02 0.12795290099E+02
 0.13921106741E+02 0.14700394010E+02 0.14699606704E+02 0.13918656671E+02 0.12791551115E+02
 0.11700468750E+02 0.86306612331E+01 0.79935201362E+01 0.74907857360E+01 0.71350761082E+01
 0.69061894634E+01 0.67710536432E+01 0.67010919498E+01 0.66796758891E+01 0.67017858176E+01
 0.67725512941E+01 0.69082119721E+01 0.71365393347E+01 0.74902942959E+01 0.79907410560E+01
 0.86271428608E+01 0.93451634230E+01 0.10054138494E+02 0.10650799257E+02 0.11046189578E+02
 0.11183392384E+02 0.11043873757E+02 0.10647963643E+02 0.10053122130E+02 0.93470111195E+01
 0.75859659733E+01 0.73477319885E+01 0.72020426827E+01 0.71341014214E+01 0.71139640253E+01
 0.71133113681E+01 0.71155204455E+01 0.71149989752E+01 0.71124098735E+01 0.71142147205E+01
 0.71365393347E+01 0.72057571355E+01 0.73501253915E+01 0.75850851909E+01 0.79007043565E+01
 0.82589389146E+01 0.86026288514E+01 0.88716283741E+01 0.90184484657E+01 0.90180667226E+01
 0.88713482557E+01 0.86040498019E+01 0.82623500456E+01 0.79041630882E+01 0.72618538163E+01
 0.73471474532E+01 0.74895708897E+01 0.76536175602E+01 0.77997374670E+01 0.78977025805E+01
 0.79312873924E+01 0.78960084178E+01 0.77972234681E+01 0.76519693281E+01 0.74902942959E+01
 0.73501253915E+01 0.72652211992E+01 0.72520597041E+01 0.73032881883E+01 0.73919208960E+01
 0.74838087894E+01 0.75504256144E+01 0.75749792573E+01 0.75520272446E+01 0.74863164669E+01
 0.73941462678E+01 0.73039123454E+01 0.72503431179E+01 0.75844537201E+01 0.79930818533E+01
 0.84267147799E+01 0.88236960812E+01 0.91252965029E+01 0.92877461317E+01 0.92877361943E+01
 0.91245291378E+01 0.88211841158E+01 0.84231513260E+01 0.79907410560E+01 0.75850851909E+01
 0.72520597041E+01 0.70113298756E+01 0.68563275849E+01 0.67652584313E+01 0.67158906823E+01
 0.66944446126E+01 0.66953085301E+01 0.67175805760E+01 0.67658597571E+01 0.68545818999E+01
 0.70077962030E+01 0.72488837142E+01 0.86306249873E+01 0.94215115781E+01 0.10179722020E+02
 0.10804555234E+02 0.11213955503E+02 0.11356945965E+02 0.11215845963E+02 0.10806364676E+02
 0.10179354368E+02 0.94186879296E+01 0.86271428608E+01 0.79007043565E+01 0.73032881883E+01
 0.68563275849E+01 0.65476708251E+01 0.63510230997E+01 0.62425857597E+01 0.62080237386E+01
 0.62424739898E+01 0.63500679022E+01 0.65455415782E+01 0.68540009663E+01 0.73025444926E+01
 0.79025375056E+01 0.10559495064E+02 0.11749583466E+02 0.12862026986E+02 0.13991874121E+02
 0.14769392430E+02 0.14770552246E+02 0.13995078831E+02 0.12866056660E+02 0.11752214296E+02
 0.10558994274E+02 0.93451634230E+01 0.82589389146E+01 0.73919208960E+01 0.67652584313E+01
 0.63510230997E+01 0.61053225547E+01 0.59918086213E+01 0.59913128537E+01 0.61040082328E+01
 0.63495549691E+01 0.67648481106E+01 0.73936300054E+01 0.82624290488E+01 0.93483305423E+01
 0.13680971832E+02 0.17018065770E+02 0.21426758260E+02 0.25281682737E+02 0.26815412283E+02
 0.25281519726E+02 0.21427830615E+02 0.17020882893E+02 0.13684076676E+02 0.11703878494E+02
 0.10054138494E+02 0.86026288514E+01 0.74838087894E+01 0.67158906823E+01 0.62425857597E+01
 0.59918086213E+01 0.59134321887E+01 0.59910703877E+01 0.62423122003E+01 0.67170074797E+01
 0.74860082265E+01 0.86047347946E+01 0.10054831306E+02 0.11702380196E+02 0.25330796649E+02
 0.36888978066E+02 0.48282548050E+02 0.55366062604E+02 0.55363944446E+02 0.48278112387E+02
 0.36885830778E+02 0.25330769395E+02 0.17007618292E+02 0.12795290099E+02 0.10650799257E+02
 0.88716283741E+01 0.75504256144E+01 0.66944446126E+01 0.62080237386E+01 0.59913128537E+01
 0.59910703877E+01 0.62081483472E+01 0.66958767758E+01 0.75521608028E+01 0.88717104742E+01
 0.10648646834E+02 0.12792075241E+02 0.17005165328E+02 0.59438680394E+02 0.83783799972E+02
 0.10265364317E+03 0.10976378333E+03 0.10265001037E+03 0.83779204947E+02 0.59435396296E+02
 0.36926474823E+02 0.21432957585E+02 0.13921106741E+02 0.11046189578E+02 0.90184484657E+01
 0.75749792573E+01 0.66953085301E+01 0.62424739898E+01 0.61040082328E+01 0.62423122003E+01
 0.66958767758E+01 0.75757330570E+01 0.90175950979E+01 0.11043544922E+02 0.13918648361E+02
 0.21432332506E+02 0.36927873223E+02 0.12560279755E+03 0.16300674877E+03 0.18517399033E+03
 0.18517456923E+03 0.16300826481E+03 0.12560391125E+03 0.83891356225E+02 0.48392114358E+02
 0.25316550425E+02 0.14700394010E+02 0.11183392384E+02 0.90180667226E+01 0.75520272446E+01
 0.67175805760E+01 0.63500679022E+01 0.63495549691E+01 0.67170074797E+01 0.75521608028E+01
 0.90175950979E+01 0.11181636945E+02 0.14699569913E+02 0.25318618420E+02 0.48395332095E+02
 0.83892595410E+02 0.22374147394E+03 0.26886808907E+03 0.28558773876E+03 0.26887185603E+03
 0.22374747481E+03 0.16318394294E+03 0.10288441105E+03 0.55535003659E+02 0.26864907737E+02
 0.14699606704E+02 0.11043873757E+02 0.88713482557E+01 0.74863164669E+01 0.67658597571E+01
 0.65455415782E+01 0.67648481106E+01 0.74860082265E+01 0.88717104742E+01 0.11043544922E+02
 0.14699569913E+02 0.26867453232E+02 0.55538824473E+02 0.10288500251E+03 0.16317962106E+03
 0.34168182427E+03 0.38406184878E+03 0.38406169388E+03 0.34168303478E+03 0.26906532379E+03
 0.18548148373E+03 0.11004992803E+03 0.55536799755E+02 0.25317706096E+02 0.13918656671E+02
 0.10647963643E+02 0.86040498019E+01 0.73941462678E+01 0.68545818999E+01 0.68540009663E+01
 0.73936300054E+01 0.86047347946E+01 0.10648646834E+02 0.13918648361E+02 0.25318618420E+02
 0.55538824473E+02 0.11004997859E+03 0.18547803843E+03 0.26906150373E+03 0.45658681092E+03
 0.48326186022E+03 0.45658240887E+03 0.38420928910E+03 0.28586390661E+03 0.18547907943E+03
 0.10288571551E+03 0.48396602282E+02 0.21433700559E+02 0.12791551115E+02 0.10053122130E+02
 0.82623500456E+01 0.73039123454E+01 0.70077962030E+01 0.73025444926E+01 0.82624290488E+01
 0.10054831306E+02 0.12792075241E+02 0.21432332506E+02 0.48395332095E+02 0.10288500251E+03
 0.18547803843E+03 0.28586412202E+03 0.38421291782E+03 0.54093611600E+03 0.54093316646E+03
 0.48332514638E+03 0.38420883498E+03 0.26905988097E+03 0.16317946898E+03 0.83894433839E+02
 0.36931068488E+02 0.17006352147E+02 0.11700468750E+02 0.93470111195E+01 0.79041630882E+01
 0.72503431179E+01 0.72488837142E+01 0.79025375056E+01 0.93483305423E+01 0.11702380196E+02
 0.17005165328E+02 0.36927873223E+02 0.83892595410E+02 0.16317962106E+03 0.26906150373E+03
 0.38421291782E+03 0.48333096391E+03 0.49370040263E+03 0.46647670951E+03 0.39262402690E+03
 0.29224896966E+03 0.18974316733E+03 0.10531694454E+03 0.49500129941E+02 0.21764431969E+02
 0.12827324129E+02 0.10072196547E+02 0.82815717623E+01 0.73238312792E+01 0.70272015706E+01
 0.73209424443E+01 0.82814915901E+01 0.10075015723E+02 0.12827322165E+02 0.21761252391E+02
 0.49499199916E+02 0.10531877142E+03 0.18974316204E+03 0.29224771720E+03 0.39262651310E+03
 0.46648139683E+03 0.46647670951E+03 0.41597361300E+03 0.32923846751E+03 0.22888391955E+03
 0.13735576108E+03 0.69860672183E+02 0.31000578986E+02 0.15349473589E+02 0.11203781845E+02
 0.90176198569E+01 0.77027655498E+01 0.71122308728E+01 0.71106816575E+01 0.77013362546E+01
 0.90192678598E+01 0.11205009543E+02 0.15347756730E+02 0.31000281096E+02 0.69864422048E+02
 0.13735787094E+03 0.22887985309E+03 0.32923306590E+03 0.41597249953E+03 0.46647745259E+03
 0.39262402690E+03 0.32923846751E+03 0.24341733955E+03 0.15643895471E+03 0.85806343563E+02
 0.40295004192E+02 0.18726324658E+02 0.12197353534E+02 0.97286689993E+01 0.81048046907E+01
 0.72472223037E+01 0.69829602575E+01 0.72448666382E+01 0.81047976847E+01 0.97308496574E+01
 0.12197127614E+02 0.18724549479E+02 0.40297120866E+02 0.85811353253E+02 0.15643952224E+03
 0.24341168588E+03 0.32923263213E+03 0.39262183428E+03 0.41602341927E+03 0.29224896966E+03
 0.22888391955E+03 0.15643895471E+03 0.91843230550E+02 0.46136814798E+02 0.21737867666E+02
 0.13078652951E+02 0.10320072707E+02 0.84732640427E+01 0.73993306288E+01 0.69241089990E+01
 0.69224820634E+01 0.73976764916E+01 0.84747894190E+01 0.10321430968E+02 0.13076488511E+02
 0.21735741352E+02 0.46138848639E+02 0.91846562424E+02 0.15643913566E+03 0.22888244365E+03
 0.29224916392E+03 0.32935379735E+03 0.32935308809E+03 0.18974316733E+03 0.13735576108E+03
 0.85806343563E+02 0.46136814798E+02 0.22948082122E+02 0.13665977583E+02 0.10711254820E+02
 0.87547017451E+01 0.75329104218E+01 0.69055562143E+01 0.67143217503E+01 0.69039913903E+01
 0.75331696183E+01 0.87565721162E+01 0.10710839309E+02 0.13662819668E+02 0.22945817809E+02
 0.46136758343E+02 0.85806909726E+02 0.13735776568E+03 0.18974860294E+03 0.22903960332E+03
 0.24363540298E+03 0.22903387194E+03 0.10531694454E+03 0.69860672183E+02 0.40295004192E+02
 0.21737867666E+02 0.13665977583E+02 0.10847761880E+02 0.89069089813E+01 0.76224817202E+01
 0.69033431779E+01 0.65894648603E+01 0.65885630294E+01 0.69025581480E+01 0.76238553834E+01
 0.89086096447E+01 0.10847274066E+02 0.13664014028E+02 0.21736024294E+02 0.40293128331E+02
 0.69859529638E+02 0.10531929314E+03 0.13749614024E+03 0.15668171987E+03 0.15667868337E+03
 0.13749067703E+03 0.49500129941E+02 0.31000578986E+02 0.18726324658E+02 0.13078652951E+02
 0.10711254820E+02 0.89069089813E+01 0.76536197132E+01 0.69042881786E+01 0.65236603751E+01
 0.64075517806E+01 0.65224139418E+01 0.69039909686E+01 0.76549491240E+01 0.89084271533E+01
 0.10712328470E+02 0.13079697013E+02 0.18726390761E+02 0.30998198801E+02 0.49496507160E+02
 0.69941159988E+02 0.85981967543E+02 0.92060403513E+02 0.85982056607E+02 0.69943190640E+02
 0.21764431969E+02 0.15349473589E+02 0.12197353534E+02 0.10320072707E+02 0.87547017451E+01
 0.76224817202E+01 0.69042881786E+01 0.65029895492E+01 0.63261955984E+01 0.63257008137E+01
 0.65020739916E+01 0.69036981271E+01 0.76223209347E+01 0.87554102151E+01 0.10322560486E+02
 0.12200893408E+02 0.15351114305E+02 0.21762133521E+02 0.31017868714E+02 0.40362836867E+02
 0.46247462709E+02 0.46248976653E+02 0.40366962689E+02 0.31022667683E+02 0.12827324129E+02
 0.11203781845E+02 0.97286689993E+01 0.84732640427E+01 0.75329104218E+01 0.69033431779E+01
 0.65236603751E+01 0.63261955984E+01 0.62654671730E+01 0.63261667612E+01 0.65233089577E+01
 0.69021312843E+01 0.75309413050E+01 0.84720264048E+01 0.97298254868E+01 0.11206991679E+02
 0.12830177356E+02 0.15324393360E+02 0.18702295747E+02 0.21728525497E+02 0.22947747066E+02
 0.21730155205E+02 0.18703873163E+02 0.15323914027E+02 0.10072196547E+02 0.90176198569E+01
 0.81048046907E+01 0.73993306288E+01 0.69055562143E+01 0.65894648603E+01 0.64075517806E+01
 0.63257008137E+01 0.63261667612E+01 0.64086053316E+01 0.65901093512E+01 0.69046024284E+01
 0.73964994063E+01 0.81015151268E+01 0.90161813445E+01 0.10073779304E+02 0.11149052615E+02
 0.12110075951E+02 0.12976276726E+02 0.13558870851E+02 0.13558404585E+02 0.12974510662E+02
 0.12106808611E+02 0.11145532818E+02 0.82815717623E+01 0.77027655498E+01 0.72472223037E+01
 0.69241089990E+01 0.67143217503E+01 0.65885630294E+01 0.65224139418E+01 0.65020739916E+01
 0.65233089577E+01 0.65901093512E+01 0.67160129316E+01 0.69249988275E+01 0.72462076256E+01
 0.76997639157E+01 0.82782958207E+01 0.89351638969E+01 0.95889995394E+01 0.10143877299E+02
 0.10514235540E+02 0.10643319457E+02 0.10511982170E+02 0.10140819297E+02 0.95873732780E+01
 0.89363820063E+01 0.73238312792E+01 0.71122308728E+01 0.69829602575E+01 0.69224820634E+01
 0.69039913903E+01 0.69025581480E+01 0.69039909686E+01 0.69036981271E+01 0.69021312843E+01
 0.69046024284E+01 0.69249988275E+01 0.69864226821E+01 0.71140278787E+01 0.73222672733E+01
 0.76034892830E+01 0.79246713186E+01 0.82347060314E+01 0.84786688799E+01 0.86122894563E+01
 0.86117549959E+01 0.84778920238E+01 0.82354269312E+01 0.79276748060E+01 0.76071997656E+01
 0.70272015706E+01 0.71106816575E+01 0.72448666382E+01 0.73976764916E+01 0.75331696183E+01
 0.76238553834E+01 0.76549491240E+01 0.76223209347E+01 0.75309413050E+01 0.73964994063E+01
 0.72462076256E+01 0.71140278787E+01 0.70302753193E+01 0.70102458637E+01 0.70481500697E+01
 0.71204977462E+01 0.71972408895E+01 0.72533261316E+01 0.72740619856E+01 0.72546928412E+01
 0.71994643484E+01 0.71227764840E+01 0.70493786972E+01 0.70093063726E+01 0.73209424443E+01
 0.77013362546E+01 0.81047976847E+01 0.84747894190E+01 0.87565721162E+01 0.89086096447E+01
 0.89084271533E+01 0.87554102151E+01 0.84720264048E+01 0.81015151268E+01 0.76997639157E+01
 0.73222672733E+01 0.70102458637E+01 0.67814140324E+01 0.66301574686E+01 0.65375541233E+01
 0.64848083959E+01 0.64609572736E+01 0.64618850617E+01 0.64866934577E+01 0.65385215121E+01
 0.66289400749E+01 0.67783008795E+01 0.70069620052E+01 0.82814915901E+01 0.90192678598E+01
 0.97308496574E+01 0.10321430968E+02 0.10710839309E+02 0.10847274066E+02 0.10712328470E+02
 0.10322560486E+02 0.97298254868E+01 0.90161813445E+01 0.82782958207E+01 0.76034892830E+01
 0.70481500697E+01 0.66301574686E+01 0.63381160486E+01 0.61491598642E+01 0.60434649739E+01
 0.60095996741E+01 0.60436647758E+01 0.61486088234E+01 0.63361853290E+01 0.66276264963E+01
 0.70468388361E+01 0.76046940328E+01 0.10075015723E+02 0.11205009543E+02 0.12197127614E+02
 0.13076488511E+02 0.13662819668E+02 0.13664014028E+02 0.13079697013E+02 0.12200893408E+02
 0.11206991679E+02 0.10073779304E+02 0.89351638969E+01 0.79246713186E+01 0.71204977462E+01
 0.65375541233E+01 0.61491598642E+01 0.59164692053E+01 0.58080942843E+01 0.58076609597E+01
 0.59152792682E+01 0.61476599622E+01 0.65367212663E+01 0.71215195057E+01 0.79277501117E+01
 0.89385982671E+01 0.12827322165E+02 0.15347756730E+02 0.18724549479E+02 0.21735741352E+02
 0.22945817809E+02 0.21736024294E+02 0.18726390761E+02 0.15351114305E+02 0.12830177356E+02
 0.11149052615E+02 0.95889995394E+01 0.82347060314E+01 0.71972408895E+01 0.64848083959E+01
 0.60434649739E+01 0.58080942843E+01 0.57340808655E+01 0.58071127754E+01 0.60429655753E+01
 0.64857469555E+01 0.71992064570E+01 0.82367934138E+01 0.95902494927E+01 0.11148359691E+02
 0.21761252391E+02 0.31000281096E+02 0.40297120866E+02 0.46138848639E+02 0.46136758343E+02
 0.40293128331E+02 0.30998198801E+02 0.21762133521E+02 0.15324393360E+02 0.12110075951E+02
 0.10143877299E+02 0.84786688799E+01 0.72533261316E+01 0.64609572736E+01 0.60095996741E+01
 0.58076609597E+01 0.58071127754E+01 0.60093037527E+01 0.64624706417E+01 0.72554288630E+01
 0.84790286492E+01 0.10142112489E+02 0.12107396833E+02 0.15321936009E+02 0.49499199916E+02
 0.69864422048E+02 0.85811353253E+02 0.91846562424E+02 0.85806909726E+02 0.69859529638E+02
 0.49496507160E+02 0.31017868714E+02 0.18702295747E+02 0.12976276726E+02 0.10514235540E+02
 0.86122894563E+01 0.72740619856E+01 0.64618850617E+01 0.60436647758E+01 0.59152792682E+01
 0.60429655753E+01 0.64624706417E+01 0.72755282999E+01 0.86118363499E+01 0.10511382964E+02
 0.12973661831E+02 0.18701606651E+02 0.31018743190E+02 0.10531877142E+03 0.13735787094E+03
 0.15643952224E+03 0.15643913566E+03 0.13735776568E+03 0.10531929314E+03 0.69941159988E+02
 0.40362836867E+02 0.21728525497E+02 0.13558870851E+02 0.10643319457E+02 0.86117549959E+01
 0.72546928412E+01 0.64866934577E+01 0.61486088234E+01 0.61476599622E+01 0.64857469555E+01
 0.72554288630E+01 0.86118363499E+01 0.10640968203E+02 0.13557130721E+02 0.21730450509E+02