   2   2   0   0
  0.1535077E+02  0.2661690E-09  0.2661690E-09  0.5003970E-09  0.5000000E-15
  1.000000000000000E-004
  CAR 
 Zn                                      
     74.46386407    -11.17892295  301      3.25984152      1.00000000
    -11.179  0.0000E+00  0.0000E+00
    -10.893  0.0000E+00  0.0000E+00
    -10.608  0.0000E+00  0.0000E+00
    -10.322  0.0000E+00  0.0000E+00
    -10.037  0.0000E+00  0.0000E+00
     -9.752  0.0000E+00  0.0000E+00
     -9.466  0.0000E+00  0.0000E+00
     -9.181  0.0000E+00  0.0000E+00
     -8.895  0.0000E+00  0.0000E+00
     -8.610  0.0000E+00  0.0000E+00
     -8.324  0.0000E+00  0.0000E+00
     -8.039  0.0000E+00  0.0000E+00
     -7.753  0.0000E+00  0.0000E+00
     -7.468  0.5632E-09  0.1608E-09
     -7.182  0.1230E-01  0.3512E-02
     -6.897  0.1234E+00  0.3875E-01
     -6.611  0.1316E+00  0.7633E-01
     -6.326  0.2462E+00  0.1466E+00
     -6.040  0.1898E+00  0.2008E+00
     -5.755  0.3943E+00  0.3134E+00
     -5.469  0.6270E+00  0.4924E+00
     -5.184  0.4496E+01  0.1776E+01
     -4.898  0.1071E+02  0.4832E+01
     -4.613  0.1345E+02  0.8673E+01
     -4.327  0.1502E+02  0.1296E+02
     -4.042  0.1836E+02  0.1820E+02
     -3.757  0.8094E+01  0.2051E+02
     -3.471  0.6546E+00  0.2070E+02
     -3.186  0.4657E+00  0.2083E+02
     -2.900  0.3780E+00  0.2094E+02
     -2.615  0.3052E+00  0.2103E+02
     -2.329  0.6442E+00  0.2121E+02
     -2.044  0.4692E+00  0.2135E+02
     -1.758  0.3448E+00  0.2144E+02
     -1.473  0.3802E+00  0.2155E+02
     -1.187  0.5220E+00  0.2170E+02
     -0.902  0.3632E+00  0.2181E+02
     -0.616  0.6485E+00  0.2199E+02
     -0.331  0.5773E+00  0.2216E+02
     -0.045  0.5101E+00  0.2230E+02
      0.240  0.5594E+00  0.2246E+02
      0.526  0.4785E+00  0.2260E+02
      0.811  0.2961E+00  0.2268E+02
      1.097  0.8801E+00  0.2293E+02
      1.382  0.5915E+00  0.2310E+02
      1.667  0.7110E+00  0.2331E+02
      1.953  0.4972E+00  0.2345E+02
      2.238  0.7900E+00  0.2367E+02
      2.524  0.3666E+00  0.2378E+02
      2.809  0.3225E+00  0.2387E+02
      3.095  0.2838E+00  0.2395E+02
      3.380  0.5649E+00  0.2411E+02
      3.666  0.8740E+00  0.2436E+02
      3.951  0.4795E+00  0.2450E+02
      4.237  0.5285E+00  0.2465E+02
      4.522  0.6856E+00  0.2485E+02
      4.808  0.8321E+00  0.2508E+02
      5.093  0.7030E+00  0.2528E+02
      5.379  0.6185E+00  0.2546E+02
      5.664  0.7150E+00  0.2566E+02
      5.950  0.6504E+00  0.2585E+02
      6.235  0.1079E+01  0.2616E+02
      6.521  0.7212E+00  0.2636E+02
      6.806  0.7868E+00  0.2659E+02
      7.092  0.6843E+00  0.2678E+02
      7.377  0.8315E+00  0.2702E+02
      7.662  0.6590E+00  0.2721E+02
      7.948  0.5934E+00  0.2738E+02
      8.233  0.5590E+00  0.2754E+02
      8.519  0.7057E+00  0.2774E+02
      8.804  0.8311E+00  0.2798E+02
      9.090  0.9967E+00  0.2826E+02
      9.375  0.6400E+00  0.2844E+02
      9.661  0.1065E+01  0.2875E+02
      9.946  0.5276E+00  0.2890E+02
     10.232  0.9994E+00  0.2918E+02
     10.517  0.8395E+00  0.2942E+02
     10.803  0.1234E+01  0.2978E+02
     11.088  0.4141E+00  0.2989E+02
     11.374  0.7803E+00  0.3012E+02
     11.659  0.9585E+00  0.3039E+02
     11.945  0.1175E+01  0.3073E+02
     12.230  0.1070E+01  0.3103E+02
     12.516  0.6616E+00  0.3122E+02
     12.801  0.1200E+01  0.3156E+02
     13.087  0.1071E+01  0.3187E+02
     13.372  0.9455E+00  0.3214E+02
     13.657  0.1077E+01  0.3245E+02
     13.943  0.1219E+01  0.3279E+02
     14.228  0.1095E+01  0.3311E+02
     14.514  0.1083E+01  0.3342E+02
     14.799  0.7850E+00  0.3364E+02
     15.085  0.6297E+00  0.3382E+02
     15.370  0.8071E+00  0.3405E+02
     15.656  0.7383E+00  0.3426E+02
     15.941  0.5541E+00  0.3442E+02
     16.227  0.9346E+00  0.3469E+02
     16.512  0.6173E+00  0.3486E+02
     16.798  0.7544E+00  0.3508E+02
     17.083  0.8589E+00  0.3532E+02
     17.369  0.1043E+01  0.3562E+02
     17.654  0.1019E+01  0.3591E+02
     17.940  0.8758E+00  0.3616E+02
     18.225  0.7198E+00  0.3637E+02
     18.511  0.1145E+01  0.3669E+02
     18.796  0.7949E+00  0.3692E+02
     19.082  0.1137E+01  0.3725E+02
     19.367  0.1030E+01  0.3754E+02
     19.652  0.1249E+01  0.3790E+02
     19.938  0.9958E+00  0.3818E+02
     20.223  0.8974E+00  0.3844E+02
     20.509  0.1530E+01  0.3887E+02
     20.794  0.1129E+01  0.3920E+02
     21.080  0.1463E+01  0.3961E+02
     21.365  0.1247E+01  0.3997E+02
     21.651  0.1092E+01  0.4028E+02
     21.936  0.9013E+00  0.4054E+02
     22.222  0.9945E+00  0.4082E+02
     22.507  0.1100E+01  0.4114E+02
     22.793  0.8652E+00  0.4138E+02
     23.078  0.1124E+01  0.4170E+02
     23.364  0.9872E+00  0.4199E+02
     23.649  0.1208E+01  0.4233E+02
     23.935  0.9108E+00  0.4259E+02
     24.220  0.9922E+00  0.4287E+02
     24.506  0.1334E+01  0.4325E+02
     24.791  0.1060E+01  0.4356E+02
     25.077  0.6113E+00  0.4373E+02
     25.362  0.1215E+01  0.4408E+02
     25.647  0.1517E+01  0.4451E+02
     25.933  0.1258E+01  0.4487E+02
     26.218  0.1061E+01  0.4517E+02
     26.504  0.1152E+01  0.4550E+02
     26.789  0.7946E+00  0.4573E+02
     27.075  0.9079E+00  0.4599E+02
     27.360  0.1311E+01  0.4636E+02
     27.646  0.1832E+01  0.4689E+02
     27.931  0.9521E+00  0.4716E+02
     28.217  0.1119E+01  0.4748E+02
     28.502  0.1143E+01  0.4780E+02
     28.788  0.1288E+01  0.4817E+02
     29.073  0.1550E+01  0.4861E+02
     29.359  0.7164E+00  0.4882E+02
     29.644  0.1354E+01  0.4920E+02
     29.930  0.1284E+01  0.4957E+02
     30.215  0.1543E+01  0.5001E+02
     30.501  0.1195E+01  0.5035E+02
     30.786  0.9405E+00  0.5062E+02
     31.072  0.1439E+01  0.5103E+02
     31.357  0.1404E+01  0.5143E+02
     31.642  0.1461E+01  0.5185E+02
     31.928  0.1131E+01  0.5217E+02
     32.213  0.1282E+01  0.5254E+02
     32.499  0.1249E+01  0.5290E+02
     32.784  0.1117E+01  0.5321E+02
     33.070  0.1315E+01  0.5359E+02
     33.355  0.1647E+01  0.5406E+02
     33.641  0.1019E+01  0.5435E+02
     33.926  0.1599E+01  0.5481E+02
     34.212  0.1627E+01  0.5527E+02
     34.497  0.1353E+01  0.5566E+02
     34.783  0.1569E+01  0.5611E+02
     35.068  0.1243E+01  0.5646E+02
     35.354  0.1071E+01  0.5677E+02
     35.639  0.1526E+01  0.5720E+02
     35.925  0.1577E+01  0.5765E+02
     36.210  0.1417E+01  0.5806E+02
     36.496  0.1566E+01  0.5850E+02
     36.781  0.1107E+01  0.5882E+02
     37.067  0.1293E+01  0.5919E+02
     37.352  0.1717E+01  0.5968E+02
     37.637  0.1416E+01  0.6008E+02
     37.923  0.1664E+01  0.6056E+02
     38.208  0.1367E+01  0.6095E+02
     38.494  0.1202E+01  0.6129E+02
     38.779  0.1849E+01  0.6182E+02
     39.065  0.1317E+01  0.6220E+02
     39.350  0.1009E+01  0.6248E+02
     39.636  0.1417E+01  0.6289E+02
     39.921  0.1299E+01  0.6326E+02
     40.207  0.1330E+01  0.6364E+02
     40.492  0.1331E+01  0.6402E+02
     40.778  0.1389E+01  0.6442E+02
     41.063  0.1648E+01  0.6489E+02
     41.349  0.9543E+00  0.6516E+02
     41.634  0.1152E+01  0.6549E+02
     41.920  0.1647E+01  0.6596E+02
     42.205  0.1498E+01  0.6639E+02
     42.491  0.1863E+01  0.6692E+02
     42.776  0.1930E+01  0.6747E+02
     43.062  0.1385E+01  0.6786E+02
     43.347  0.1781E+01  0.6837E+02
     43.632  0.1073E+01  0.6868E+02
     43.918  0.1534E+01  0.6912E+02
     44.203  0.1738E+01  0.6961E+02
     44.489  0.1781E+01  0.7012E+02
     44.774  0.1024E+01  0.7041E+02
     45.060  0.1299E+01  0.7078E+02
     45.345  0.1146E+01  0.7111E+02
     45.631  0.1340E+01  0.7149E+02
     45.916  0.1257E+01  0.7185E+02
     46.202  0.1474E+01  0.7227E+02
     46.487  0.1512E+01  0.7271E+02
     46.773  0.1469E+01  0.7312E+02
     47.058  0.1500E+01  0.7355E+02
     47.344  0.1982E+01  0.7412E+02
     47.629  0.1496E+01  0.7455E+02
     47.915  0.1703E+01  0.7503E+02
     48.200  0.1673E+01  0.7551E+02
     48.486  0.1384E+01  0.7591E+02
     48.771  0.1740E+01  0.7640E+02
     49.057  0.1686E+01  0.7688E+02
     49.342  0.2071E+01  0.7747E+02
     49.627  0.8736E+00  0.7772E+02
     49.913  0.1625E+01  0.7819E+02
     50.198  0.1608E+01  0.7865E+02
     50.484  0.1525E+01  0.7908E+02
     50.769  0.1549E+01  0.7952E+02
     51.055  0.9476E+00  0.7979E+02
     51.340  0.1761E+01  0.8030E+02
     51.626  0.1727E+01  0.8079E+02
     51.911  0.1725E+01  0.8128E+02
     52.197  0.1404E+01  0.8168E+02
     52.482  0.1242E+01  0.8204E+02
     52.768  0.1527E+01  0.8247E+02
     53.053  0.2408E+01  0.8316E+02
     53.339  0.1638E+01  0.8363E+02
     53.624  0.1903E+01  0.8417E+02
     53.910  0.1490E+01  0.8460E+02
     54.195  0.1725E+01  0.8509E+02
     54.481  0.1493E+01  0.8552E+02
     54.766  0.1977E+01  0.8608E+02
     55.051  0.1954E+01  0.8664E+02
     55.337  0.1362E+01  0.8703E+02
     55.622  0.1733E+01  0.8752E+02
     55.908  0.1763E+01  0.8803E+02
     56.193  0.1783E+01  0.8854E+02
     56.479  0.1380E+01  0.8893E+02
     56.764  0.1767E+01  0.8943E+02
     57.050  0.1165E+01  0.8977E+02
     57.335  0.1723E+01  0.9026E+02
     57.621  0.1784E+01  0.9077E+02
     57.906  0.1721E+01  0.9126E+02
     58.192  0.1460E+01  0.9168E+02
     58.477  0.1951E+01  0.9223E+02
     58.763  0.2254E+01  0.9288E+02
     59.048  0.9010E+00  0.9313E+02
     59.334  0.1514E+01  0.9357E+02
     59.619  0.1236E+01  0.9392E+02
     59.905  0.1178E+01  0.9425E+02
     60.190  0.6644E+00  0.9444E+02
     60.476  0.1530E+01  0.9488E+02
     60.761  0.7111E+00  0.9508E+02
     61.046  0.4969E+00  0.9523E+02
     61.332  0.6761E+00  0.9542E+02
     61.617  0.6019E+00  0.9559E+02
     61.903  0.3245E+00  0.9568E+02
     62.188  0.1738E-01  0.9569E+02
     62.474  0.1332E+00  0.9573E+02
     62.759  0.2114E+00  0.9579E+02
     63.045  0.2034E+00  0.9585E+02
     63.330  0.6659E-01  0.9586E+02
     63.616  0.2167E+00  0.9593E+02
     63.901  0.1036E+00  0.9596E+02
     64.187  0.5509E-02  0.9596E+02
     64.472  0.0000E+00  0.9596E+02
     64.758  0.0000E+00  0.9596E+02
     65.043  0.4777E-03  0.9596E+02
     65.329  0.4817E-01  0.9597E+02
     65.614  0.4501E-18  0.9597E+02
     65.900  0.3138E-02  0.9597E+02
     66.185  0.4971E-02  0.9597E+02
     66.471  0.0000E+00  0.9597E+02
     66.756  0.0000E+00  0.9597E+02
     67.041  0.1352E-03  0.9597E+02
     67.327  0.4852E-01  0.9599E+02
     67.612  0.0000E+00  0.9599E+02
     67.898  0.8688E-06  0.9599E+02
     68.183  0.1578E-01  0.9599E+02
     68.469  0.1666E-01  0.9600E+02
     68.754  0.0000E+00  0.9600E+02
     69.040  0.0000E+00  0.9600E+02
     69.325  0.0000E+00  0.9600E+02
     69.611  0.3970E-09  0.9600E+02
     69.896  0.8084E-02  0.9600E+02
     70.182  0.2461E-04  0.9600E+02
     70.467  0.6736E-05  0.9600E+02
     70.753  0.4048E-02  0.9600E+02
     71.038  0.0000E+00  0.9600E+02
     71.324  0.0000E+00  0.9600E+02
     71.609  0.0000E+00  0.9600E+02
     71.895  0.0000E+00  0.9600E+02
     72.180  0.0000E+00  0.9600E+02
     72.466  0.0000E+00  0.9600E+02
     72.751  0.0000E+00  0.9600E+02
     73.036  0.0000E+00  0.9600E+02
     73.322  0.0000E+00  0.9600E+02
     73.607  0.0000E+00  0.9600E+02
     73.893  0.0000E+00  0.9600E+02
     74.178  0.0000E+00  0.9600E+02
     74.464  0.0000E+00  0.9600E+02
