    2    2    1    1
  0.1535077E+02  0.2661690E-09  0.2661690E-09  0.5003970E-09  0.5000000E-15
  1.000000000000000E-004
  CAR 
 Zn                                      
     24    133     48
 
  0.0000000E+00  0.0000000E+00  0.0000000E+00  0.5787037E-03
      1         -7.286069   1.000000
      2         -5.538438   1.000000
      3         -4.849927   1.000000
      4         -4.607807   1.000000
      5         -4.607723   1.000000
      6         -4.561754   1.000000
      7         -4.561666   1.000000
      8         -4.222697   1.000000
      9         -4.222672   1.000000
     10         -4.029818   1.000000
     11         -4.029792   1.000000
     12         -0.596205   1.000000
     13         -0.141450   1.000000
     14         16.158622   0.000000
     15         19.866011   0.000000
     16         20.610693   0.000000
     17         20.610826   0.000000
     18         22.232047   0.000000
     19         22.232077   0.000000
     20         22.363882   0.000000
     21         23.605227   0.000000
     22         26.926589   0.000000
     23         26.926703   0.000000
     24         27.159732   0.000000
     25         28.268533   0.000000
     26         28.268998   0.000000
     27         28.412635   0.000000
     28         28.412715   0.000000
     29         28.885228   0.000000
     30         28.885236   0.000000
     31         28.961296   0.000000
     32         30.283677   0.000000
     33         36.032329   0.000000
     34         44.724475   0.000000
     35         44.724634   0.000000
     36         44.932199   0.000000
     37         45.055608   0.000000
     38         45.055618   0.000000
     39         45.993002   0.000000
     40         45.993320   0.000000
     41         46.206887   0.000000
     42         46.782570   0.000000
     43         46.782672   0.000000
     44         47.239250   0.000000
     45         48.043512   0.000000
     46         50.037544   0.000000
     47         58.344228   0.000000
     48         70.571010   0.000000
 
  0.8333333E-01 -0.4546514E-17  0.0000000E+00  0.3472222E-02
      1         -7.079767   1.000000
      2         -5.448979   1.000000
      3         -4.828716   1.000000
      4         -4.628076   1.000000
      5         -4.583038   1.000000
      6         -4.559580   1.000000
      7         -4.516100   1.000000
      8         -4.268457   1.000000
      9         -4.240819   1.000000
     10         -4.136948   1.000000
     11         -4.028257   1.000000
     12         -0.274646   1.000000
     13         -0.032462   1.000000
     14         16.380318   0.000000
     15         17.544508   0.000000
     16         19.039930   0.000000
     17         19.821929   0.000000
     18         20.944658   0.000000
     19         22.954066   0.000000
     20         23.421407   0.000000
     21         24.042573   0.000000
     22         24.172795   0.000000
     23         25.841592   0.000000
     24         25.999309   0.000000
     25         26.757297   0.000000
     26         27.570002   0.000000
     27         29.083881   0.000000
     28         30.378335   0.000000
     29         30.924600   0.000000
     30         30.945382   0.000000
     31         32.542608   0.000000
     32         33.187681   0.000000
     33         36.925438   0.000000
     34         41.445852   0.000000
     35         42.231823   0.000000
     36         43.116317   0.000000
     37         43.513503   0.000000
     38         43.770112   0.000000
     39         46.033118   0.000000
     40         46.584489   0.000000
     41         48.098422   0.000000
     42         48.306069   0.000000
     43         48.681979   0.000000
     44         48.973950   0.000000
     45         51.171658   0.000000
     46         52.021207   0.000000
     47         58.801056   0.000000
     48         68.200403   0.000000
 
  0.1666667E+00 -0.1634056E-16  0.0000000E+00  0.3472222E-02
      1         -6.483006   1.000000
      2         -5.241817   1.000000
      3         -4.793445   1.000000
      4         -4.668700   1.000000
      5         -4.577976   1.000000
      6         -4.463809   1.000000
      7         -4.425791   1.000000
      8         -4.388566   1.000000
      9         -4.289460   1.000000
     10         -4.286534   1.000000
     11         -4.027476   1.000000
     12          0.328115   1.000000
     13          0.585407   1.000000
     14         13.606205   0.000000
     15         16.949085   0.000000
     16         17.129633   0.000000
     17         18.731330   0.000000
     18         19.430419   0.000000
     19         20.303797   0.000000
     20         21.165309   0.000000
     21         22.348662   0.000000
     22         24.161239   0.000000
     23         24.960412   0.000000
     24         25.259049   0.000000
     25         27.757155   0.000000
     26         29.988181   0.000000
     27         32.243123   0.000000
     28         33.396962   0.000000
     29         33.568331   0.000000
     30         33.881860   0.000000
     31         35.911023   0.000000
     32         36.936769   0.000000
     33         37.526912   0.000000
     34         38.854564   0.000000
     35         41.116787   0.000000
     36         41.173805   0.000000
     37         41.596209   0.000000
     38         42.531136   0.000000
     39         45.485652   0.000000
     40         47.240157   0.000000
     41         50.354986   0.000000
     42         50.418444   0.000000
     43         51.366782   0.000000
     44         52.197052   0.000000
     45         55.712649   0.000000
     46         55.991022   0.000000
     47         60.334633   0.000000
     48         63.486969   0.000000
 
  0.2500000E+00 -0.7039581E-19  0.0000000E+00  0.3472222E-02
      1         -5.660661   1.000000
      2         -5.133124   1.000000
      3         -4.722047   1.000000
      4         -4.719433   1.000000
      5         -4.634853   1.000000
      6         -4.409566   1.000000
      7         -4.352679   1.000000
      8         -4.344130   1.000000
      9         -4.237280   1.000000
     10         -4.209546   1.000000
     11         -4.031612   1.000000
     12          1.027287   1.000000
     13          1.836303   1.000000
     14          9.906832   0.000000
     15         15.325035   0.000000
     16         15.526475   0.000000
     17         16.089475   0.000000
     18         18.543841   0.000000
     19         18.767626   0.000000
     20         20.744317   0.000000
     21         21.444509   0.000000
     22         22.726537   0.000000
     23         24.112375   0.000000
     24         25.113130   0.000000
     25         30.916729   0.000000
     26         32.072382   0.000000
     27         33.704179   0.000000
     28         34.877152   0.000000
     29         36.575374   0.000000
     30         36.709290   0.000000
     31         36.836135   0.000000
     32         37.184161   0.000000
     33         39.465012   0.000000
     34         39.677528   0.000000
     35         40.042309   0.000000
     36         41.579111   0.000000
     37         43.874415   0.000000
     38         43.894429   0.000000
     39         46.485864   0.000000
     40         48.431303   0.000000
     41         51.852518   0.000000
     42         53.138780   0.000000
     43         54.694508   0.000000
     44         55.721730   0.000000
     45         58.177453   0.000000
     46         58.580789   0.000000
     47         59.850182   0.000000
     48         61.077993   0.000000
 
  0.3333333E+00 -0.3931138E-16  0.0000000E+00  0.3472222E-02
      1         -5.288422   1.000000
      2         -5.185223   1.000000
      3         -4.924681   1.000000
      4         -4.593757   1.000000
      5         -4.520243   1.000000
      6         -4.397982   1.000000
      7         -4.375915   1.000000
      8         -4.041497   1.000000
      9         -4.039028   1.000000
     10         -4.023276   1.000000
     11         -3.413841   1.000000
     12          2.137570   1.000000
     13          3.398656   0.000043
     14          6.563530   0.000000
     15         11.983780   0.000000
     16         13.137998   0.000000
     17         14.317243   0.000000
     18         17.914311   0.000000
     19         19.481351   0.000000
     20         20.036731   0.000000
     21         21.764722   0.000000
     22         22.137896   0.000000
     23         23.307183   0.000000
     24         25.071940   0.000000
     25         30.398762   0.000000
     26         31.394440   0.000000
     27         34.465238   0.000000
     28         36.023832   0.000000
     29         38.387027   0.000000
     30         38.759979   0.000000
     31         39.550830   0.000000
     32         40.071986   0.000000
     33         40.543731   0.000000
     34         41.002201   0.000000
     35         41.362527   0.000000
     36         43.194859   0.000000
     37         45.854019   0.000000
     38         49.120860   0.000000
     39         50.609652   0.000000
     40         50.621561   0.000000
     41         52.901060   0.000000
     42         53.175772   0.000000
     43         55.174262   0.000000
     44         55.734446   0.000000
     45         57.542666   0.000000
     46         58.680116   0.000000
     47         59.337897   0.000000
     48         59.555212   0.000000
 
  0.4166667E+00  0.1134462E-16  0.0000000E+00  0.3472222E-02
      1         -5.313606   1.000000
      2         -5.234548   1.000000
      3         -5.047162   1.000000
      4         -4.599777   1.000000
      5         -4.488764   1.000000
      6         -4.435891   1.000000
      7         -4.201984   1.000000
      8         -4.046011   1.000000
      9         -3.895763   1.000000
     10         -3.879538   1.000000
     11         -1.648786   1.000000
     12          2.923286   1.000000
     13          4.378185   0.000000
     14          5.200062   0.000000
     15          9.005058   0.000000
     16         10.409901   0.000000
     17         13.561086   0.000000
     18         17.538027   0.000000
     19         18.685098   0.000000
     20         20.782659   0.000000
     21         22.282383   0.000000
     22         22.829905   0.000000
     23         22.891702   0.000000
     24         25.147242   0.000000
     25         27.434760   0.000000
     26         29.365241   0.000000
     27         37.385791   0.000000
     28         38.108035   0.000000
     29         38.753105   0.000000
     30         39.345890   0.000000
     31         40.061097   0.000000
     32         41.618389   0.000000
     33         44.087631   0.000000
     34         44.279536   0.000000
     35         44.977647   0.000000
     36         45.708329   0.000000
     37         48.316017   0.000000
     38         49.099726   0.000000
     39         51.342414   0.000000
     40         51.650023   0.000000
     41         53.083640   0.000000
     42         53.763738   0.000000
     43         54.172990   0.000000
     44         54.237449   0.000000
     45         56.079585   0.000000
     46         56.213916   0.000000
     47         56.986391   0.000000
     48         57.465785   0.000000
 
  0.5000000E+00 -0.1407916E-18  0.0000000E+00  0.1736111E-02
      1         -5.340399   1.000000
      2         -5.255694   1.000000
      3         -5.087344   1.000000
      4         -4.629225   1.000000
      5         -4.450557   1.000000
      6         -4.449645   1.000000
      7         -4.145932   1.000000
      8         -4.048717   1.000000
      9         -3.842597   1.000000
     10         -3.824835   1.000000
     11          0.278303   1.000000
     12          0.948156   1.000000
     13          5.565188   0.000000
     14          6.582997   0.000000
     15          7.009210   0.000000
     16          8.714222   0.000000
     17         13.303113   0.000000
     18         17.413202   0.000000
     19         18.413088   0.000000
     20         20.662287   0.000000
     21         22.671022   0.000000
     22         23.236897   0.000000
     23         23.868898   0.000000
     24         25.314219   0.000000
     25         25.404727   0.000000
     26         28.413884   0.000000
     27         37.377401   0.000000
     28         37.878865   0.000000
     29         39.987422   0.000000
     30         41.053271   0.000000
     31         41.921506   0.000000
     32         43.288502   0.000000
     33         43.583235   0.000000
     34         44.568836   0.000000
     35         47.873955   0.000000
     36         48.382498   0.000000
     37         48.858219   0.000000
     38         49.140890   0.000000
     39         49.767076   0.000000
     40         50.221939   0.000000
     41         50.409208   0.000000
     42         51.902730   0.000000
     43         53.932479   0.000000
     44         54.425645   0.000000
     45         54.592624   0.000000
     46         57.125239   0.000000
     47         57.292139   0.000000
     48         60.502905   0.000000
 
  0.1666667E+00  0.8333333E-01  0.0000000E+00  0.3472222E-02
      1         -6.676410   1.000000
      2         -5.294744   1.000000
      3         -4.803257   1.000000
      4         -4.651966   1.000000
      5         -4.625628   1.000000
      6         -4.460377   1.000000
      7         -4.414830   1.000000
      8         -4.375410   1.000000
      9         -4.328075   1.000000
     10         -4.215052   1.000000
     11         -4.032980   1.000000
     12          0.203039   1.000000
     13          0.312054   1.000000
     14         15.567631   0.000000
     15         15.753114   0.000000
     16         16.790639   0.000000
     17         19.731527   0.000000
     18         21.040761   0.000000
     19         21.856711   0.000000
     20         22.014312   0.000000
     21         22.326627   0.000000
     22         22.506289   0.000000
     23         23.447979   0.000000
     24         28.173592   0.000000
     25         28.666730   0.000000
     26         29.370787   0.000000
     27         29.442886   0.000000
     28         31.182976   0.000000
     29         31.629208   0.000000
     30         35.480011   0.000000
     31         35.539424   0.000000
     32         35.928043   0.000000
     33         38.006545   0.000000
     34         39.465340   0.000000
     35         39.968012   0.000000
     36         40.430066   0.000000
     37         41.360298   0.000000
     38         45.368400   0.000000
     39         47.137409   0.000000
     40         47.300799   0.000000
     41         47.422828   0.000000
     42         47.812055   0.000000
     43         51.183972   0.000000
     44         52.868096   0.000000
     45         54.141818   0.000000
     46         54.861971   0.000000
     47         59.765386   0.000000
     48         63.874718   0.000000
 
  0.2500000E+00  0.8333333E-01  0.0000000E+00  0.6944444E-02
      1         -5.933226   1.000000
      2         -5.099902   1.000000
      3         -4.796379   1.000000
      4         -4.692015   1.000000
      5         -4.617727   1.000000
      6         -4.574318   1.000000
      7         -4.417346   1.000000
      8         -4.284041   1.000000
      9         -4.278362   1.000000
     10         -4.202340   1.000000
     11         -4.043156   1.000000
     12          0.738915   1.000000
     13          1.356215   1.000000
     14         11.841512   0.000000
     15         14.062432   0.000000
     16         17.135824   0.000000
     17         17.197572   0.000000
     18         19.051812   0.000000
     19         19.267419   0.000000
     20         20.833239   0.000000
     21         21.166282   0.000000
     22         22.033600   0.000000
     23         25.368116   0.000000
     24         27.557509   0.000000
     25         28.601029   0.000000
     26         32.074097   0.000000
     27         32.398810   0.000000
     28         33.656238   0.000000
     29         35.578126   0.000000
     30         35.650473   0.000000
     31         36.489587   0.000000
     32         37.560442   0.000000
     33         38.012958   0.000000
     34         39.313542   0.000000
     35         40.030857   0.000000
     36         41.314684   0.000000
     37         43.268504   0.000000
     38         44.762889   0.000000
     39         46.915297   0.000000
     40         47.925469   0.000000
     41         49.651623   0.000000
     42         50.059108   0.000000
     43         53.269791   0.000000
     44         56.339607   0.000000
     45         58.125957   0.000000
     46         58.713129   0.000000
     47         59.091494   0.000000
     48         61.553971   0.000000
 
  0.3333333E+00  0.8333333E-01  0.0000000E+00  0.6944444E-02
      1         -5.267477   1.000000
      2         -5.094393   1.000000
      3         -4.835758   1.000000
      4         -4.657297   1.000000
      5         -4.593986   1.000000
      6         -4.505170   1.000000
      7         -4.356814   1.000000
      8         -4.338097   1.000000
      9         -4.089975   1.000000
     10         -4.054655   1.000000
     11         -3.719615   1.000000
     12          1.667526   1.000000
     13          2.753633   1.000000
     14          8.315966   0.000000
     15         12.796707   0.000000
     16         13.756052   0.000000
     17         14.750612   0.000000
     18         18.123330   0.000000
     19         19.015100   0.000000
     20         20.129946   0.000000
     21         20.469145   0.000000
     22         22.415555   0.000000
     23         26.480708   0.000000
     24         26.485372   0.000000
     25         30.061966   0.000000
     26         32.162320   0.000000
     27         33.316289   0.000000
     28         35.390877   0.000000
     29         35.411099   0.000000
     30         36.737060   0.000000
     31         37.157897   0.000000
     32         37.747931   0.000000
     33         40.800912   0.000000
     34         42.331184   0.000000
     35         42.734451   0.000000
     36         43.835943   0.000000
     37         45.899391   0.000000
     38         46.788527   0.000000
     39         48.462740   0.000000
     40         49.426955   0.000000
     41         52.128187   0.000000
     42         52.723728   0.000000
     43         53.681931   0.000000
     44         55.668112   0.000000
     45         57.985869   0.000000
     46         58.678912   0.000000
     47         59.446593   0.000000
     48         60.207528   0.000000
 
  0.4166667E+00  0.8333333E-01  0.0000000E+00  0.6944444E-02
      1         -5.222658   1.000000
      2         -5.147168   1.000000
      3         -4.986126   1.000000
      4         -4.577068   1.000000
      5         -4.530288   1.000000
      6         -4.427116   1.000000
      7         -4.338358   1.000000
      8         -4.065569   1.000000
      9         -4.061749   1.000000
     10         -3.943203   1.000000
     11         -2.385108   1.000000
     12          2.961456   1.000000
     13          4.441899   0.000000
     14          5.234697   0.000000
     15         10.579249   0.000000
     16         11.852093   0.000000
     17         11.916155   0.000000
     18         17.259258   0.000000
     19         18.664335   0.000000
     20         19.895635   0.000000
     21         21.399438   0.000000
     22         23.342363   0.000000
     23         25.761627   0.000000
     24         26.302155   0.000000
     25         29.014002   0.000000
     26         30.354313   0.000000
     27         33.919584   0.000000
     28         35.917208   0.000000
     29         36.246546   0.000000
     30         39.209372   0.000000
     31         39.867153   0.000000
     32         40.654677   0.000000
     33         43.105173   0.000000
     34         43.608190   0.000000
     35         46.071999   0.000000
     36         46.102342   0.000000
     37         47.093759   0.000000
     38         49.249290   0.000000
     39         50.737037   0.000000
     40         52.739746   0.000000
     41         53.051919   0.000000
     42         53.444610   0.000000
     43         53.740564   0.000000
     44         55.036629   0.000000
     45         55.288967   0.000000
     46         56.215114   0.000000
     47         58.564884   0.000000
     48         58.591404   0.000000
 
  0.5000000E+00  0.8333333E-01  0.0000000E+00  0.6944444E-02
      1         -5.276308   1.000000
      2         -5.185336   1.000000
      3         -5.060593   1.000000
      4         -4.617897   1.000000
      5         -4.467986   1.000000
      6         -4.457334   1.000000
      7         -4.205413   1.000000
      8         -4.072424   1.000000
      9         -3.917344   1.000000
     10         -3.880041   1.000000
     11         -0.404337   1.000000
     12          2.057174   1.000000
     13          5.141879   0.000000
     14          6.259694   0.000000
     15          7.867952   0.000000
     16          9.408675   0.000000
     17         11.461028   0.000000
     18         16.801218   0.000000
     19         18.330665   0.000000
     20         19.597751   0.000000
     21         23.366707   0.000000
     22         24.489106   0.000000
     23         25.402923   0.000000
     24         25.728408   0.000000
     25         26.291144   0.000000
     26         28.997741   0.000000
     27         35.528605   0.000000
     28         35.571972   0.000000
     29         38.152385   0.000000
     30         42.126242   0.000000
     31         42.508499   0.000000
     32         42.997471   0.000000
     33         43.596960   0.000000
     34         44.090369   0.000000
     35         44.944556   0.000000
     36         47.862029   0.000000
     37         48.961592   0.000000
     38         50.125527   0.000000
     39         50.284241   0.000000
     40         51.238316   0.000000
     41         53.037397   0.000000
     42         53.296888   0.000000
     43         54.763734   0.000000
     44         55.530168   0.000000
     45         56.112376   0.000000
     46         56.276581   0.000000
     47         58.737350   0.000000
     48         59.383862   0.000000
 
  0.3333333E+00  0.1666667E+00  0.0000000E+00  0.3472222E-02
      1         -5.202599   1.000000
      2         -4.935289   1.000000
      3         -4.873878   1.000000
      4         -4.784573   1.000000
      5         -4.687778   1.000000
      6         -4.534134   1.000000
      7         -4.524394   1.000000
      8         -4.319655   1.000000
      9         -4.094863   1.000000
     10         -4.075644   1.000000
     11         -3.725684   1.000000
     12          1.519923   1.000000
     13          2.535075   1.000000
     14         10.287429   0.000000
     15         10.580963   0.000000
     16         15.827559   0.000000
     17         15.875244   0.000000
     18         16.168086   0.000000
     19         17.553744   0.000000
     20         19.612170   0.000000
     21         22.185542   0.000000
     22         24.250801   0.000000
     23         25.243224   0.000000
     24         30.187438   0.000000
     25         30.457453   0.000000
     26         31.049565   0.000000
     27         32.079342   0.000000
     28         34.241064   0.000000
     29         34.335713   0.000000
     30         35.197131   0.000000
     31         35.573217   0.000000
     32         38.752133   0.000000
     33         39.221596   0.000000
     34         43.885498   0.000000
     35         44.189991   0.000000
     36         44.626048   0.000000
     37         45.977227   0.000000
     38         47.054898   0.000000
     39         48.630994   0.000000
     40         49.026315   0.000000
     41         49.772712   0.000000
     42         50.145426   0.000000
     43         53.675408   0.000000
     44         54.507764   0.000000
     45         57.897224   0.000000
     46         58.817407   0.000000
     47         61.160259   0.000000
     48         61.884467   0.000000
 
  0.4166667E+00  0.1666667E+00  0.0000000E+00  0.6944444E-02
      1         -5.011390   1.000000
      2         -4.955592   1.000000
      3         -4.917447   1.000000
      4         -4.629461   1.000000
      5         -4.592963   1.000000
      6         -4.562778   1.000000
      7         -4.399612   1.000000
      8         -4.375887   1.000000
      9         -4.105813   1.000000
     10         -3.960051   1.000000
     11         -2.647035   1.000000
     12          2.733169   1.000000
     13          4.053791   0.000000
     14          7.094013   0.000000
     15          9.401164   0.000000
     16         12.540178   0.000000
     17         13.600273   0.000000
     18         14.828748   0.000000
     19         16.215443   0.000000
     20         20.971234   0.000000
     21         23.015355   0.000000
     22         24.143281   0.000000
     23         28.043070   0.000000
     24         29.807295   0.000000
     25         29.907401   0.000000
     26         30.998172   0.000000
     27         32.467849   0.000000
     28         33.257295   0.000000
     29         33.927152   0.000000
     30         34.408491   0.000000
     31         36.114087   0.000000
     32         42.323863   0.000000
     33         44.476057   0.000000
     34         46.063760   0.000000
     35         46.911096   0.000000
     36         47.556757   0.000000
     37         47.850758   0.000000
     38         49.002971   0.000000
     39         49.747996   0.000000
     40         50.820134   0.000000
     41         51.350331   0.000000
     42         52.220453   0.000000
     43         52.881020   0.000000
     44         53.332207   0.000000
     45         54.561165   0.000000
     46         56.625928   0.000000
     47         59.646928   0.000000
     48         60.862427   0.000000
 
  0.5000000E+00  0.1666667E+00  0.0000000E+00  0.6944444E-02
      1         -5.099440   1.000000
      2         -4.998730   1.000000
      3         -4.997159   1.000000
      4         -4.616649   1.000000
      5         -4.486987   1.000000
      6         -4.486026   1.000000
      7         -4.390411   1.000000
      8         -4.154445   1.000000
      9         -4.126166   1.000000
     10         -3.925860   1.000000
     11         -0.913047   1.000000
     12          3.678453   0.000000
     13          4.847288   0.000000
     14          5.843042   0.000000
     15          8.749772   0.000000
     16          9.563762   0.000000
     17         10.908580   0.000000
     18         14.191264   0.000000
     19         15.627261   0.000000
     20         22.838256   0.000000
     21         23.226329   0.000000
     22         24.755573   0.000000
     23         27.998009   0.000000
     24         28.241183   0.000000
     25         29.298928   0.000000
     26         30.384522   0.000000
     27         32.674948   0.000000
     28         32.703855   0.000000
     29         34.156987   0.000000
     30         38.331981   0.000000
     31         39.314294   0.000000
     32         41.813174   0.000000
     33         45.591291   0.000000
     34         46.465753   0.000000
     35         47.327433   0.000000
     36         47.371122   0.000000
     37         48.871730   0.000000
     38         50.369857   0.000000
     39         51.504583   0.000000
     40         52.701795   0.000000
     41         52.763722   0.000000
     42         54.965733   0.000000
     43         55.552786   0.000000
     44         55.562234   0.000000
     45         56.765225   0.000000
     46         57.133494   0.000000
     47         57.670098   0.000000
     48         59.671130   0.000000
 
 -0.4166667E+00  0.1666667E+00  0.0000000E+00  0.3472222E-02
      1         -5.132186   1.000000
      2         -5.023047   1.000000
      3         -5.021472   1.000000
      4         -4.610608   1.000000
      5         -4.534178   1.000000
      6         -4.443048   1.000000
      7         -4.328083   1.000000
      8         -4.133428   1.000000
      9         -4.012280   1.000000
     10         -3.978924   1.000000
     11          1.104480   1.000000
     12          1.508919   1.000000
     13          6.248846   0.000000
     14          7.278578   0.000000
     15          7.471102   0.000000
     16          8.534415   0.000000
     17          9.161348   0.000000
     18         13.974279   0.000000
     19         15.438690   0.000000
     20         23.130320   0.000000
     21         24.561350   0.000000
     22         25.889008   0.000000
     23         25.923077   0.000000
     24         26.860353   0.000000
     25         29.107455   0.000000
     26         30.515422   0.000000
     27         32.508862   0.000000
     28         33.009843   0.000000
     29         37.262946   0.000000
     30         37.509486   0.000000
     31         42.595447   0.000000
     32         42.752851   0.000000
     33         43.197801   0.000000
     34         43.512555   0.000000
     35         46.330782   0.000000
     36         46.865443   0.000000
     37         51.183705   0.000000
     38         51.308780   0.000000
     39         53.866115   0.000000
     40         54.276216   0.000000
     41         54.953502   0.000000
     42         55.788353   0.000000
     43         55.975357   0.000000
     44         56.105422   0.000000
     45         57.376540   0.000000
     46         57.998056   0.000000
     47         59.163965   0.000000
     48         59.630186   0.000000
 
  0.5000000E+00  0.2500000E+00  0.0000000E+00  0.3472222E-02
      1         -4.956580   1.000000
      2         -4.927675   1.000000
      3         -4.858504   1.000000
      4         -4.638200   1.000000
      5         -4.560773   1.000000
      6         -4.520801   1.000000
      7         -4.478305   1.000000
      8         -4.321263   1.000000