Zn                                      
           1
     2.661690    0.000000    0.000000
     1.330845    2.305091    0.000000
     0.000000    0.000000    5.003970
   Zn
     2
Direct configuration=     1
   0.00000000  0.00000000  0.00000000
   0.33333333  0.33333333  0.50000000
