S                                       
   1.00000000000000     
     2.580697    0.000000   -0.065568
    -0.067255    2.579821   -0.065568
     0.000000    0.000000    2.581530
   S 
     1
Direct
  0.000000  0.000000  0.000000
 
   24   24   24
 -2.1522     -.81356E-01  5.2272      11.586      16.702      19.195      18.909      16.597      13.387      10.371    
  8.2585      7.0710      6.6911      7.0710      8.2585      10.371      13.387      16.597      18.909      19.195    
  16.702      11.586      5.2272     -.81356E-01 -.81356E-01  1.7468      6.5806      12.397      17.049      19.229    
  18.780      16.413      13.210      10.227      8.1381      6.9553      6.5627      6.9115      8.0452      10.076    
  13.014      16.217      18.642      19.200      17.153      12.607      6.8159      1.9016      5.2272      6.5806    
  10.256      14.630      17.965      19.199      18.224      15.671      12.505      9.6655      7.7021      6.5810    
  6.1957      6.4998      7.5305      9.3887      12.134      15.286      17.924      19.080      18.073      14.925    
  10.606      6.8159      11.586      12.397      14.630      17.167      18.798      18.801      17.156      14.405    
  11.352      8.7737      7.0136      5.9993      5.6391      5.8922      6.7878      8.4107      10.848      13.850    
  16.676      18.515      18.771      17.367      14.925      12.607      16.702      17.049      17.965      18.798    
  18.847      17.731      15.527      12.701      9.8942      7.6757      6.1648      5.2846      4.9621      5.1646    
  5.9130      7.2729      9.3237      12.023      14.877      17.236      18.590      18.771      18.073      17.153    
  19.195      19.229      19.199      18.801      17.731      15.876      13.407      10.724      8.3243      6.5037    
  5.2542      4.5172      4.2393      4.3964      5.0023      6.1036      7.7599      10.005      12.646      15.201    
  17.236      18.515      19.080      19.200      18.909      18.780      18.224      17.156      15.527      13.407    
  11.023      8.7223      6.8161      5.3713      4.3688      3.7692      3.5373      3.6570      4.1364      5.0055    
  6.3043      8.0614      10.254      12.646      14.877      16.676      17.924      18.642      16.597      16.413    
  15.671      14.405      12.701      10.724      8.7223      6.9410      5.4785      4.3589      3.5722      3.0953    
  2.9071      2.9978      3.3718      4.0468      5.0465      6.3877      8.0614      10.005      12.023      13.850    
  15.286      16.217      13.387      13.210      12.505      11.352      9.8942      8.3243      6.8161      5.4785    
  4.3705      3.5129      2.9033      2.5298      2.3808      2.4504      2.7413      3.2634      4.0294      5.0465    
  6.3043      7.7599      9.3237      10.848      12.134      13.014      10.371      10.227      9.6655      8.7737    
  7.6757      6.5037      5.3713      4.3589      3.5129      2.8525      2.3798      2.0890      1.9732      2.0291    
  2.2586      2.6678      3.2634      4.0468      5.0055      6.1036      7.2729      8.4107      9.3887      10.076    
  8.2585      8.1381      7.7021      7.0136      6.1648      5.2542      4.3688      3.5722      2.9033      2.3798    
  2.0053      1.7761      1.6873      1.7363      1.9251      2.2586      2.7413      3.3718      4.1364      5.0023    
  5.9130      6.7878      7.5305      8.0452      7.0710      6.9553      6.5810      5.9993      5.2846      4.5172    
  3.7692      3.0953      2.5298      2.0890      1.7761      1.5877      1.5191      1.5679      1.7363      2.0291    
  2.4504      2.9978      3.6570      4.3964      5.1646      5.8922      6.4998      6.9115      6.6911      6.5627    
  6.1957      5.6391      4.9621      4.2393      3.5373      2.9071      2.3808      1.9732      1.6873      1.5191    
  1.4637      1.5191      1.6873      1.9732      2.3808      2.9071      3.5373      4.2393      4.9621      5.6391    
  6.1957      6.5627      7.0710      6.9115      6.4998      5.8922      5.1646      4.3964      3.6570      2.9978    
  2.4504      2.0291      1.7363      1.5679      1.5191      1.5877      1.7761      2.0890      2.5298      3.0953    
  3.7692      4.5172      5.2846      5.9993      6.5810      6.9553      8.2585      8.0452      7.5305      6.7878    
  5.9130      5.0023      4.1364      3.3718      2.7413      2.2586      1.9251      1.7363      1.6873      1.7761    
  2.0053      2.3798      2.9033      3.5722      4.3688      5.2542      6.1648      7.0136      7.7021      8.1381    
  10.371      10.076      9.3887      8.4107      7.2729      6.1036      5.0055      4.0468      3.2634      2.6678    
  2.2586      2.0291      1.9732      2.0890      2.3798      2.8525      3.5129      4.3589      5.3713      6.5037    
  7.6757      8.7737      9.6655      10.227      13.387      13.014      12.134      10.848      9.3237      7.7599    
  6.3043      5.0465      4.0294      3.2634      2.7413      2.4504      2.3808      2.5298      2.9033      3.5129    
  4.3705      5.4785      6.8161      8.3243      9.8942      11.352      12.505      13.210      16.597      16.217    
  15.286      13.850      12.023      10.005      8.0614      6.3877      5.0465      4.0468      3.3718      2.9978    
  2.9071      3.0953      3.5722      4.3589      5.4785      6.9410      8.7223      10.724      12.701      14.405    
  15.671      16.413      18.909      18.642      17.924      16.676      14.877      12.646      10.254      8.0614    
  6.3043      5.0055      4.1364      3.6570      3.5373      3.7692      4.3688      5.3713      6.8161      8.7223    
  11.023      13.407      15.527      17.156      18.224      18.780      19.195      19.200      19.080      18.515    
  17.236      15.201      12.646      10.005      7.7599      6.1036      5.0023      4.3964      4.2393      4.5172    
  5.2542      6.5037      8.3243      10.724      13.407      15.876      17.731      18.801      19.199      19.229    
  16.702      17.153      18.073      18.771      18.590      17.236      14.877      12.023      9.3237      7.2729    
  5.9130      5.1646      4.9621      5.2846      6.1648      7.6757      9.8942      12.701      15.527      17.731    
  18.847      18.798      17.965      17.049      11.586      12.607      14.925      17.367      18.771      18.515    
  16.676      13.850      10.848      8.4107      6.7878      5.8922      5.6391      5.9993      7.0136      8.7737    
  11.352      14.405      17.156      18.801      18.798      17.167      14.630      12.397      5.2272      6.8159    
  10.606      14.925      18.073      19.080      17.924      15.286      12.134      9.3887      7.5305      6.4998    
  6.1957      6.5810      7.7021      9.6655      12.505      15.671      18.224      19.199      17.965      14.630    
  10.256      6.5806     -.81356E-01  1.9016      6.8159      12.607      17.153      19.200      18.642      16.217    
  13.014      10.076      8.0452      6.9115      6.5627      6.9553      8.1381      10.227      13.210      16.413    
  18.780      19.229      17.049      12.397      6.5806      1.7468     -.81356E-01  1.7468      6.5806      12.397    
  17.049      19.229      18.780      16.413      13.210      10.227      8.1381      6.9553      6.5627      6.9115    
  8.0452      10.076      13.014      16.217      18.642      19.200      17.153      12.607      6.8159      1.9016    
  1.7468      3.3636      7.7783      13.114      17.354      19.256      18.662      16.247      13.052      10.098    
  8.0299      6.8504      6.4452      6.7647      7.8484      9.8043      12.666      15.856      18.375      19.174    
  17.525      13.488      8.2047      3.6461      6.5806      7.7783      11.136      15.145      18.166      19.190    
  18.108      15.525      12.370      9.5572      7.6103      6.4906      6.0933      6.3712      7.3579      9.1504    
  11.820      14.946      17.646      18.981      18.280      15.527      11.605      8.0971      12.397      13.114    
  15.145      17.445      18.875      18.747      17.041      14.279      11.243      8.6882      6.9400      5.9253    
  5.5540      5.7847      6.6435      8.2118      10.579      13.538      16.388      18.336      18.792      17.653    
  15.482      13.361      17.049      17.354      18.166      18.875      18.822      17.642      15.417      12.597    
  9.8114      7.6118      6.1087      5.2268      4.8945      5.0784      5.7973      7.1141      9.1061      11.752    
  14.593      16.999      18.460      18.793      18.256      17.457      19.229      19.256      19.190      18.747    
  17.642      15.773      13.309      10.644      8.2657      6.4583      5.2134      4.4739      4.1875      4.3296    
  4.9126      5.9811      7.5928      9.7843      12.390      14.946      17.021      18.369      19.015      19.201    
  18.780      18.662      18.108      17.041      15.417      13.309      10.944      8.6659      6.7762      5.3401    
  4.3399      3.7376      3.4986      3.6064      4.0684      4.9132      6.1793      7.8953      10.043      12.410    
  14.639      16.458      17.738      18.488      16.413      16.247      15.525      14.279      12.597      10.644    
  8.6659      6.9029      5.4516      4.3376      3.5519      3.0724      2.8784      2.9598      3.3206      3.9777    
  4.9538      6.2657      7.9051      9.8139      11.809      13.628      15.070      16.015      13.210      13.052    
  12.370      11.243      9.8114      8.2657      6.7762      5.4516      4.3515      3.4976      2.8884      2.5127    
  2.3589      2.4213      2.7021      3.2108      3.9596      4.9556      6.1890      7.6183      9.1568      10.663    
  11.941      12.825      10.227      10.098      9.5572      8.6882      7.6118      6.4583      5.3401      4.3376    
  3.4976      2.8401      2.3676      2.0750      1.9555      2.0057      2.2271      2.6257      3.2081      3.9755    
  4.9160      5.9948      7.1456      8.2682      9.2372      9.9240      8.1381      8.0299      7.6103      6.9400    
  6.1087      5.2134      4.3399      3.5519      2.8884      2.3676      1.9937      1.7632      1.6712      1.7155    
  1.8975      2.2220      2.6933      3.3104      4.0599      4.9101      5.8060      6.6690      7.4046      7.9187    
  6.9553      6.8504      6.4906      5.9253      5.2268      4.4739      3.7376      3.0724      2.5127      2.0750    
  1.7632      1.5739      1.5026      1.5470      1.7090      1.9932      2.4036      2.9381      3.5829      4.3076    
  5.0621      5.7787      6.3798      6.7906      6.5627      6.4452      6.0933      5.5540      4.8945      4.1875    
  3.4986      2.8784      2.3589      1.9555      1.6712      1.5026      1.4447      1.4956      1.6570      1.9337    
  2.3295      2.8419      3.4565      4.1423      4.8501      5.5148      6.0639      6.4295      6.9115      6.7647    
  6.3712      5.7847      5.0784      4.3296      3.6064      2.9598      2.4213      2.0057      1.7155      1.5470    
  1.4956      1.5590      1.7394      2.0413      2.4682      3.0169      3.6719      4.4000      5.1486      5.8476    
  6.4191      6.7906      8.0452      7.8484      7.3579      6.6435      5.7973      4.9126      4.0684      3.3206    
  2.7021      2.2271      1.8975      1.7090      1.6570      1.7394      1.9586      2.3193      2.8250      3.4722    
  4.2439      5.1028      5.9874      6.8141      7.4876      7.9187      10.076      9.8043      9.1504      8.2118    
  7.1141      5.9811      4.9132      3.9777      3.2108      2.6257      2.2220      1.9932      1.9337      2.0413    
  2.3193      2.7739      3.4107      4.2273      5.2054      6.3005      7.4354      8.5013      9.3710      9.9240    
  13.014      12.666      11.820      10.579      9.1061      7.5928      6.1793      4.9538      3.9596      3.2081    
  2.6933      2.4036      2.3295      2.4682      2.8250      3.4107      4.2363      5.3039      6.5935      8.0491    
  9.5672      10.988      12.122      12.825      16.217      15.856      14.946      13.538      11.752      9.7843    
  7.8953      6.2657      4.9556      3.9755      3.3104      2.9381      2.8419      3.0169      3.4722      4.2273    
  5.3039      6.7113      8.4269      10.365      12.302      13.991      15.260      16.015      18.642      18.375    
  17.646      16.388      14.593      12.390      10.043      7.9051      6.1890      4.9160      4.0599      3.5829    
  3.4565      3.6719      4.2439      5.2054      6.5935      8.4269      10.654      12.998      15.116      16.775    
  17.889      18.488      19.200      19.174      18.981      18.336      16.999      14.946      12.410      9.8139    
  7.6183      5.9948      4.9101      4.3076      4.1423      4.4000      5.1028      6.3005      8.0491      10.365    
  12.998      15.472      17.389      18.566      19.081      19.201      17.153      17.525      18.280      18.792    
  18.460      17.021      14.639      11.809      9.1568      7.1456      5.8060      5.0621      4.8501      5.1486    
  5.9874      7.4354      9.5672      12.302      15.116      17.389      18.660      18.826      18.215      17.457    
  12.607      13.488      15.527      17.653      18.793      18.369      16.458      13.628      10.663      8.2682    
  6.6690      5.7787      5.5148      5.8476      6.8141      8.5013      10.988      13.991      16.775      18.566    
  18.826      17.541      15.352      13.361      6.8159      8.2047      11.605      15.482      18.256      19.015    
  17.738      15.070      11.941      9.2372      7.4046      6.3798      6.0639      6.4191      7.4876      9.3710    
  12.122      15.260      17.889      19.081      18.215      15.352      11.446      8.0971      1.9016      3.6461    
  8.0971      13.361      17.457      19.201      18.488      16.015      12.825      9.9240      7.9187      6.7906    
  6.4295      6.7906      7.9187      9.9240      12.825      16.015      18.488      19.201      17.457      13.361    
  8.0971      3.6461      5.2272      6.5806      10.256      14.630      17.965      19.199      18.224      15.671    
  12.505      9.6655      7.7021      6.5810      6.1957      6.4998      7.5305      9.3887      12.134      15.286    
  17.924      19.080      18.073      14.925      10.606      6.8159      6.5806      7.7783      11.136      15.145    
  18.166      19.190      18.108      15.525      12.370      9.5572      7.6103      6.4906      6.0933      6.3712    
  7.3579      9.1504      11.820      14.946      17.646      18.981      18.280      15.527      11.605      8.0971    
  10.256      11.136      13.660      16.612      18.659      18.984      17.524      14.828      11.734      9.0630    
  7.2257      6.1605      5.7708      6.0121      6.9126      8.5591      11.039      14.070      16.878      18.615    
  18.656      16.926      14.099      11.446      14.630      15.145      16.612      18.190      18.956      18.360    
  16.420      13.621      10.675      8.2578      6.6038      5.6359      5.2712      5.4710      6.2571      7.7019    
  9.8916      12.720      15.587      17.772      18.717      18.278      16.868      15.352      17.965      18.166    
  18.659      18.956      18.529      17.103      14.784      12.000      9.3310      7.2533      5.8269      4.9831    
  4.6562      4.8151      5.4752      6.6924      8.5373      11.024      13.801      16.290      18.004      18.734    
  18.646      18.215      19.199      19.190      18.984      18.360      17.103      15.159      12.710      10.135    
  7.8820      6.1707      4.9858      4.2759      3.9936      4.1160      4.6532      5.6445      7.1418      9.1812    
  11.664      14.187      16.334      17.851      18.709      19.081      18.224      18.108      17.524      16.420    
  14.784      12.710      10.428      8.2662      6.4797      5.1160      4.1611      3.5812      3.3452      3.4377    
  3.8648      4.6514      5.8319      7.4317      9.4400      11.702      13.891      15.730      17.071      17.889    
  15.671      15.525      14.828      13.621      12.000      10.135      8.2662      6.6022      5.2269      4.1661    
  3.4139      2.9511      2.7592      2.8288      3.1632      3.7770      4.6903      5.9172      7.4498      9.2366    
  11.134      12.894      14.313      15.260      12.505      12.370      11.734      10.675      9.3310      7.8820    
  6.4797      5.2269      4.1817      3.3666      2.7821      2.4188      2.2665      2.3198      2.5805      3.0568    
  3.7593      4.6936      5.8499      7.1891      8.6310      10.048      11.267      12.122      9.6655      9.5572    
  9.0630      8.2578      7.2533      6.1707      5.1160      4.1661      3.3666      2.7380      2.2842      2.0010    
  1.8825      1.9254      2.1311      2.5046      3.0517      3.7730      4.6567      5.6699      6.7507      7.8060    
  8.7193      9.3710      7.7021      7.6103      7.2257      6.6038      5.8269      4.9858      4.1611      3.4139    
  2.7821      2.2842      1.9250      1.7019      1.6106      1.6487      1.8175      2.1214      2.5640      3.1441    
  3.8488      4.6484      5.4912      6.3040      6.9988      7.4876      6.5810      6.4906      6.1605      5.6359    
  4.9831      4.2759      3.5812      2.9511      2.4188      2.0010      1.7019      1.5189      1.4478      1.4865    
  1.6365      1.9020      2.2866      2.7881      3.3937      4.0747      4.7844      5.4596      6.0278      6.4191    
  6.1957      6.0933      5.7708      5.2712      4.6562      3.9936      3.3452      2.7592      2.2665      1.8825    
  1.6106      1.4478      1.3898      1.4346      1.5837      1.8414      2.2111      2.6905      3.2661      3.9089    
  4.5731      5.1981      5.7161      6.0639      6.4998      6.3712      6.0121      5.4710      4.8151      4.1160    
  3.4377      2.8288      2.3198      1.9254      1.6487      1.4865      1.4346      1.4909      1.6572      1.9376    
  2.3351      2.8468      3.4580      4.1378      4.8372      5.4912      6.0278      6.3798      7.5305      7.3579    
  6.9126      6.2571      5.4752      4.6532      3.8648      3.1632      2.5805      2.1311      1.8175      1.6365    
  1.5837      1.6572      1.8590      2.1932      2.6629      3.2645      3.9817      4.7797      5.6016      6.3704    
  6.9988      7.4046      9.3887      9.1504      8.5591      7.7019      6.6924      5.6445      4.6514      3.7770    
  3.0568      2.5046      2.1214      1.9020      1.8414      1.9376      2.1932      2.6138      3.2037      3.9601    
  4.8652      5.8776      6.9265      7.9124      8.7193      9.2372      12.134      11.820      11.039      9.8916    
  8.5373      7.1418      5.8319      4.6903      3.7593      3.0517      2.5640      2.2866      2.2111      2.3351    
  2.6629      3.2037      3.9664      4.9517      6.1405      7.4810      8.8794      10.198      11.267      11.941    
  15.286      14.946      14.070      12.720      11.024      9.1812      7.4317      5.9172      4.6936      3.7730    
  3.1441      2.7881      2.6905      2.8468      3.2645      3.9601      4.9517      6.2466      7.8238      9.6129    
  11.440      13.067      14.313      15.070      17.924      17.646      16.878      15.587      13.801      11.664    
  9.4400      7.4498      5.8499      4.6567      3.8488      3.3937      3.2661      3.4580      3.9817      4.8652    
  6.1405      7.8238      9.8835      12.116      14.198      15.888      17.071      17.738      19.080      18.981    
  18.615      17.772      16.290      14.187      11.702      9.2366      7.1891      5.6699      4.6484      4.0747    
  3.9089      4.1378      4.7797      5.8776      7.4810      9.6129      12.116      14.567      16.584      17.959    
  18.709      19.015      18.073      18.280      18.656      18.717      18.004      16.334      13.891      11.134    
  8.6310      6.7507      5.4912      4.7844      4.5731      4.8372      5.6016      6.9265      8.8794      11.440    
  14.198      16.584      18.158      18.772      18.646      18.256      14.925      15.527      16.926      18.278    
  18.734      17.851      15.730      12.894      10.048      7.8060      6.3040      5.4596      5.1981      5.4912    
  6.3704      7.9124      10.198      13.067      15.888      17.959      18.772      18.252      16.868      15.482    
  10.606      11.605      14.099      16.868      18.646      18.709      17.071      14.313      11.267      8.7193    
  6.9988      6.0278      5.7161      6.0278      6.9988      8.7193      11.267      14.313      17.071      18.709    
  18.646      16.868      14.099      11.605      6.8159      8.0971      11.446      15.352      18.215      19.081    
  17.889      15.260      12.122      9.3710      7.4876      6.4191      6.0639      6.3798      7.4046      9.2372    
  11.941      15.070      17.738      19.015      18.256      15.482      11.605      8.2047      11.586      12.397    
  14.630      17.167      18.798      18.801      17.156      14.405      11.352      8.7737      7.0136      5.9993    
  5.6391      5.8922      6.7878      8.4107      10.848      13.850      16.676      18.515      18.771      17.367    
  14.925      12.607      12.397      13.114      15.145      17.445      18.875      18.747      17.041      14.279    
  11.243      8.6882      6.9400      5.9253      5.5540      5.7847      6.6435      8.2118      10.579      13.538    
  16.388      18.336      18.792      17.653      15.482      13.361      14.630      15.145      16.612      18.190    
  18.956      18.360      16.420      13.621      10.675      8.2578      6.6038      5.6359      5.2712      5.4710    
  6.2571      7.7019      9.8916      12.720      15.587      17.772      18.717      18.278      16.868      15.352    
  17.167      17.445      18.190      18.822      18.710      17.504      15.281      12.482      9.7245      7.5466    
  6.0525      5.1698      4.8278      4.9928      5.6818      6.9544      8.8859      11.469      14.283      16.708    
  18.237      18.675      18.252      17.541      18.798      18.875      18.956      18.710      17.794      16.060    
  13.652      10.971      8.5249      6.6521      5.3584      4.5854      4.2778      4.4088      4.9901      6.0673    
  7.7002      9.9241      12.545      15.076      17.069      18.285      18.772      18.826      18.801      18.747    
  18.360      17.504      16.060      14.044      11.659      9.2626      7.2295      5.6813      4.6017      3.9484    
  3.6819      3.7825      4.2579      5.1397      6.4710      8.2828      10.540      12.956      15.146      16.844    
  17.959      18.566      17.156      17.041      16.420      15.281      13.652      11.659      9.5358      7.5817    
  5.9682      4.7293      3.8553      3.3193      3.0957      3.1716      3.5511      4.2545      5.3093      6.7363    
  8.5267      10.594      12.675      14.498      15.888      16.775      14.405      14.279      13.621      12.482    
  10.971      9.2626      7.5817      6.0816      4.8345      3.8664      3.1750      2.7457      2.5635      2.6203    
  2.9186      3.4699      4.2901      5.3898      6.7603      8.3561      10.074      11.713      13.067      13.991    
  11.352      11.243      10.675      9.7245      8.5249      7.2295      5.9682      4.8345      3.8827      3.1359    
  2.5968      2.2589      2.1140      2.1574      2.3905      2.8197      3.4532      4.2945      5.3332      6.5335    
  7.8238      9.0930      10.198      10.988      8.7737      8.6882      8.2578      7.5466      6.6521      5.6813    
  4.7293      3.8664      3.1359      2.5582      2.1388      1.8750      1.7620      1.7971      1.9812      2.3183    
  2.8129      3.4645      4.2614      5.1732      6.1442      7.0915      7.9124      8.5013      7.0136      6.9400    
  6.6038      6.0525      5.3584      4.6017      3.8553      3.1750      2.5968      2.1388      1.8066      1.5987    
  1.5115      1.5429      1.6939      1.9680      2.3683      2.8928      3.5295      4.2511      5.0109      5.7434    
  6.3704      6.8141      5.9993      5.9253      5.6359      5.1698      4.5854      3.9484      3.3193      2.7457    
  2.2589      1.8750      1.5987      1.4283      1.3602      1.3925      1.5264      1.7654      2.1125      2.5654    
  3.1122      3.7269      4.3674      4.9771      5.4912      5.8476      5.6391      5.5540      5.2712      4.8278    
  4.2778      3.6819      3.0957      2.5635      2.1140      1.7620      1.5115      1.3602      1.3044      1.3422    
  1.4750      1.7063      2.0390      2.4707      2.9891      3.5681      4.1664      4.7298      5.1981      5.5148    
  5.8922      5.7847      5.4710      4.9928      4.4088      3.7825      3.1716      2.6203      2.1574      1.7971    
  1.5429      1.3925      1.3422      1.3902      1.5380      1.7890      2.1457      2.6051      3.1536      3.7633    
  4.3904      4.9771      5.4596      5.7787      6.7878      6.6435      6.2571      5.6818      4.9901      4.2579    
  3.5511      2.9186      2.3905      1.9812      1.6939      1.5264      1.4750      1.5380      1.7171      2.0156    
  2.4359      2.9740      3.6148      4.3266      5.0587      5.7434      6.3040      6.6690      8.4107      8.2118    
  7.7019      6.9544      6.0673      5.1397      4.2545      3.4699      2.8197      2.3183      1.9680      1.7654    
  1.7063      1.7890      2.0156      2.3905      2.9166      3.5903      4.3947      5.2922      6.2201      7.0915    
  7.8060      8.2682      10.848      10.579      9.8916      8.8859      7.7002      6.4710      5.3093      4.2901    
  3.4532      2.8129      2.3683      2.1125      2.0390      2.1457      2.4359      2.9166      3.5943      4.4676    
  5.5183      6.7000      7.9306      9.0930      10.048      10.663      13.850      13.538      12.720      11.469    
  9.9241      8.2828      6.7363      5.3898      4.2945      3.4645      2.8928      2.5654      2.4707      2.6051    
  2.9740      3.5903      4.4676      5.6101      6.9978      8.5709      10.210      11.713      12.894      13.628    
  16.676      16.388      15.587      14.283      12.545      10.540      8.5267      6.7603      5.3332      4.2614    
  3.5295      3.1122      2.9891      3.1536      3.6148      4.3947      5.5183      6.9978      8.8101      10.841    
  12.819      14.498      15.730      16.458      18.515      18.336      17.772      16.708      15.076      12.956    
  10.594      8.3561      6.5335      5.1732      4.2511      3.7269      3.5681      3.7633      4.3266      5.2922    
  6.7000      8.5709      10.841      13.194      15.272      16.844      17.851      18.369      18.771      18.792    
  18.717      18.237      17.069      15.146      12.675      10.074      7.8238      6.1442      5.0109      4.3674    
  4.1664      4.3904      5.0587      6.2201      7.9306      10.210      12.819      15.272      17.158      18.285    
  18.734      18.793      17.367      17.653      18.278      18.675      18.285      16.844      14.498      11.713    
  9.0930      7.0915      5.7434      4.9771      4.7298      4.9771      5.7434      7.0915      9.0930      11.713    
  14.498      16.844      18.285      18.675      18.278      17.653      14.925      15.482      16.868      18.252    
  18.772      17.959      15.888      13.067      10.198      7.9124      6.3704      5.4912      5.1981      5.4596    
  6.3040      7.8060      10.048      12.894      15.730      17.851      18.734      18.278      16.926      15.527    
  12.607      13.361      15.352      17.541      18.826      18.566      16.775      13.991      10.988      8.5013    
  6.8141      5.8476      5.5148      5.7787      6.6690      8.2682      10.663      13.628      16.458      18.369    
  18.793      17.653      15.527      13.488      16.702      17.049      17.965      18.798      18.847      17.731    
  15.527      12.701      9.8942      7.6757      6.1648      5.2846      4.9621      5.1646      5.9130      7.2729    
  9.3237      12.023      14.877      17.236      18.590      18.771      18.073      17.153      17.049      17.354    
  18.166      18.875      18.822      17.642      15.417      12.597      9.8114      7.6118      6.1087      5.2268    
  4.8945      5.0784      5.7973      7.1141      9.1061      11.752      14.593      16.999      18.460      18.793    
  18.256      17.457      17.965      18.166      18.659      18.956      18.529      17.103      14.784      12.000    
  9.3310      7.2533      5.8269      4.9831      4.6562      4.8151      5.4752      6.6924      8.5373      11.024    
  13.801      16.290      18.004      18.734      18.646      18.215      18.798      18.875      18.956      18.710    
  17.794      16.060      13.652      10.971      8.5249      6.6521      5.3584      4.5854      4.2778      4.4088    
  4.9901      6.0673      7.7002      9.9241      12.545      15.076      17.069      18.285      18.772      18.826    
  18.847      18.822      18.529      17.794      16.454      14.490      12.094      9.6282      7.5055      5.8890    
  4.7632      4.0828      3.8050      3.9086      4.4018      5.3187      6.7058      8.5958      10.934      13.384    
  15.546      17.158      18.158      18.660      17.731      17.642      17.103      16.060      14.490      12.483    
  10.261      8.1489      6.3968      5.0540      4.1093      3.5311      3.2893      3.3687      3.7742      4.5294    
  5.6669      7.2105      9.1496      11.345      13.476      15.272      16.584      17.389      15.527      15.417    