S                                       
   1.00000000000000     
     2.580697    0.000000   -0.065568
    -0.067255    2.579821   -0.065568
     0.000000    0.000000    2.581530
   S 
     1
Direct
  0.000000  0.000000  0.000000
 
   24   24   24
 -.21522006481E+01 -.81356295869E-01 0.52271773488E+01 0.11585661795E+02 0.16701788850E+02
 0.19194963342E+02 0.18909485150E+02 0.16596636255E+02 0.13386729932E+02 0.10371253501E+02
 0.82584949662E+01 0.70709558150E+01 0.66910728317E+01 0.70709558150E+01 0.82584949662E+01
 0.10371253501E+02 0.13386729932E+02 0.16596636255E+02 0.18909485150E+02 0.19194963342E+02
 0.16701788850E+02 0.11585661795E+02 0.52271773488E+01 -.81356295869E-01 -.81356295869E-01
 0.17467501503E+01 0.65805880845E+01 0.12396964029E+02 0.17049207429E+02 0.19229132244E+02
 0.18780055238E+02 0.16412593622E+02 0.13210071002E+02 0.10226619067E+02 0.81381259699E+01
 0.69553309310E+01 0.65627453749E+01 0.69114829560E+01 0.80451839228E+01 0.10076448064E+02
 0.13014372087E+02 0.16217153117E+02 0.18641552609E+02 0.19199774167E+02 0.17153218424E+02
 0.12607395011E+02 0.68158681196E+01 0.19015684186E+01 0.52271773488E+01 0.65805880845E+01
 0.10255571850E+02 0.14630359038E+02 0.17965416997E+02 0.19198798379E+02 0.18223576152E+02
 0.15671417407E+02 0.12504838520E+02 0.96655268384E+01 0.77020657764E+01 0.65809518057E+01
 0.61956533080E+01 0.64998309963E+01 0.75304532657E+01 0.93887312168E+01 0.12133589581E+02
 0.15285577536E+02 0.17924464907E+02 0.19080097816E+02 0.18073092468E+02 0.14924524562E+02
 0.10605512411E+02 0.68158681196E+01 0.11585661795E+02 0.12396964029E+02 0.14630359038E+02
 0.17166619752E+02 0.18797733074E+02 0.18800995425E+02 0.17156278511E+02 0.14405301039E+02
 0.11352195675E+02 0.87737177642E+01 0.70136404224E+01 0.59993290487E+01 0.56390699271E+01
 0.58922267267E+01 0.67878139883E+01 0.84106585680E+01 0.10848129174E+02 0.13849534628E+02
 0.16675842951E+02 0.18515067408E+02 0.18770804647E+02 0.17366672065E+02 0.14924524562E+02
 0.12607395011E+02 0.16701788850E+02 0.17049207429E+02 0.17965416997E+02 0.18797733074E+02
 0.18847355025E+02 0.17730520462E+02 0.15527250970E+02 0.12700532431E+02 0.98942300401E+01
 0.76757097151E+01 0.61647732734E+01 0.52845852991E+01 0.49621246980E+01 0.51645953969E+01
 0.59129669958E+01 0.72729299640E+01 0.93237291641E+01 0.12023252372E+02 0.14876525538E+02
 0.17236119015E+02 0.18589789062E+02 0.18770804647E+02 0.18073092468E+02 0.17153218424E+02
 0.19194963342E+02 0.19229132244E+02 0.19198798379E+02 0.18800995425E+02 0.17730520462E+02
 0.15876257914E+02 0.13406906371E+02 0.10723778383E+02 0.83242854965E+01 0.65037278378E+01
 0.52542387459E+01 0.45171561001E+01 0.42392743855E+01 0.43963773137E+01 0.50023127837E+01
 0.61036226571E+01 0.77599018397E+01 0.10005406899E+02 0.12645775413E+02 0.15201481753E+02
 0.17236119015E+02 0.18515067408E+02 0.19080097816E+02 0.19199774167E+02 0.18909485150E+02
 0.18780055238E+02 0.18223576152E+02 0.17156278511E+02 0.15527250970E+02 0.13406906371E+02
 0.11022622745E+02 0.87222677766E+01 0.68160862539E+01 0.53712777793E+01 0.43687767501E+01
 0.37691776067E+01 0.35373312795E+01 0.36569538814E+01 0.41363660587E+01 0.50055209360E+01
 0.63043074835E+01 0.80613517689E+01 0.10253685629E+02 0.12645775413E+02 0.14876525538E+02
 0.16675842951E+02 0.17924464907E+02 0.18641552609E+02 0.16596636255E+02 0.16412593622E+02
 0.15671417407E+02 0.14405301039E+02 0.12700532431E+02 0.10723778383E+02 0.87222677766E+01
 0.69410330538E+01 0.54784978806E+01 0.43589087304E+01 0.35722021039E+01 0.30952893234E+01
 0.29071390264E+01 0.29977530484E+01 0.33717664346E+01 0.40467900505E+01 0.50464573967E+01
 0.63876726416E+01 0.80613517689E+01 0.10005406899E+02 0.12023252372E+02 0.13849534628E+02
 0.15285577536E+02 0.16217153117E+02 0.13386729932E+02 0.13210071002E+02 0.12504838520E+02
 0.11352195675E+02 0.98942300401E+01 0.83242854965E+01 0.68160862539E+01 0.54784978806E+01
 0.43705413456E+01 0.35129069473E+01 0.29032742031E+01 0.25298051927E+01 0.23807559624E+01
 0.24503641920E+01 0.27412654659E+01 0.32633896130E+01 0.40293818316E+01 0.50464573967E+01
 0.63043074835E+01 0.77599018397E+01 0.93237291641E+01 0.10848129174E+02 0.12133589581E+02
 0.13014372087E+02 0.10371253501E+02 0.10226619067E+02 0.96655268384E+01 0.87737177642E+01
 0.76757097151E+01 0.65037278378E+01 0.53712777793E+01 0.43589087304E+01 0.35129069473E+01
 0.28524786053E+01 0.23797670704E+01 0.20889680797E+01 0.19732316826E+01 0.20291476946E+01
 0.22585979826E+01 0.26677565278E+01 0.32633896130E+01 0.40467900505E+01 0.50055209360E+01
 0.61036226571E+01 0.72729299640E+01 0.84106585680E+01 0.93887312168E+01 0.10076448064E+02
 0.82584949662E+01 0.81381259699E+01 0.77020657764E+01 0.70136404224E+01 0.61647732734E+01
 0.52542387459E+01 0.43687767501E+01 0.35722021039E+01 0.29032742031E+01 0.23797670704E+01
 0.20052616810E+01 0.17761097877E+01 0.16872720986E+01 0.17363347938E+01 0.19251234711E+01
 0.22585979826E+01 0.27412654659E+01 0.33717664346E+01 0.41363660587E+01 0.50023127837E+01
 0.59129669958E+01 0.67878139883E+01 0.75304532657E+01 0.80451839228E+01 0.70709558150E+01
 0.69553309310E+01 0.65809518057E+01 0.59993290487E+01 0.52845852991E+01 0.45171561001E+01
 0.37691776067E+01 0.30952893234E+01 0.25298051927E+01 0.20889680797E+01 0.17761097877E+01
 0.15877325352E+01 0.15190529758E+01 0.15679239856E+01 0.17363347938E+01 0.20291476946E+01
 0.24503641920E+01 0.29977530484E+01 0.36569538814E+01 0.43963773137E+01 0.51645953969E+01
 0.58922267267E+01 0.64998309963E+01 0.69114829560E+01 0.66910728317E+01 0.65627453749E+01
 0.61956533080E+01 0.56390699271E+01 0.49621246980E+01 0.42392743855E+01 0.35373312795E+01
 0.29071390264E+01 0.23807559624E+01 0.19732316826E+01 0.16872720986E+01 0.15190529758E+01
 0.14636792197E+01 0.15190529758E+01 0.16872720986E+01 0.19732316826E+01 0.23807559624E+01
 0.29071390264E+01 0.35373312795E+01 0.42392743855E+01 0.49621246980E+01 0.56390699271E+01
 0.61956533080E+01 0.65627453749E+01 0.70709558150E+01 0.69114829560E+01 0.64998309963E+01
 0.58922267267E+01 0.51645953969E+01 0.43963773137E+01 0.36569538814E+01 0.29977530484E+01
 0.24503641920E+01 0.20291476946E+01 0.17363347938E+01 0.15679239856E+01 0.15190529758E+01
 0.15877325352E+01 0.17761097877E+01 0.20889680797E+01 0.25298051927E+01 0.30952893234E+01
 0.37691776067E+01 0.45171561001E+01 0.52845852991E+01 0.59993290487E+01 0.65809518057E+01
 0.69553309310E+01 0.82584949662E+01 0.80451839228E+01 0.75304532657E+01 0.67878139883E+01
 0.59129669958E+01 0.50023127837E+01 0.41363660587E+01 0.33717664346E+01 0.27412654659E+01
 0.22585979826E+01 0.19251234711E+01 0.17363347938E+01 0.16872720986E+01 0.17761097877E+01
 0.20052616810E+01 0.23797670704E+01 0.29032742031E+01 0.35722021039E+01 0.43687767501E+01
 0.52542387459E+01 0.61647732734E+01 0.70136404224E+01 0.77020657764E+01 0.81381259699E+01
 0.10371253501E+02 0.10076448064E+02 0.93887312168E+01 0.84106585680E+01 0.72729299640E+01
 0.61036226571E+01 0.50055209360E+01 0.40467900505E+01 0.32633896130E+01 0.26677565278E+01
 0.22585979826E+01 0.20291476946E+01 0.19732316826E+01 0.20889680797E+01 0.23797670704E+01
 0.28524786053E+01 0.35129069473E+01 0.43589087304E+01 0.53712777793E+01 0.65037278378E+01
 0.76757097151E+01 0.87737177642E+01 0.96655268384E+01 0.10226619067E+02 0.13386729932E+02
 0.13014372087E+02 0.12133589581E+02 0.10848129174E+02 0.93237291641E+01 0.77599018397E+01
 0.63043074835E+01 0.50464573967E+01 0.40293818316E+01 0.32633896130E+01 0.27412654659E+01
 0.24503641920E+01 0.23807559624E+01 0.25298051927E+01 0.29032742031E+01 0.35129069473E+01
 0.43705413456E+01 0.54784978806E+01 0.68160862539E+01 0.83242854965E+01 0.98942300401E+01
 0.11352195675E+02 0.12504838520E+02 0.13210071002E+02 0.16596636255E+02 0.16217153117E+02
 0.15285577536E+02 0.13849534628E+02 0.12023252372E+02 0.10005406899E+02 0.80613517689E+01
 0.63876726416E+01 0.50464573967E+01 0.40467900505E+01 0.33717664346E+01 0.29977530484E+01
 0.29071390264E+01 0.30952893234E+01 0.35722021039E+01 0.43589087304E+01 0.54784978806E+01
 0.69410330538E+01 0.87222677766E+01 0.10723778383E+02 0.12700532431E+02 0.14405301039E+02
 0.15671417407E+02 0.16412593622E+02 0.18909485150E+02 0.18641552609E+02 0.17924464907E+02
 0.16675842951E+02 0.14876525538E+02 0.12645775413E+02 0.10253685629E+02 0.80613517689E+01
 0.63043074835E+01 0.50055209360E+01 0.41363660587E+01 0.36569538814E+01 0.35373312795E+01
 0.37691776067E+01 0.43687767501E+01 0.53712777793E+01 0.68160862539E+01 0.87222677766E+01
 0.11022622745E+02 0.13406906371E+02 0.15527250970E+02 0.17156278511E+02 0.18223576152E+02
 0.18780055238E+02 0.19194963342E+02 0.19199774167E+02 0.19080097816E+02 0.18515067408E+02
 0.17236119015E+02 0.15201481753E+02 0.12645775413E+02 0.10005406899E+02 0.77599018397E+01
 0.61036226571E+01 0.50023127837E+01 0.43963773137E+01 0.42392743855E+01 0.45171561001E+01
 0.52542387459E+01 0.65037278378E+01 0.83242854965E+01 0.10723778383E+02 0.13406906371E+02
 0.15876257914E+02 0.17730520462E+02 0.18800995425E+02 0.19198798379E+02 0.19229132244E+02
 0.16701788850E+02 0.17153218424E+02 0.18073092468E+02 0.18770804647E+02 0.18589789062E+02
 0.17236119015E+02 0.14876525538E+02 0.12023252372E+02 0.93237291641E+01 0.72729299640E+01
 0.59129669958E+01 0.51645953969E+01 0.49621246980E+01 0.52845852991E+01 0.61647732734E+01
 0.76757097151E+01 0.98942300401E+01 0.12700532431E+02 0.15527250970E+02 0.17730520462E+02
 0.18847355025E+02 0.18797733074E+02 0.17965416997E+02 0.17049207429E+02 0.11585661795E+02
 0.12607395011E+02 0.14924524562E+02 0.17366672065E+02 0.18770804647E+02 0.18515067408E+02
 0.16675842951E+02 0.13849534628E+02 0.10848129174E+02 0.84106585680E+01 0.67878139883E+01
 0.58922267267E+01 0.56390699271E+01 0.59993290487E+01 0.70136404224E+01 0.87737177642E+01
 0.11352195675E+02 0.14405301039E+02 0.17156278511E+02 0.18800995425E+02 0.18797733074E+02
 0.17166619752E+02 0.14630359038E+02 0.12396964029E+02 0.52271773488E+01 0.68158681196E+01
 0.10605512411E+02 0.14924524562E+02 0.18073092468E+02 0.19080097816E+02 0.17924464907E+02
 0.15285577536E+02 0.12133589581E+02 0.93887312168E+01 0.75304532657E+01 0.64998309963E+01
 0.61956533080E+01 0.65809518057E+01 0.77020657764E+01 0.96655268384E+01 0.12504838520E+02
 0.15671417407E+02 0.18223576152E+02 0.19198798379E+02 0.17965416997E+02 0.14630359038E+02
 0.10255571850E+02 0.65805880845E+01 -.81356295869E-01 0.19015684186E+01 0.68158681196E+01
 0.12607395011E+02 0.17153218424E+02 0.19199774167E+02 0.18641552609E+02 0.16217153117E+02
 0.13014372087E+02 0.10076448064E+02 0.80451839228E+01 0.69114829560E+01 0.65627453749E+01
 0.69553309310E+01 0.81381259699E+01 0.10226619067E+02 0.13210071002E+02 0.16412593622E+02
 0.18780055238E+02 0.19229132244E+02 0.17049207429E+02 0.12396964029E+02 0.65805880845E+01
 0.17467501503E+01 -.81356295869E-01 0.17467501503E+01 0.65805880845E+01 0.12396964029E+02
 0.17049207429E+02 0.19229132244E+02 0.18780055238E+02 0.16412593622E+02 0.13210071002E+02
 0.10226619067E+02 0.81381259699E+01 0.69553309310E+01 0.65627453749E+01 0.69114829560E+01
 0.80451839228E+01 0.10076448064E+02 0.13014372087E+02 0.16217153117E+02 0.18641552609E+02
 0.19199774167E+02 0.17153218424E+02 0.12607395011E+02 0.68158681196E+01 0.19015684186E+01
 0.17467501503E+01 0.33635531717E+01 0.77782511860E+01 0.13114011687E+02 0.17354318436E+02
 0.19256127173E+02 0.18662298043E+02 0.16247246635E+02 0.13052165224E+02 0.10097556189E+02
 0.80299435663E+01 0.68503702235E+01 0.64452266387E+01 0.67646691537E+01 0.78483870787E+01
 0.98043221124E+01 0.12666136379E+02 0.15856185286E+02 0.18375394081E+02 0.19174071341E+02
 0.17524775077E+02 0.13488193181E+02 0.82047031576E+01 0.36460940066E+01 0.65805880845E+01
 0.77782511860E+01 0.11135961789E+02 0.15144820576E+02 0.18166336746E+02 0.19189683343E+02
 0.18108109239E+02 0.15525188655E+02 0.12370101212E+02 0.95572334152E+01 0.76102531261E+01
 0.64905540599E+01 0.60932661769E+01 0.63712083398E+01 0.73579024445E+01 0.91503534605E+01
 0.11820017304E+02 0.14945945287E+02 0.17646395698E+02 0.18981482244E+02 0.18279868831E+02
 0.15526894763E+02 0.11605230780E+02 0.80970828508E+01 0.12396964029E+02 0.13114011687E+02
 0.15144820576E+02 0.17445302768E+02 0.18875339738E+02 0.18747078760E+02 0.17040897341E+02
 0.14279350342E+02 0.11243103691E+02 0.86881592289E+01 0.69399595099E+01 0.59253497779E+01
 0.55540331860E+01 0.57846957396E+01 0.66435447925E+01 0.82118107825E+01 0.10578714098E+02
 0.13538493677E+02 0.16387540322E+02 0.18335764093E+02 0.18791671427E+02 0.17653435259E+02
 0.15482179771E+02 0.13361069434E+02 0.17049207429E+02 0.17354318436E+02 0.18166336746E+02
 0.18875339738E+02 0.18821682080E+02 0.17642001851E+02 0.15416632712E+02 0.12596788940E+02
 0.98113724020E+01 0.76118239863E+01 0.61086522918E+01 0.52268450073E+01 0.48945225840E+01
 0.50783887746E+01 0.57972934572E+01 0.71140710410E+01 0.91061236910E+01 0.11751657698E+02
 0.14593424807E+02 0.16999376111E+02 0.18460290325E+02 0.18793412707E+02 0.18255932174E+02
 0.17456923546E+02 0.19229132244E+02 0.19256127173E+02 0.19189683343E+02 0.18747078760E+02
 0.17642001851E+02 0.15773178810E+02 0.13308978617E+02 0.10643842301E+02 0.82656775332E+01
 0.64583068767E+01 0.52133716482E+01 0.44738787184E+01 0.41874760424E+01 0.43296071406E+01
 0.49126464906E+01 0.59810645610E+01 0.75928061973E+01 0.97842520398E+01 0.12389519710E+02
 0.14946157923E+02 0.17020500182E+02 0.18369420493E+02 0.19015166714E+02 0.19201428577E+02
 0.18780055238E+02 0.18662298043E+02 0.18108109239E+02 0.17040897341E+02 0.15416632712E+02
 0.13308978617E+02 0.10944184658E+02 0.86659232365E+01 0.67762369019E+01 0.53400805310E+01
 0.43399307554E+01 0.37376368312E+01 0.34986386142E+01 0.36064362514E+01 0.40684089308E+01
 0.49131506860E+01 0.61793251244E+01 0.78953276094E+01 0.10043344459E+02 0.12409588565E+02
 0.14638700395E+02 0.16457551675E+02 0.17738097020E+02 0.18488006283E+02 0.16412593622E+02
 0.16247246635E+02 0.15525188655E+02 0.14279350342E+02 0.12596788940E+02 0.10643842301E+02
 0.86659232365E+01 0.69028845514E+01 0.54516309313E+01 0.43376014979E+01 0.35519394969E+01
 0.30724300578E+01 0.28784246038E+01 0.29597929233E+01 0.33206066983E+01 0.39776638672E+01
 0.49538260433E+01 0.62657186760E+01 0.79050988723E+01 0.98139317813E+01 0.11809320785E+02
 0.13628499965E+02 0.15070122612E+02 0.16015488940E+02 0.13210071002E+02 0.13052165224E+02
 0.12370101212E+02 0.11243103691E+02 0.98113724020E+01 0.82656775332E+01 0.67762369019E+01
 0.54516309313E+01 0.43515496908E+01 0.34976318447E+01 0.28884268489E+01 0.25126927847E+01
 0.23589352970E+01 0.24213087106E+01 0.27021107224E+01 0.32108049372E+01 0.39596132728E+01
 0.49556182879E+01 0.61890210747E+01 0.76183273125E+01 0.91567766630E+01 0.10662647679E+02
 0.11941115645E+02 0.12825468100E+02 0.10226619067E+02 0.10097556189E+02 0.95572334152E+01
 0.86881592289E+01 0.76118239863E+01 0.64583068767E+01 0.53400805310E+01 0.43376014979E+01
 0.34976318447E+01 0.28400565560E+01 0.23676447058E+01 0.20750227611E+01 0.19555201678E+01
 0.20056662112E+01 0.22271118745E+01 0.26257405344E+01 0.32081033992E+01 0.39755178505E+01
 0.49160181587E+01 0.59947832571E+01 0.71455732175E+01 0.82681679997E+01 0.92371829976E+01
 0.99239644034E+01 0.81381259699E+01 0.80299435663E+01 0.76102531261E+01 0.69399595099E+01
 0.61086522918E+01 0.52133716482E+01 0.43399307554E+01 0.35519394969E+01 0.28884268489E+01
 0.23676447058E+01 0.19936532571E+01 0.17631514723E+01 0.16712480709E+01 0.17154755034E+01
 0.18974653442E+01 0.22219543507E+01 0.26933339390E+01 0.33103792402E+01 0.40598800787E+01
 0.49101132845E+01 0.58059992121E+01 0.66689716687E+01 0.74046037711E+01 0.79186682183E+01
 0.69553309310E+01 0.68503702235E+01 0.64905540599E+01 0.59253497779E+01 0.52268450073E+01
 0.44738787184E+01 0.37376368312E+01 0.30724300578E+01 0.25126927847E+01 0.20750227611E+01
 0.17631514723E+01 0.15738868418E+01 0.15025775774E+01 0.15470219685E+01 0.17090245978E+01
 0.19932470233E+01 0.24036184370E+01 0.29381080103E+01 0.35829455638E+01 0.43075841429E+01
 0.50620616150E+01 0.57787246706E+01 0.63798138273E+01 0.67906285086E+01 0.65627453749E+01
 0.64452266387E+01 0.60932661769E+01 0.55540331860E+01 0.48945225840E+01 0.41874760424E+01
 0.34986386142E+01 0.28784246038E+01 0.23589352970E+01 0.19555201678E+01 0.16712480709E+01
 0.15025775774E+01 0.14447336321E+01 0.14955610191E+01 0.16569784052E+01 0.19336936054E+01
 0.23294813317E+01 0.28418712952E+01 0.34564553678E+01 0.41422871716E+01 0.48500761349E+01
 0.55148391913E+01 0.60639077197E+01 0.64294782103E+01 0.69114829560E+01 0.67646691537E+01
 0.63712083398E+01 0.57846957396E+01 0.50783887746E+01 0.43296071406E+01 0.36064362514E+01
 0.29597929233E+01 0.24213087106E+01 0.20056662112E+01 0.17154755034E+01 0.15470219685E+01
 0.14955610191E+01 0.15590436618E+01 0.17394380452E+01 0.20413402954E+01 0.24681936075E+01
 0.30168967965E+01 0.36718749329E+01 0.44000438905E+01 0.51485882582E+01 0.58476403623E+01
 0.64190902532E+01 0.67906285086E+01 0.80451839228E+01 0.78483870787E+01 0.73579024445E+01
 0.66435447925E+01 0.57972934572E+01 0.49126464906E+01 0.40684089308E+01 0.33206066983E+01
 0.27021107224E+01 0.22271118745E+01 0.18974653442E+01 0.17090245978E+01 0.16569784052E+01
 0.17394380452E+01 0.19586067530E+01 0.23192766038E+01 0.28249551556E+01 0.34722091270E+01
 0.42439347772E+01 0.51028191611E+01 0.59874184086E+01 0.68141474557E+01 0.74876218220E+01
 0.79186682183E+01 0.10076448064E+02 0.98043221124E+01 0.91503534605E+01 0.82118107825E+01
 0.71140710410E+01 0.59810645610E+01 0.49131506860E+01 0.39776638672E+01 0.32108049372E+01
 0.26257405344E+01 0.22219543507E+01 0.19932470233E+01 0.19336936054E+01 0.20413402954E+01
 0.23192766038E+01 0.27739090028E+01 0.34106571439E+01 0.42273286907E+01 0.52054084064E+01
 0.63004995848E+01 0.74354198722E+01 0.85012984701E+01 0.93709511566E+01 0.99239644034E+01
 0.13014372087E+02 0.12666136379E+02 0.11820017304E+02 0.10578714098E+02 0.91061236910E+01
 0.75928061973E+01 0.61793251244E+01 0.49538260433E+01 0.39596132728E+01 0.32081033992E+01
 0.26933339390E+01 0.24036184370E+01 0.23294813317E+01 0.24681936075E+01 0.28249551556E+01
 0.34106571439E+01 0.42362949008E+01 0.53038500635E+01 0.65935052729E+01 0.80490538804E+01
 0.95671670622E+01 0.10987926951E+02 0.12122040991E+02 0.12825468100E+02 0.16217153117E+02
 0.15856185286E+02 0.14945945287E+02 0.13538493677E+02 0.11751657698E+02 0.97842520398E+01
 0.78953276094E+01 0.62657186760E+01 0.49556182879E+01 0.39755178505E+01 0.33103792402E+01
 0.29381080103E+01 0.28418712952E+01 0.30168967965E+01 0.34722091270E+01 0.42273286907E+01
 0.53038500635E+01 0.67112617937E+01 0.84268665389E+01 0.10364659327E+02 0.12301511166E+02
 0.13990827568E+02 0.15260328667E+02 0.16015488940E+02 0.18641552609E+02 0.18375394081E+02
 0.17646395698E+02 0.16387540322E+02 0.14593424807E+02 0.12389519710E+02 0.10043344459E+02
 0.79050988723E+01 0.61890210747E+01 0.49160181587E+01 0.40598800787E+01 0.35829455638E+01
 0.34564553678E+01 0.36718749329E+01 0.42439347772E+01 0.52054084064E+01 0.65935052729E+01
 0.84268665389E+01 0.10654136384E+02 0.12998052889E+02 0.15116257029E+02 0.16775237115E+02
 0.17888767686E+02 0.18488006283E+02 0.19199774167E+02 0.19174071341E+02 0.18981482244E+02
 0.18335764093E+02 0.16999376111E+02 0.14946157923E+02 0.12409588565E+02 0.98139317813E+01
 0.76183273125E+01 0.59947832571E+01 0.49101132845E+01 0.43075841429E+01 0.41422871716E+01
 0.44000438905E+01 0.51028191611E+01 0.63004995848E+01 0.80490538804E+01 0.10364659327E+02
 0.12998052889E+02 0.15472102457E+02 0.17388992031E+02 0.18565570937E+02 0.19081098865E+02
 0.19201428577E+02 0.17153218424E+02 0.17524775077E+02 0.18279868831E+02 0.18791671427E+02
 0.18460290325E+02 0.17020500182E+02 0.14638700395E+02 0.11809320785E+02 0.91567766630E+01
 0.71455732175E+01 0.58059992121E+01 0.50620616150E+01 0.48500761349E+01 0.51485882582E+01
 0.59874184086E+01 0.74354198722E+01 0.95671670622E+01 0.12301511166E+02 0.15116257029E+02
 0.17388992031E+02 0.18660353845E+02 0.18825803112E+02 0.18214602106E+02 0.17456923546E+02
 0.12607395011E+02 0.13488193181E+02 0.15526894763E+02 0.17653435259E+02 0.18793412707E+02
 0.18369420493E+02 0.16457551675E+02 0.13628499965E+02 0.10662647679E+02 0.82681679997E+01
 0.66689716687E+01 0.57787246706E+01 0.55148391913E+01 0.58476403623E+01 0.68141474557E+01
 0.85012984701E+01 0.10987926951E+02 0.13990827568E+02 0.16775237115E+02 0.18565570937E+02
 0.18825803112E+02 0.17540837917E+02 0.15351649227E+02 0.13361069434E+02 0.68158681196E+01
 0.82047031576E+01 0.11605230780E+02 0.15482179771E+02 0.18255932174E+02 0.19015166714E+02
 0.17738097020E+02 0.15070122612E+02 0.11941115645E+02 0.92371829976E+01 0.74046037711E+01
 0.63798138273E+01 0.60639077197E+01 0.64190902532E+01 0.74876218220E+01 0.93709511566E+01
 0.12122040991E+02 0.15260328667E+02 0.17888767686E+02 0.19081098865E+02 0.18214602106E+02
 0.15351649227E+02 0.11446357489E+02 0.80970828508E+01 0.19015684186E+01 0.36460940066E+01
 0.80970828508E+01 0.13361069434E+02 0.17456923546E+02 0.19201428577E+02 0.18488006283E+02
 0.16015488940E+02 0.12825468100E+02 0.99239644034E+01 0.79186682183E+01 0.67906285086E+01
 0.64294782103E+01 0.67906285086E+01 0.79186682183E+01 0.99239644034E+01 0.12825468100E+02
 0.16015488940E+02 0.18488006283E+02 0.19201428577E+02 0.17456923546E+02 0.13361069434E+02
 0.80970828508E+01 0.36460940066E+01 0.52271773488E+01 0.65805880845E+01 0.10255571850E+02
 0.14630359038E+02 0.17965416997E+02 0.19198798379E+02 0.18223576152E+02 0.15671417407E+02
 0.12504838520E+02 0.96655268384E+01 0.77020657764E+01 0.65809518057E+01 0.61956533080E+01
 0.64998309963E+01 0.75304532657E+01 0.93887312168E+01 0.12133589581E+02 0.15285577536E+02
 0.17924464907E+02 0.19080097816E+02 0.18073092468E+02 0.14924524562E+02 0.10605512411E+02
 0.68158681196E+01 0.65805880845E+01 0.77782511860E+01 0.11135961789E+02 0.15144820576E+02
 0.18166336746E+02 0.19189683343E+02 0.18108109239E+02 0.15525188655E+02 0.12370101212E+02
 0.95572334152E+01 0.76102531261E+01 0.64905540599E+01 0.60932661769E+01 0.63712083398E+01
 0.73579024445E+01 0.91503534605E+01 0.11820017304E+02 0.14945945287E+02 0.17646395698E+02
 0.18981482244E+02 0.18279868831E+02 0.15526894763E+02 0.11605230780E+02 0.80970828508E+01
 0.10255571850E+02 0.11135961789E+02 0.13659789252E+02 0.16611598937E+02 0.18659118667E+02
 0.18983572854E+02 0.17523791768E+02 0.14828338382E+02 0.11734205360E+02 0.90630455810E+01
 0.72257251925E+01 0.61605295958E+01 0.57708462541E+01 0.60121369269E+01 0.69125660436E+01
 0.85590507671E+01 0.11038777829E+02 0.14069767425E+02 0.16878103034E+02 0.18615412390E+02
 0.18656238177E+02 0.16925532768E+02 0.14099316646E+02 0.11446357489E+02 0.14630359038E+02
 0.15144820576E+02 0.16611598937E+02 0.18189849268E+02 0.18955613021E+02 0.18360205477E+02
 0.16420397809E+02 0.13621255907E+02 0.10675077541E+02 0.82577671631E+01 0.66037617307E+01
 0.56358713869E+01 0.52712461227E+01 0.54710347939E+01 0.62570950493E+01 0.77018511620E+01
 0.98916178224E+01 0.12719941362E+02 0.15586886613E+02 0.17772069899E+02 0.18717334987E+02
 0.18277568148E+02 0.16868103253E+02 0.15351649227E+02 0.17965416997E+02 0.18166336746E+02
 0.18659118667E+02 0.18955613021E+02 0.18528786970E+02 0.17103302311E+02 0.14784437511E+02
 0.11999791659E+02 0.93309628058E+01 0.72532897387E+01 0.58269498638E+01 0.49831246946E+01
 0.46562217401E+01 0.48150696908E+01 0.54752452055E+01 0.66924351497E+01 0.85372500762E+01
 0.11023640560E+02 0.13800872906E+02 0.16289557998E+02 0.18003739412E+02 0.18733677973E+02
 0.18646158476E+02 0.18214602106E+02 0.19198798379E+02 0.19189683343E+02 0.18983572854E+02
 0.18360205477E+02 0.17103302311E+02 0.15159353468E+02 0.12710191048E+02 0.10134633945E+02
 0.78820158215E+01 0.61707389036E+01 0.49857607135E+01 0.42758595557E+01 0.39935636075E+01
 0.41159895410E+01 0.46532494869E+01 0.56445054221E+01 0.71418362692E+01 0.91811792511E+01
 0.11663632362E+02 0.14186594026E+02 0.16334302824E+02 0.17850640714E+02 0.18709293011E+02
 0.19081098865E+02 0.18223576152E+02 0.18108109239E+02 0.17523791768E+02 0.16420397809E+02
 0.14784437511E+02 0.12710191048E+02 0.10427513287E+02 0.82662042697E+01 0.64796522658E+01
 0.51160473849E+01 0.41611314256E+01 0.35812217743E+01 0.33451976680E+01 0.34377449167E+01
 0.38648124709E+01 0.46514244810E+01 0.58318667977E+01 0.74316809810E+01 0.94400048520E+01
 0.11702374773E+02 0.13890671882E+02 0.15729924469E+02 0.17071172297E+02 0.17888767686E+02
 0.15671417407E+02 0.15525188655E+02 0.14828338382E+02 0.13621255907E+02 0.11999791659E+02
 0.10134633945E+02 0.82662042697E+01 0.66022399336E+01 0.52268506110E+01 0.41661047212E+01
 0.34138947824E+01 0.29510651230E+01 0.27591634060E+01 0.28288068201E+01 0.31632264436E+01
 0.37770420297E+01 0.46902660366E+01 0.59172249637E+01 0.74498047638E+01 0.92366106928E+01
 0.11133642432E+02 0.12894386500E+02 0.14313252274E+02 0.15260328667E+02 0.12504838520E+02
 0.12370101212E+02 0.11734205360E+02 0.10675077541E+02 0.93309628058E+01 0.78820158215E+01
 0.64796522658E+01 0.52268506110E+01 0.41816851533E+01 0.33666206423E+01 0.27821018873E+01
 0.24187949182E+01 0.22665045019E+01 0.23198029810E+01 0.25804946701E+01 0.30567940808E+01
 0.37592710620E+01 0.46935999173E+01 0.58498713710E+01 0.71891379846E+01 0.86309825703E+01
 0.10048436606E+02 0.11267247698E+02 0.12122040991E+02 0.96655268384E+01 0.95572334152E+01
 0.90630455810E+01 0.82577671631E+01 0.72532897387E+01 0.61707389036E+01 0.51160473849E+01
 0.41661047212E+01 0.33666206423E+01 0.27380030646E+01 0.22841950401E+01 0.20009843248E+01
 0.18824683010E+01 0.19253905887E+01 0.21310676455E+01 0.25046347952E+01 0.30517350588E+01
 0.37730216726E+01 0.46567294446E+01 0.56699258807E+01 0.67507274625E+01 0.78059803971E+01
 0.87192829456E+01 0.93709511566E+01 0.77020657764E+01 0.76102531261E+01 0.72257251925E+01
 0.66037617307E+01 0.58269498638E+01 0.49857607135E+01 0.41611314256E+01 0.34138947824E+01
 0.27821018873E+01 0.22841950401E+01 0.19249589523E+01 0.17018688888E+01 0.16105536087E+01
 0.16486608678E+01 0.18175368064E+01 0.21213761547E+01 0.25640264505E+01 0.31440577493E+01
 0.38488192336E+01 0.46484030407E+01 0.54912288327E+01 0.63039989226E+01 0.69987548089E+01
 0.74876218220E+01 0.65809518057E+01 0.64905540599E+01 0.61605295958E+01 0.56358713869E+01
 0.49831246946E+01 0.42758595557E+01 0.35812217743E+01 0.29510651230E+01 0.24187949182E+01
 0.20009843248E+01 0.17018688888E+01 0.15188770833E+01 0.14477918180E+01 0.14864931708E+01
 0.16365094682E+01 0.19020228584E+01 0.22865589039E+01 0.27881054942E+01 0.33936968657E+01
 0.40747059802E+01 0.47844105448E+01 0.54596360797E+01 0.60278060923E+01 0.64190902532E+01
 0.61956533080E+01 0.60932661769E+01 0.57708462541E+01 0.52712461227E+01 0.46562217401E+01
 0.39935636075E+01 0.33451976680E+01 0.27591634060E+01 0.22665045019E+01 0.18824683010E+01
 0.16105536087E+01 0.14477918180E+01 0.13898199158E+01 0.14345594278E+01 0.15836600049E+01
 0.18413719416E+01 0.22111121802E+01 0.26905109619E+01 0.32660844398E+01 0.39089386577E+01
 0.45731080198E+01 0.51980511907E+01 0.57160776902E+01 0.60639077197E+01 0.64998309963E+01
 0.63712083398E+01 0.60121369269E+01 0.54710347939E+01 0.48150696908E+01 0.41159895410E+01
 0.34377449167E+01 0.28288068201E+01 0.23198029810E+01 0.19253905887E+01 0.16486608678E+01
 0.14864931708E+01 0.14345594278E+01 0.14908880390E+01 0.16571798287E+01 0.19375706272E+01
 0.23351280361E+01 0.28468235028E+01 0.34580173072E+01 0.41378267002E+01 0.48371548077E+01
 0.54912459284E+01 0.60278060923E+01 0.63798138273E+01 0.75304532657E+01 0.73579024445E+01
 0.69125660436E+01 0.62570950493E+01 0.54752452055E+01 0.46532494869E+01 0.38648124709E+01
 0.31632264436E+01 0.25804946701E+01 0.21310676455E+01 0.18175368064E+01 0.16365094682E+01
 0.15836600049E+01 0.16571798287E+01 0.18589557080E+01 0.21932138664E+01 0.26629164164E+01
 0.32645037700E+01 0.39817142284E+01 0.47796914676E+01 0.56015705037E+01 0.63704368905E+01
 0.69987548089E+01 0.74046037711E+01 0.93887312168E+01 0.91503534605E+01 0.85590507671E+01
 0.77018511620E+01 0.66924351497E+01 0.56445054221E+01 0.46514244810E+01 0.37770420297E+01
 0.30567940808E+01 0.25046347952E+01 0.21213761547E+01 0.19020228584E+01 0.18413719416E+01
 0.19375706272E+01 0.21932138664E+01 0.26137835968E+01 0.32036649969E+01 0.39600701132E+01
 0.48651799447E+01 0.58776455150E+01 0.69265307737E+01 0.79123937413E+01 0.87192829456E+01
 0.92371829976E+01 0.12133589581E+02 0.11820017304E+02 0.11038777829E+02 0.98916178224E+01
 0.85372500762E+01 0.71418362692E+01 0.58318667977E+01 0.46902660366E+01 0.37592710620E+01
 0.30517350588E+01 0.25640264505E+01 0.22865589039E+01 0.22111121802E+01 0.23351280361E+01
 0.26629164164E+01 0.32036649969E+01 0.39663725080E+01 0.49516692839E+01 0.61404706604E+01
 0.74810381346E+01 0.88793676260E+01 0.10198433675E+02 0.11267247698E+02 0.11941115645E+02
 0.15285577536E+02 0.14945945287E+02 0.14069767425E+02 0.12719941362E+02 0.11023640560E+02
 0.91811792511E+01 0.74316809810E+01 0.59172249637E+01 0.46935999173E+01 0.37730216726E+01
 0.31440577493E+01 0.27881054942E+01 0.26905109619E+01 0.28468235028E+01 0.32645037700E+01
 0.39600701132E+01 0.49516692839E+01 0.62466256545E+01 0.78238196052E+01 0.96129118914E+01
 0.11439858469E+02 0.13066833715E+02 0.14313252274E+02 0.15070122612E+02 0.17924464907E+02
 0.17646395698E+02 0.16878103034E+02 0.15586886613E+02 0.13800872906E+02 0.11663632362E+02
 0.94400048520E+01 0.74498047638E+01 0.58498713710E+01 0.46567294446E+01 0.38488192336E+01
 0.33936968657E+01 0.32660844398E+01 0.34580173072E+01 0.39817142284E+01 0.48651799447E+01
 0.61404706604E+01 0.78238196052E+01 0.98834715445E+01 0.12115507848E+02 0.14197548811E+02
 0.15888010795E+02 0.17071172297E+02 0.17738097020E+02 0.19080097816E+02 0.18981482244E+02
 0.18615412390E+02 0.17772069899E+02 0.16289557998E+02 0.14186594026E+02 0.11702374773E+02
 0.92366106928E+01 0.71891379846E+01 0.56699258807E+01 0.46484030407E+01 0.40747059802E+01
 0.39089386577E+01 0.41378267002E+01 0.47796914676E+01 0.58776455150E+01 0.74810381346E+01
 0.96129118914E+01 0.12115507848E+02 0.14566974911E+02 0.16583800848E+02 0.17959237470E+02