   1   1   0   0
  0.1718715E+02  0.2581530E-09  0.2581530E-09  0.2581530E-09  0.5000000E-15
  1.000000000000000E-004
  CAR 
 S                                       
    113.87517965    -15.87846859  301      6.99373612      1.00000000
    -15.878  0.0000E+00  0.0000E+00
    -15.446  0.0000E+00  0.0000E+00
    -15.013  0.0000E+00  0.0000E+00
    -14.581  0.0000E+00  0.0000E+00
    -14.148  0.0000E+00  0.0000E+00
    -13.716  0.0000E+00  0.0000E+00
    -13.283  0.0000E+00  0.0000E+00
    -12.851  0.0000E+00  0.0000E+00
    -12.418  0.0000E+00  0.0000E+00
    -11.986  0.0000E+00  0.0000E+00
    -11.553  0.0000E+00  0.0000E+00
    -11.121  0.0000E+00  0.0000E+00
    -10.688  0.0000E+00  0.0000E+00
    -10.256  0.3159E-16  0.1366E-16
     -9.823  0.9060E-02  0.3919E-02
     -9.391  0.1497E+00  0.6866E-01
     -8.958  0.8462E-01  0.1108E+00
     -8.526  0.2168E+00  0.2227E+00
     -8.093  0.2167E+00  0.3164E+00
     -7.661  0.2277E+00  0.4149E+00
     -7.228  0.5324E+00  0.6719E+00
     -6.796  0.3093E+00  0.8135E+00
     -6.363  0.5587E+00  0.1086E+01
     -5.931  0.2079E+00  0.1176E+01
     -5.498  0.4372E+00  0.1416E+01
     -5.066  0.2637E+00  0.1552E+01
     -4.633  0.3888E+00  0.1723E+01
     -4.201  0.1094E+00  0.1770E+01
     -3.768  0.2161E+00  0.1871E+01
     -3.336  0.1258E+00  0.1926E+01
     -2.903  0.1033E+00  0.1970E+01
     -2.471  0.3617E-06  0.1973E+01
     -2.038  0.5419E-01  0.1996E+01
     -1.606  0.4934E-02  0.1998E+01
     -1.173  0.2702E-05  0.2000E+01
     -0.741  0.1288E+00  0.2056E+01
     -0.308  0.1084E+00  0.2105E+01
      0.124  0.2189E+00  0.2200E+01
      0.557  0.2843E+00  0.2372E+01
      0.990  0.5274E+00  0.2615E+01
      1.422  0.5551E+00  0.2932E+01
      1.855  0.3825E+00  0.3138E+01
      2.287  0.6407E+00  0.3441E+01
      2.720  0.7469E+00  0.3774E+01
      3.152  0.4982E+00  0.4032E+01
      3.585  0.5929E+00  0.4318E+01
      4.017  0.5167E+00  0.4542E+01
      4.450  0.5153E+00  0.4779E+01
      4.882  0.5641E+00  0.5028E+01
      5.315  0.6798E+00  0.5334E+01
      5.747  0.1646E+00  0.5424E+01
      6.180  0.2638E+00  0.5538E+01
      6.612  0.6705E+00  0.5835E+01
      7.045  0.4492E+00  0.6031E+01
      7.477  0.2838E+00  0.6178E+01
      7.910  0.6939E+00  0.6495E+01
      8.342  0.4568E+00  0.6698E+01
      8.775  0.5992E+00  0.7021E+01
      9.207  0.4558E+00  0.7252E+01
      9.640  0.5318E+00  0.7492E+01
     10.072  0.5439E+00  0.7743E+01
     10.505  0.3264E+00  0.7886E+01
     10.937  0.3730E+00  0.8047E+01
     11.370  0.3504E+00  0.8199E+01
     11.802  0.1174E+00  0.8250E+01
     12.235  0.3683E+00  0.8429E+01
     12.667  0.7528E-01  0.8466E+01
     13.100  0.2693E+00  0.8583E+01
     13.532  0.2258E+00  0.8680E+01
     13.965  0.3939E+00  0.8878E+01
     14.397  0.3075E+00  0.9012E+01
     14.830  0.5416E+00  0.9250E+01
     15.262  0.5015E+00  0.9469E+01
     15.695  0.2295E+00  0.9584E+01
     16.127  0.2716E+00  0.9719E+01
     16.560  0.6521E+00  0.1000E+02
     16.992  0.4004E+00  0.1021E+02
     17.425  0.7370E+00  0.1054E+02
     17.857  0.8537E+00  0.1091E+02
     18.290  0.3540E+00  0.1107E+02
     18.723  0.8612E+00  0.1144E+02
     19.155  0.1034E+01  0.1189E+02
     19.588  0.1133E+01  0.1241E+02
     20.020  0.5627E+00  0.1266E+02
     20.453  0.3253E+00  0.1281E+02
     20.885  0.8619E+00  0.1322E+02
     21.318  0.8797E+00  0.1361E+02
     21.750  0.4573E+00  0.1384E+02
     22.183  0.1000E+01  0.1431E+02
     22.615  0.8842E+00  0.1475E+02
     23.048  0.4935E+00  0.1498E+02
     23.480  0.4416E+00  0.1520E+02
     23.913  0.8422E+00  0.1556E+02
     24.345  0.4877E+00  0.1578E+02
     24.778  0.9663E+00  0.1624E+02
     25.210  0.3746E+00  0.1645E+02
     25.643  0.5016E+00  0.1674E+02
     26.075  0.9618E+00  0.1723E+02
     26.508  0.7873E+00  0.1757E+02
     26.940  0.1059E+01  0.1809E+02
     27.373  0.4671E+00  0.1832E+02
     27.805  0.3044E+00  0.1847E+02
     28.238  0.6959E+00  0.1878E+02
     28.670  0.7650E+00  0.1912E+02
     29.103  0.4364E+00  0.1932E+02
     29.535  0.4320E+00  0.1951E+02
     29.968  0.3912E+00  0.1968E+02
     30.400  0.8071E+00  0.2006E+02
     30.833  0.7189E+00  0.2042E+02
     31.265  0.6449E-01  0.2055E+02
     31.698  0.6543E+00  0.2083E+02
     32.130  0.8433E+00  0.2120E+02
     32.563  0.6832E+00  0.2151E+02
     32.995  0.1036E+01  0.2199E+02
     33.428  0.5451E+00  0.2223E+02
     33.860  0.6772E+00  0.2257E+02
     34.293  0.7248E+00  0.2289E+02
     34.725  0.5452E+00  0.2313E+02
     35.158  0.5955E+00  0.2341E+02
     35.590  0.7347E+00  0.2375E+02
     36.023  0.1001E+01  0.2418E+02
     36.456  0.7414E+00  0.2452E+02
     36.888  0.7858E+00  0.2490E+02
     37.321  0.6385E+00  0.2522E+02
     37.753  0.3935E+00  0.2542E+02
     38.186  0.4237E+00  0.2562E+02
     38.618  0.5540E+00  0.2594E+02
     39.051  0.5120E+00  0.2617E+02
     39.483  0.4469E+00  0.2641E+02
     39.916  0.7439E+00  0.2677E+02
     40.348  0.5839E+00  0.2704E+02
     40.781  0.1324E+01  0.2765E+02
     41.213  0.8329E+00  0.2811E+02
     41.646  0.7290E+00  0.2847E+02
     42.078  0.1003E+01  0.2891E+02
     42.511  0.8270E+00  0.2933E+02
     42.943  0.6052E+00  0.2961E+02
     43.376  0.7477E+00  0.2998E+02
     43.808  0.5572E+00  0.3023E+02
     44.241  0.1138E+01  0.3075E+02
     44.673  0.1050E+01  0.3123E+02
     45.106  0.5770E+00  0.3149E+02
     45.538  0.7724E+00  0.3183E+02
     45.971  0.8597E+00  0.3220E+02
     46.403  0.8937E+00  0.3263E+02
     46.836  0.1064E+01  0.3310E+02
     47.268  0.1360E+01  0.3370E+02
     47.701  0.8780E+00  0.3412E+02
     48.133  0.6951E+00  0.3447E+02
     48.566  0.7334E+00  0.3482E+02
     48.998  0.4339E+00  0.3501E+02
     49.431  0.8138E+00  0.3540E+02
     49.863  0.9680E+00  0.3586E+02
     50.296  0.7048E+00  0.3617E+02
     50.728  0.6641E+00  0.3647E+02
     51.161  0.1002E+01  0.3691E+02
     51.593  0.4620E+00  0.3711E+02
     52.026  0.1495E+01  0.3777E+02
     52.458  0.8068E+00  0.3819E+02
     52.891  0.8895E+00  0.3863E+02
     53.323  0.1154E+01  0.3915E+02
     53.756  0.6545E+00  0.3947E+02
     54.189  0.6487E+00  0.3979E+02
     54.621  0.1101E+01  0.4029E+02
     55.054  0.1075E+01  0.4077E+02
     55.486  0.5920E+00  0.4106E+02
     55.919  0.1463E+01  0.4172E+02
     56.351  0.1095E+01  0.4222E+02
     56.784  0.3994E+00  0.4240E+02
     57.216  0.9340E+00  0.4283E+02
     57.649  0.6439E+00  0.4312E+02
     58.081  0.9641E+00  0.4356E+02
     58.514  0.6911E+00  0.4390E+02
     58.946  0.4267E+00  0.4414E+02
     59.379  0.7623E+00  0.4451E+02
     59.811  0.1054E+01  0.4497E+02
     60.244  0.4963E+00  0.4523E+02
     60.676  0.6194E+00  0.4550E+02
     61.109  0.1030E+01  0.4598E+02
     61.541  0.8598E+00  0.4643E+02
     61.974  0.1037E+01  0.4689E+02
     62.406  0.1457E+01  0.4753E+02
     62.839  0.1309E+01  0.4810E+02
     63.271  0.7043E+00  0.4846E+02
     63.704  0.1045E+01  0.4892E+02
     64.136  0.4836E+00  0.4919E+02
     64.569  0.7281E+00  0.4953E+02
     65.001  0.8005E+00  0.4990E+02
     65.434  0.1193E+01  0.5044E+02
     65.866  0.9660E+00  0.5097E+02
     66.299  0.8812E+00  0.5136E+02
     66.731  0.1188E+01  0.5192E+02
     67.164  0.5602E+00  0.5221E+02
     67.596  0.7885E+00  0.5257E+02
     68.029  0.1166E+01  0.5312E+02
     68.461  0.8829E+00  0.5354E+02
     68.894  0.1307E+01  0.5411E+02
     69.326  0.9701E+00  0.5455E+02
     69.759  0.9390E+00  0.5499E+02
     70.191  0.9219E+00  0.5539E+02
     70.624  0.9624E+00  0.5586E+02
     71.056  0.9322E+00  0.5629E+02
     71.489  0.1124E+01  0.5682E+02
     71.922  0.6797E+00  0.5714E+02
     72.354  0.1259E+01  0.5769E+02
     72.787  0.9393E+00  0.5817E+02
     73.219  0.1088E+01  0.5867E+02
     73.652  0.7839E+00  0.5905E+02
     74.084  0.1290E+01  0.5962E+02
     74.517  0.9278E+00  0.6005E+02
     74.949  0.8027E+00  0.6042E+02
     75.382  0.9347E+00  0.6085E+02
     75.814  0.8650E+00  0.6125E+02
     76.247  0.5668E+00  0.6150E+02
     76.679  0.9113E+00  0.6192E+02
     77.112  0.1242E+01  0.6247E+02
     77.544  0.1400E+01  0.6312E+02
     77.977  0.1019E+01  0.6360E+02
     78.409  0.1364E+01  0.6421E+02
     78.842  0.4420E+00  0.6447E+02
     79.274  0.9951E+00  0.6493E+02
     79.707  0.1394E+01  0.6554E+02
     80.139  0.7970E+00  0.6590E+02
     80.572  0.1270E+01  0.6656E+02
     81.004  0.1246E+01  0.6713E+02
     81.437  0.9929E+00  0.6765E+02
     81.869  0.6049E+00  0.6796E+02
     82.302  0.1445E+01  0.6861E+02
     82.734  0.9866E+00  0.6905E+02
     83.167  0.1406E+01  0.6972E+02
     83.599  0.4375E+00  0.7003E+02
     84.032  0.1107E+01  0.7051E+02
     84.464  0.8263E+00  0.7094E+02
     84.897  0.1183E+01  0.7147E+02
     85.329  0.1101E+01  0.7198E+02
     85.762  0.1202E+01  0.7254E+02
     86.194  0.1431E+01  0.7316E+02
     86.627  0.1032E+01  0.7368E+02
     87.059  0.9922E+00  0.7414E+02
     87.492  0.9672E+00  0.7459E+02
     87.924  0.1172E+01  0.7516E+02
     88.357  0.7894E+00  0.7552E+02
     88.789  0.1299E+01  0.7611E+02
     89.222  0.5130E+00  0.7634E+02
     89.654  0.8396E+00  0.7672E+02
     90.087  0.7694E+00  0.7708E+02
     90.520  0.1402E+01  0.7772E+02
     90.952  0.7895E+00  0.7811E+02
     91.385  0.1006E+01  0.7859E+02
     91.817  0.1108E+01  0.7908E+02
     92.250  0.1451E+01  0.7971E+02
     92.682  0.8270E+00  0.8010E+02
     93.115  0.1838E+01  0.8094E+02
     93.547  0.9243E+00  0.8140E+02
     93.980  0.1205E+01  0.8199E+02
     94.412  0.1205E+01  0.8257E+02
     94.845  0.1146E+01  0.8310E+02
     95.277  0.1154E+01  0.8365E+02
     95.710  0.1012E+01  0.8411E+02
     96.142  0.9536E+00  0.8462E+02
     96.575  0.8773E+00  0.8510E+02
     97.007  0.1318E+01  0.8569E+02
     97.440  0.1261E+01  0.8626E+02
     97.872  0.1241E+01  0.8688E+02
     98.305  0.8722E+00  0.8734E+02
     98.737  0.1010E+01  0.8778E+02
     99.170  0.8926E+00  0.8817E+02
     99.602  0.1342E+01  0.8877E+02
    100.035  0.8507E+00  0.8918E+02
    100.467  0.8931E+00  0.8961E+02
    100.900  0.1296E+01  0.9019E+02
    101.332  0.1586E+01  0.9089E+02
    101.765  0.1065E+01  0.9139E+02
    102.197  0.8311E+00  0.9183E+02
    102.630  0.1268E+01  0.9244E+02
    103.062  0.1334E+01  0.9307E+02
    103.495  0.7796E+00  0.9346E+02
    103.927  0.8606E+00  0.9387E+02
    104.360  0.8160E+00  0.9426E+02
    104.792  0.6495E+00  0.9461E+02
    105.225  0.9498E+00  0.9505E+02
    105.657  0.5589E+00  0.9532E+02
    106.090  0.6009E+00  0.9558E+02
    106.522  0.5431E+00  0.9582E+02
    106.955  0.1495E+00  0.9590E+02
    107.387  0.5419E-01  0.9593E+02
    107.820  0.1048E+00  0.9598E+02
    108.253  0.5419E-01  0.9600E+02
    108.685  0.0000E+00  0.9600E+02
    109.118  0.0000E+00  0.9600E+02
    109.550  0.0000E+00  0.9600E+02
    109.983  0.0000E+00  0.9600E+02
    110.415  0.0000E+00  0.9600E+02
    110.848  0.0000E+00  0.9600E+02
    111.280  0.0000E+00  0.9600E+02
    111.713  0.0000E+00  0.9600E+02
    112.145  0.0000E+00  0.9600E+02
    112.578  0.0000E+00  0.9600E+02
    113.010  0.0000E+00  0.9600E+02
    113.443  0.0000E+00  0.9600E+02
    113.875  0.0000E+00  0.9600E+02
