    1    1    1    1
  0.1718715E+02  0.2581530E-09  0.2581530E-09  0.2581530E-09  0.5000000E-15
  1.000000000000000E-004
  CAR 
 S                                       
      6     65     48
 
  0.0000000E+00  0.0000000E+00  0.0000000E+00  0.1953125E-02
      1         -9.980575   1.000000
      2          8.311301   0.000000
      3          8.535598   0.000000
      4          8.535598   0.000000
      5         14.385599   0.000000
      6         14.385599   0.000000
      7         17.308622   0.000000
      8         28.478216   0.000000
      9         28.636799   0.000000
     10         28.636799   0.000000
     11         34.155604   0.000000
     12         34.155604   0.000000
     13         35.676230   0.000000
     14         38.987493   0.000000
     15         39.553145   0.000000
     16         39.553145   0.000000
     17         40.555568   0.000000
     18         40.555568   0.000000
     19         44.707188   0.000000
     20         57.295399   0.000000
     21         57.640741   0.000000
     22         57.640741   0.000000
     23         59.967071   0.000000
     24         61.161830   0.000000
     25         61.161830   0.000000
     26         64.931052   0.000000
     27         67.324902   0.000000
     28         67.498258   0.000000
     29         67.498258   0.000000
     30         77.524366   0.000000
     31         77.524366   0.000000
     32         77.554541   0.000000
     33         87.971136   0.000000
     34         91.829759   0.000000
     35         91.829759   0.000000
     36         92.793987   0.000000
     37         95.491064   0.000000
     38         96.859990   0.000000
     39         96.859990   0.000000
     40         99.225306   0.000000
     41         99.225306   0.000000
     42        100.770696   0.000000
     43        101.792258   0.000000
     44        101.792258   0.000000
     45        103.818754   0.000000
     46        103.984483   0.000000
     47        103.984483   0.000000
     48        104.816302   0.000000
 
  0.1250000E+00  0.1184018E-17  0.0000000E+00  0.1171875E-01
      1         -9.707508   1.000000
      2          6.261694   1.000000
      3          8.568520   0.000000
      4          8.715001   0.000000
      5         14.619469   0.000000
      6         16.019903   0.000000
      7         18.564074   0.000000
      8         26.656301   0.000000
      9         26.770427   0.000000
     10         28.725130   0.000000
     11         32.808839   0.000000
     12         34.842323   0.000000
     13         35.382926   0.000000
     14         36.743626   0.000000
     15         40.599350   0.000000
     16         40.990038   0.000000
     17         41.856696   0.000000
     18         45.582161   0.000000
     19         46.293743   0.000000
     20         53.106166   0.000000
     21         54.379175   0.000000
     22         56.179171   0.000000
     23         59.800521   0.000000
     24         62.973535   0.000000
     25         63.228827   0.000000
     26         65.262723   0.000000
     27         67.110313   0.000000
     28         67.595809   0.000000
     29         71.416833   0.000000
     30         77.677394   0.000000
     31         77.693472   0.000000
     32         79.550184   0.000000
     33         86.157334   0.000000
     34         86.407245   0.000000
     35         90.484252   0.000000
     36         92.193191   0.000000
     37         92.670477   0.000000
     38         93.839206   0.000000
     39         96.557099   0.000000
     40         97.579880   0.000000
     41         98.185209   0.000000
     42         99.391244   0.000000
     43        100.504638   0.000000
     44        100.729502   0.000000
     45        101.757362   0.000000
     46        104.572191   0.000000
     47        105.942737   0.000000
     48        106.270211   0.000000
 
  0.2500000E+00  0.2368035E-17  0.0000000E+00  0.1171875E-01
      1         -8.931946   1.000000
      2          2.919644   1.000000
      3          9.046649   0.000000
      4          9.194384   0.000000
      5         15.252955   0.000000
      6         17.487918   0.000000
      7         21.931805   0.000000
      8         23.847399   0.000000
      9         23.912609   0.000000
     10         29.071119   0.000000
     11         30.568711   0.000000
     12         30.863644   0.000000
     13         36.837263   0.000000
     14         38.615193   0.000000
     15         41.980319   0.000000
     16         44.592342   0.000000
     17         44.981950   0.000000
     18         49.201913   0.000000
     19         49.993895   0.000000
     20         51.016655   0.000000
     21         52.276517   0.000000
     22         53.513291   0.000000
     23         55.042320   0.000000
     24         57.711960   0.000000
     25         67.790103   0.000000
     26         69.083435   0.000000
     27         71.151369   0.000000
     28         72.648463   0.000000
     29         76.421801   0.000000
     30         76.926107   0.000000
     31         76.989582   0.000000
     32         78.248102   0.000000
     33         79.199995   0.000000
     34         80.510935   0.000000
     35         85.658792   0.000000
     36         88.896604   0.000000
     37         91.988115   0.000000
     38         92.641757   0.000000
     39         93.902802   0.000000
     40         95.246514   0.000000
     41         97.129336   0.000000
     42         97.822531   0.000000
     43         98.893995   0.000000
     44        100.487422   0.000000
     45        102.696323   0.000000
     46        103.616770   0.000000
     47        104.318861   0.000000
     48        105.488698   0.000000
 
  0.3750000E+00  0.5018077E-17  0.0000000E+00  0.1171875E-01
      1         -7.864675   1.000000
      2          0.163835   1.000000
      3          9.616484   0.000000
      4          9.763306   0.000000
      5         16.025875   0.000000
      6         19.047850   0.000000
      7         21.501953   0.000000
      8         21.761201   0.000000
      9         23.073175   0.000000
     10         28.025714   0.000000
     11         29.470088   0.000000
     12         31.986032   0.000000
     13         38.254930   0.000000
     14         40.079320   0.000000
     15         42.068494   0.000000
     16         45.032818   0.000000
     17         46.273143   0.000000
     18         47.233366   0.000000
     19         49.581687   0.000000
     20         50.905307   0.000000
     21         53.779926   0.000000
     22         54.680467   0.000000
     23         58.667551   0.000000
     24         59.204623   0.000000
     25         67.493061   0.000000
     26         68.266779   0.000000
     27         69.020265   0.000000
     28         72.350944   0.000000
     29         75.905128   0.000000
     30         77.494761   0.000000
     31         78.170147   0.000000
     32         78.655949   0.000000
     33         79.959716   0.000000
     34         80.181804   0.000000
     35         84.052760   0.000000
     36         88.576375   0.000000
     37         89.697073   0.000000
     38         90.465101   0.000000
     39         91.744827   0.000000
     40         91.908475   0.000000
     41         93.994916   0.000000
     42         96.095065   0.000000
     43         96.504868   0.000000
     44         97.883547   0.000000
     45         99.704951   0.000000
     46        101.485501   0.000000
     47        102.194238   0.000000
     48        104.878526   0.000000
 
  0.5000000E+00  0.4736071E-17  0.0000000E+00  0.5859375E-02
      1         -7.236179   1.000000
      2         -1.041543   1.000000
      3          9.890140   0.000000
      4         10.036514   0.000000
      5         16.402193   0.000000
      6         20.205970   0.000000
      7         20.958916   0.000000
      8         21.183133   0.000000
      9         21.572646   0.000000
     10         26.936937   0.000000
     11         29.666266   0.000000
     12         35.242030   0.000000
     13         39.090493   0.000000
     14         39.772724   0.000000
     15         40.925411   0.000000
     16         44.010986   0.000000
     17         45.704540   0.000000
     18         46.230321   0.000000
     19         49.069456   0.000000
     20         49.315548   0.000000
     21         58.863671   0.000000
     22         59.436032   0.000000
     23         61.741932   0.000000
     24         62.201922   0.000000
     25         63.192854   0.000000
     26         65.073486   0.000000
     27         65.858032   0.000000
     28         67.986592   0.000000
     29         72.827635   0.000000
     30         79.121660   0.000000
     31         79.151945   0.000000
     32         82.082605   0.000000
     33         84.339558   0.000000
     34         84.787082   0.000000
     35         84.985800   0.000000
     36         87.331541   0.000000
     37         88.054656   0.000000
     38         88.382416   0.000000
     39         90.292164   0.000000
     40         91.190876   0.000000
     41         91.605088   0.000000
     42         92.440756   0.000000
     43         94.253496   0.000000
     44         95.324893   0.000000
     45         97.932564   0.000000
     46        100.012003   0.000000
     47        101.830536   0.000000
     48        105.394030   0.000000
 
  0.1250000E+00  0.1250000E+00  0.0000000E+00  0.1171875E-01
      1         -9.423345   1.000000
      2          6.298691   1.000000
      3          6.529901   1.000000
      4          8.824790   0.000000
      5         15.528254   0.000000
      6         17.635776   0.000000
      7         19.149758   0.000000
      8         25.304144   0.000000
      9         26.571357   0.000000
     10         27.192156   0.000000
     11         32.792493   0.000000
     12         34.735079   0.000000
     13         35.248462   0.000000
     14         37.773582   0.000000
     15         37.842352   0.000000
     16         42.068127   0.000000
     17         45.193301   0.000000
     18         46.532743   0.000000
     19         49.516968   0.000000
     20         49.979550   0.000000
     21         53.634991   0.000000
     22         58.618211   0.000000
     23         59.694492   0.000000
     24         61.629448   0.000000
     25         62.253237   0.000000
     26         62.702244   0.000000
     27         65.027952   0.000000
     28         70.817507   0.000000
     29         75.425849   0.000000
     30         77.618970   0.000000
     31         77.891084   0.000000
     32         83.186928   0.000000
     33         84.191034   0.000000
     34         85.534183   0.000000
     35         87.558318   0.000000
     36         89.637372   0.000000
     37         91.516452   0.000000
     38         93.688999   0.000000
     39         94.392811   0.000000
     40         95.360134   0.000000
     41         96.533451   0.000000
     42         97.697155   0.000000
     43         98.977090   0.000000
     44        100.689542   0.000000
     45        100.804783   0.000000
     46        105.500686   0.000000
     47        105.626621   0.000000
     48        106.466170   0.000000
 
  0.2500000E+00  0.1250000E+00  0.0000000E+00  0.2343750E-01
      1         -8.639397   1.000000
      2          3.087090   1.000000
      3          6.952280   0.879511
      4          9.301230   0.000000
      5         16.350479   0.000000
      6         18.901035   0.000000
      7         21.131037   0.000000
      8         23.691173   0.000000
      9         24.154746   0.000000
     10         27.352072   0.000000
     11         30.681888   0.000000
     12         32.607762   0.000000
     13         35.402693   0.000000
     14         39.641083   0.000000
     15         41.314918   0.000000
     16         44.294499   0.000000
     17         46.170027   0.000000
     18         47.157803   0.000000
     19         49.610992   0.000000
     20         51.967206   0.000000
     21         54.338003   0.000000
     22         55.805400   0.000000
     23         56.262080   0.000000
     24         59.902717   0.000000
     25         64.392396   0.000000
     26         65.225736   0.000000
     27         68.263706   0.000000
     28         73.833337   0.000000
     29         76.022626   0.000000
     30         77.586561   0.000000
     31         78.381444   0.000000
     32         79.410178   0.000000
     33         81.926470   0.000000
     34         83.085313   0.000000
     35         85.659632   0.000000
     36         86.787733   0.000000
     37         87.503302   0.000000
     38         91.285361   0.000000
     39         93.895096   0.000000
     40         94.521855   0.000000
     41         96.115430   0.000000
     42         96.656319   0.000000
     43         98.428030   0.000000
     44         99.384923   0.000000
     45        101.420757   0.000000
     46        103.037034   0.000000
     47        103.990052   0.000000
     48        105.302083   0.000000
 
  0.3750000E+00  0.1250000E+00  0.0000000E+00  0.2343750E-01
      1         -7.572011   1.000000
      2          0.362337   1.000000
      3          7.663057   0.000000
      4          9.863033   0.000000
      5         17.230005   0.000000
      6         18.165623   0.000000
      7         21.355004   0.000000
      8         21.903407   0.000000
      9         24.468367   0.000000
     10         27.858892   0.000000
     11         29.870361   0.000000
     12         31.941280   0.000000
     13         36.910610   0.000000
     14         40.618835   0.000000
     15         42.266731   0.000000
     16         44.025570   0.000000
     17         44.824233   0.000000
     18         49.037944   0.000000
     19         50.152519   0.000000
     20         52.664464   0.000000
     21         53.668644   0.000000
     22         55.653174   0.000000
     23         58.708195   0.000000
     24         62.630903   0.000000
     25         65.447308   0.000000
     26         67.442058   0.000000
     27         68.578293   0.000000
     28         72.249233   0.000000
     29         72.496552   0.000000
     30         75.325739   0.000000
     31         77.228017   0.000000
     32         79.129135   0.000000
     33         80.421330   0.000000
     34         83.140410   0.000000
     35         83.710523   0.000000
     36         86.829025   0.000000
     37         89.476028   0.000000
     38         90.087639   0.000000
     39         91.279523   0.000000
     40         92.773705   0.000000
     41         94.398300   0.000000
     42         95.722192   0.000000
     43         96.918414   0.000000
     44         97.707351   0.000000
     45         99.566281   0.000000
     46        101.383819   0.000000
     47        102.521227   0.000000
     48        103.059083   0.000000
 
  0.5000000E+00  0.1250000E+00  0.0000000E+00  0.2343750E-01
      1         -6.965931   1.000000
      2         -0.795172   1.000000
      3          8.108199   0.000000
      4         10.127439   0.000000
      5         17.237258   0.000000
      6         17.660281   0.000000
      7         21.029987   0.000000
      8         21.952370   0.000000
      9         23.728443   0.000000
     10         28.137974   0.000000
     11         29.329086   0.000000
     12         34.050688   0.000000
     13         39.675013   0.000000
     14         39.911003   0.000000
     15         40.788531   0.000000
     16         42.191981   0.000000
     17         42.746147   0.000000
     18         50.210470   0.000000
     19         51.095167   0.000000
     20         52.392189   0.000000
     21         57.356022   0.000000
     22         59.655619   0.000000
     23         59.810125   0.000000
     24         61.648521   0.000000
     25         62.240160   0.000000
     26         66.391235   0.000000
     27         67.415729   0.000000
     28         69.678617   0.000000
     29         72.129112   0.000000
     30         78.311321   0.000000
     31         79.204861   0.000000
     32         79.458691   0.000000
     33         80.146213   0.000000
     34         81.259216   0.000000
     35         84.531948   0.000000
     36         86.735083   0.000000
     37         88.577890   0.000000
     38         89.412590   0.000000
     39         90.476913   0.000000
     40         91.225296   0.000000
     41         92.593368   0.000000
     42         93.421329   0.000000
     43         95.359288   0.000000
     44         97.463766   0.000000
     45         99.318951   0.000000
     46        101.072236   0.000000
     47        101.599097   0.000000
     48        102.299028   0.000000
 
 -0.3750000E+00  0.1250000E+00  0.0000000E+00  0.2343750E-01
      1         -7.615800   1.000000
      2          0.450430   1.000000
      3          7.857229   0.000000
      4          9.852682   0.000000
      5         17.150869   0.000000
      6         17.789276   0.000000
      7         20.862203   0.000000
      8         21.907191   0.000000
      9         24.758469   0.000000
     10         27.942176   0.000000
     11         30.293147   0.000000
     12         32.013758   0.000000
     13         37.218330   0.000000
     14         40.687195   0.000000
     15         42.448026   0.000000
     16         43.058879   0.000000
     17         44.284138   0.000000
     18         49.757243   0.000000
     19         50.655747   0.000000
     20         52.746134   0.000000
     21         53.998584   0.000000
     22         56.598317   0.000000
     23         58.334735   0.000000
     24         61.125675   0.000000
     25         65.094593   0.000000
     26         65.393337   0.000000
     27         68.816314   0.000000
     28         73.172839   0.000000
     29         74.018816   0.000000
     30         77.390589   0.000000
     31         78.850699   0.000000
     32         79.209232   0.000000
     33         80.904232   0.000000
     34         82.040812   0.000000
     35         82.462138   0.000000
     36         85.877648   0.000000
     37         86.438344   0.000000
     38         89.843436   0.000000
     39         90.935843   0.000000
     40         91.683372   0.000000
     41         92.942908   0.000000
     42         94.736093   0.000000
     43         97.551572   0.000000
     44         97.921399   0.000000
     45        101.135985   0.000000
     46        102.343887   0.000000
     47        102.757893   0.000000
     48        103.970634   0.000000
 
 -0.2500000E+00  0.1250000E+00  0.0000000E+00  0.2343750E-01
      1         -8.680805   1.000000
      2          3.209502   1.000000
      3          7.175000   0.000000
      4          9.289140   0.000000
      5         16.292342   0.000000
      6         18.575770   0.000000
      7         20.459407   0.000000
      8         23.578047   0.000000
      9         24.154412   0.000000
     10         27.452488   0.000000
     11         30.838287   0.000000
     12         33.513739   0.000000
     13         35.749441   0.000000
     14         39.494194   0.000000
     15         42.474578   0.000000
     16         44.328482   0.000000
     17         45.335532   0.000000
     18         47.072033   0.000000
     19         48.470289   0.000000
     20         51.808242   0.000000
     21         52.980381   0.000000
     22         55.933490   0.000000
     23         56.826466   0.000000
     24         61.222586   0.000000
     25         64.541668   0.000000
     26         66.300008   0.000000
     27         70.748562   0.000000
     28         72.645899   0.000000
     29         74.757473   0.000000
     30         77.329437   0.000000
     31         78.368130   0.000000
     32         79.112134   0.000000
     33         80.290025   0.000000
     34         81.520701   0.000000
     35         84.192824   0.000000
     36         87.130904   0.000000
     37         88.756412   0.000000
     38         91.172809   0.000000
     39         93.982259   0.000000
     40         94.832993   0.000000
     41         96.158566   0.000000
     42         97.233097   0.000000
     43         97.890883   0.000000
     44         99.732571   0.000000
     45        101.190135   0.000000
     46        102.365169   0.000000
     47        105.002485   0.000000
     48        106.168603   0.000000
 
 -0.1250000E+00  0.1250000E+00  0.0000000E+00  0.1171875E-01
      1         -9.446144   1.000000
      2          6.329281   1.000000
      3          6.760864   1.000000
      4          8.817152   0.000000
      5         15.498707   0.000000
      6         17.468738   0.000000
      7         18.931203   0.000000
      8         24.532022   0.000000
      9         26.684714   0.000000
     10         27.191241   0.000000
     11         33.140940   0.000000
     12         34.890721   0.000000
     13         36.003045   0.000000
     14         37.622186   0.000000
     15         39.313605   0.000000
     16         42.287713   0.000000
     17         44.785582   0.000000
     18         46.302157   0.000000
     19         47.857852   0.000000
     20         49.151028   0.000000
     21         51.995682   0.000000
     22         59.675436   0.000000
     23         60.379816   0.000000
     24         62.027003   0.000000
     25         64.108167   0.000000
     26         65.277822   0.000000
     27         65.398427   0.000000
     28         69.458238   0.000000
     29         72.910592   0.000000
     30         76.754007   0.000000
     31         77.828513   0.000000
     32         82.771581   0.000000
     33         83.181885   0.000000
     34         85.907505   0.000000
     35         86.868033   0.000000
     36         87.706261   0.000000
     37         91.544079   0.000000
     38         94.826669   0.000000
     39         94.960109   0.000000
     40         95.929677   0.000000
     41         97.188469   0.000000
     42         98.261435   0.000000
     43         99.888732   0.000000
     44        101.085215   0.000000
     45        102.475761   0.000000
     46        104.533326   0.000000
     47        105.895502   0.000000
     48        106.930162   0.000000
 
  0.2500000E+00  0.2500000E+00  0.0000000E+00  0.1171875E-01
      1         -7.850264   1.000000
      2          3.492527   1.000000
      3          3.889880   1.000000
      4          9.765314   0.000000
      5         16.878979   0.000000
      6         17.958539   0.000000
      7         23.232581   0.000000
      8         24.152237   0.000000
      9         24.728516   0.000000
     10         24.885228   0.000000
     11         30.097501   0.000000
     12         33.679157   0.000000
     13         35.853734   0.000000
     14         40.202140   0.000000
     15         40.247300   0.000000
     16         44.217603   0.000000
     17         46.651231   0.000000
     18         47.284653   0.000000
     19         50.236442   0.000000
     20         52.756933   0.000000
     21         55.723584   0.000000
     22         57.815046   0.000000
     23         61.498486   0.000000
     24         61.661144   0.000000
     25         62.028947   0.000000
     26         64.679145   0.000000
     27         66.260696   0.000000
     28         70.263424   0.000000
     29         76.012404   0.000000
     30         76.962597   0.000000
     31         77.333887   0.000000
     32         78.056207   0.000000
     33         80.071042   0.000000
     34         83.533579   0.000000
     35         84.195254   0.000000
     36         88.600615   0.000000
     37         89.082321   0.000000
     38         90.537490   0.000000
     39         91.235706   0.000000
     40         93.559774   0.000000
     41         94.277323   0.000000
     42         95.071550   0.000000
     43         96.146504   0.000000
     44         96.556351   0.000000
     45         98.349109   0.000000
     46         99.334937   0.000000
     47        101.156873   0.000000
     48        104.055821   0.000000
 
  0.3750000E+00  0.2500000E+00  0.0000000E+00  0.2343750E-01
      1         -6.784237   1.000000
      2          0.997817   1.000000
      3          4.521489   1.000000
      4         10.306713   0.000000
      5         14.746996   0.000000
      6         18.587983   0.000000
      7         22.458666   0.000000
      8         24.751156   0.000000
      9         25.229856   0.000000
     10         25.760212   0.000000
     11         30.302152   0.000000
     12         34.404540   0.000000
     13         35.682001   0.000000
     14         38.214397   0.000000
     15         41.067761   0.000000
     16         45.646863   0.000000
     17         46.440252   0.000000
     18         47.235222   0.000000
     19         51.927090   0.000000
     20         54.886469   0.000000
     21         56.175927   0.000000
     22         58.222033   0.000000
     23         60.411054   0.000000
     24         62.689364   0.000000
     25         64.415371   0.000000
     26         67.921953   0.000000
     27         68.563439   0.000000
     28         70.062333   0.000000
     29         71.122119   0.000000
     30         72.351517   0.000000
     31         75.351134   0.000000
     32         77.638976   0.000000
     33         79.475924   0.000000
     34         80.497004   0.000000
     35         83.711695   0.000000
     36         85.629069   0.000000
     37         88.604389   0.000000
     38         90.142832   0.000000
     39         91.885376   0.000000
     40         92.978822   0.000000
     41         93.131432   0.000000
     42         93.732373   0.000000
     43         94.686838   0.000000
     44         96.130897   0.000000
     45         97.677982   0.000000
     46         98.476576   0.000000
     47        101.286140   0.000000
     48        102.192373   0.000000
 
  0.5000000E+00  0.2500000E+00  0.0000000E+00  0.2343750E-01
      1         -6.196504   1.000000
      2         -0.112127   1.000000
      3          5.038557   1.000000
      4         10.556720   0.000000
      5         13.540057   0.000000
      6         19.070273   0.000000
      7         21.725829   0.000000
      8         24.916523   0.000000
      9         25.375342   0.000000
     10         25.684792   0.000000
     11         31.738889   0.000000
     12         33.830722   0.000000
     13         36.992102   0.000000
     14         38.229103   0.000000
     15         40.604339   0.000000
     16         41.543481   0.000000
     17         47.151708   0.000000
     18         51.979856   0.000000
     19         54.108602   0.000000
     20         54.711823   0.000000
     21         56.016637   0.000000
     22         57.645383   0.000000
     23         59.767009   0.000000
     24         62.799842   0.000000
     25         62.950260   0.000000
     26         67.542711   0.000000
     27         69.186502   0.000000
     28         69.869334   0.000000
     29         72.743318   0.000000
     30         74.382247   0.000000
     31         75.440788   0.000000
     32         76.858403   0.000000
     33         78.905471   0.000000
     34         80.150784   0.000000
     35         81.188183   0.000000
     36         82.901480   0.000000
     37         84.882719   0.000000
     38         90.702958   0.000000
     39         91.306814   0.000000
     40         91.565774   0.000000
     41         91.883972   0.000000
     42         94.573907   0.000000
     43         95.526117   0.000000
     44         96.412334   0.000000
     45         97.756507   0.000000
     46         99.351302   0.000000
     47         99.956743   0.000000
     48        102.798707   0.000000
 
 -0.3750000E+00  0.2500000E+00  0.0000000E+00  0.2343750E-01
      1         -6.863867   1.000000
      2          1.156273   1.000000
      3          4.722691   1.000000
      4         10.289452   0.000000
      5         14.271575   0.000000
      6         18.498781   0.000000
      7         22.465404   0.000000
      8         24.390780   0.000000
      9         25.365729   0.000000
     10         25.966914   0.000000
     11         30.421450   0.000000
     12         34.581609   0.000000
     13         35.924699   0.000000
     14         38.026896   0.000000
     15         40.690113   0.000000
     16         45.972674   0.000000
     17         46.908674   0.000000
     18         47.659866   0.000000
     19         52.026966   0.000000
     20         54.800581   0.000000
     21         55.966140   0.000000
     22         57.851055   0.000000
     23         60.755431   0.000000
     24         62.165841   0.000000
     25         64.515639   0.000000
     26         66.383653   0.000000
     27         68.766210   0.000000
     28         70.019036   0.000000
     29         70.319508   0.000000
     30         74.017914   0.000000
     31         76.115146   0.000000
     32         77.789050   0.000000
     33         80.039163   0.000000
     34         80.836072   0.000000
     35         84.505832   0.000000
     36         85.993505   0.000000
     37         87.833278   0.000000
     38         88.577702   0.000000
     39         91.025256   0.000000
     40         91.498044   0.000000
     41         92.939802   0.000000
     42         93.608362   0.000000
     43         94.463472   0.000000
     44         94.886429   0.000000
     45         95.668789   0.000000
     46         97.393306   0.000000
     47        101.233335   0.000000
     48        105.113819   0.000000
 
 -0.2500000E+00  0.2500000E+00  0.0000000E+00  0.1171875E-01
      1         -7.925463   1.000000
      2          3.694343   1.000000
      3          4.126803   1.000000
      4          9.745117   0.000000
      5         16.396119   0.000000
      6         17.610932   0.000000
      7         22.993582   0.000000
      8         24.214252   0.000000