Cr                                      
   1.00000000000000     
     2.871000    0.000000    0.000000
     0.000000    2.871000    0.000000
     0.000000    0.000000    2.871000
   Cr
     2
Direct
  0.000000  0.000000  0.000000
  0.500000  0.500000  0.500000
 
   28   28   28
  291.54      284.21      261.39      222.70      171.89      117.78      70.701      37.460      18.825      10.893    
  8.2231      7.0656      6.5449      6.3265      6.2656      6.3265      6.5449      7.0656      8.2231      10.893    
  18.825      37.460      70.701      117.78      171.89      222.70      261.39      284.21      284.21      276.91    
  254.31      216.23      166.51      113.81      68.174      36.113      18.267      10.746      8.1958      7.0652    
  6.5545      6.3394      6.2793      6.3394      6.5545      7.0652      8.1958      10.746      18.267      36.113    
  68.174      113.81      166.51      216.23      254.31      276.91      261.39      254.31      232.63      196.68    
  150.46      102.14      60.836      32.270      16.721      10.355      8.1124      7.0606      6.5795      6.3746    
  6.3171      6.3746      6.5795      7.0606      8.1124      10.355      16.721      32.270      60.836      102.14    
  150.46      196.68      232.63      254.31      222.70      216.23      196.68      164.92      124.93      83.956    
  49.686      26.632      14.575      9.8364      7.9721      7.0441      6.6107      6.4228      6.3697      6.4228    
  6.6107      7.0441      7.9721      9.8364      14.575      26.632      49.686      83.956      124.93      164.92    
  196.68      216.23      171.89      166.51      150.46      124.93      93.539      62.208      36.819      20.466    
  12.415      9.2866      7.7826      7.0093      6.6374      6.4725      6.4253      6.4725      6.6374      7.0093    
  7.7826      9.2866      12.415      20.466      36.819      62.208      93.539      124.93      150.46      166.51    
  117.78      113.81      102.14      83.956      62.208      41.236      25.011      15.224      10.728      8.7058    
  7.5625      6.9550      6.6518      6.5133      6.4731      6.5133      6.6518      6.9550      7.5625      8.7058    
  10.728      15.224      25.011      41.236      62.208      83.956      102.14      113.81      70.701      68.174    
  60.836      49.686      36.819      25.011      16.494      11.780      9.5160      8.1485      7.3366      6.8856    
  6.6497      6.5379      6.5048      6.5379      6.6497      6.8856      7.3366      8.1485      9.5160      11.780    
  16.494      25.011      36.819      49.686      60.836      68.174      37.460      36.113      32.270      26.632    
  20.466      15.224      11.780      9.8430      8.5375      7.6674      7.1259      6.8075      6.6306      6.5426    
  6.5159      6.5426      6.6306      6.8075      7.1259      7.6674      8.5375      9.8430      11.780      15.224    
  20.466      26.632      32.270      36.113      18.825      18.267      16.721      14.575      12.415      10.728    
  9.5160      8.5375      7.8005      7.2846      6.9426      6.7258      6.5957      6.5265      6.5048      6.5265    
  6.5957      6.7258      6.9426      7.2846      7.8005      8.5375      9.5160      10.728      12.415      14.575    
  16.721      18.267      10.893      10.746      10.355      9.8364      9.2866      8.7058      8.1485      7.6674    
  7.2846      6.9971      6.7893      6.6437      6.5471      6.4914      6.4731      6.4914      6.5471      6.6437    
  6.7893      6.9971      7.2846      7.6674      8.1485      8.7058      9.2866      9.8364      10.355      10.746    
  8.2231      8.1958      8.1124      7.9721      7.7826      7.5625      7.3366      7.1259      6.9426      6.7893    
  6.6637      6.5635      6.4886      6.4415      6.4253      6.4415      6.4886      6.5635      6.6637      6.7893    
  6.9426      7.1259      7.3366      7.5625      7.7826      7.9721      8.1124      8.1958      7.0656      7.0652    
  7.0606      7.0441      7.0093      6.9550      6.8856      6.8075      6.7258      6.6437      6.5635      6.4890    
  6.4267      6.3846      6.3697      6.3846      6.4267      6.4890      6.5635      6.6437      6.7258      6.8075    
  6.8856      6.9550      7.0093      7.0441      7.0606      7.0652      6.5449      6.5545      6.5795      6.6107    
  6.6374      6.6518      6.6497      6.6306      6.5957      6.5471      6.4886      6.4267      6.3707      6.3313    
  6.3171      6.3313      6.3707      6.4267      6.4886      6.5471      6.5957      6.6306      6.6497      6.6518    
  6.6374      6.6107      6.5795      6.5545      6.3265      6.3394      6.3746      6.4228      6.4725      6.5133    
  6.5379      6.5426      6.5265      6.4914      6.4415      6.3846      6.3313      6.2932      6.2793      6.2932    
  6.3313      6.3846      6.4415      6.4914      6.5265      6.5426      6.5379      6.5133      6.4725      6.4228    
  6.3746      6.3394      6.2656      6.2793      6.3171      6.3697      6.4253      6.4731      6.5048      6.5159    
  6.5048      6.4731      6.4253      6.3697      6.3171      6.2793      6.2656      6.2793      6.3171      6.3697    
  6.4253      6.4731      6.5048      6.5159      6.5048      6.4731      6.4253      6.3697      6.3171      6.2793    
  6.3265      6.3394      6.3746      6.4228      6.4725      6.5133      6.5379      6.5426      6.5265      6.4914    
  6.4415      6.3846      6.3313      6.2932      6.2793      6.2932      6.3313      6.3846      6.4415      6.4914    
  6.5265      6.5426      6.5379      6.5133      6.4725      6.4228      6.3746      6.3394      6.5449      6.5545    
  6.5795      6.6107      6.6374      6.6518      6.6497      6.6306      6.5957      6.5471      6.4886      6.4267    
  6.3707      6.3313      6.3171      6.3313      6.3707      6.4267      6.4886      6.5471      6.5957      6.6306    
  6.6497      6.6518      6.6374      6.6107      6.5795      6.5545      7.0656      7.0652      7.0606      7.0441    
  7.0093      6.9550      6.8856      6.8075      6.7258      6.6437      6.5635      6.4890      6.4267      6.3846    
  6.3697      6.3846      6.4267      6.4890      6.5635      6.6437      6.7258      6.8075      6.8856      6.9550    
  7.0093      7.0441      7.0606      7.0652      8.2231      8.1958      8.1124      7.9721      7.7826      7.5625    
  7.3366      7.1259      6.9426      6.7893      6.6637      6.5635      6.4886      6.4415      6.4253      6.4415    
  6.4886      6.5635      6.6637      6.7893      6.9426      7.1259      7.3366      7.5625      7.7826      7.9721    
  8.1124      8.1958      10.893      10.746      10.355      9.8364      9.2866      8.7058      8.1485      7.6674    
  7.2846      6.9971      6.7893      6.6437      6.5471      6.4914      6.4731      6.4914      6.5471      6.6437    
  6.7893      6.9971      7.2846      7.6674      8.1485      8.7058      9.2866      9.8364      10.355      10.746    
  18.825      18.267      16.721      14.575      12.415      10.728      9.5160      8.5375      7.8005      7.2846    
  6.9426      6.7258      6.5957      6.5265      6.5048      6.5265      6.5957      6.7258      6.9426      7.2846    
  7.8005      8.5375      9.5160      10.728      12.415      14.575      16.721      18.267      37.460      36.113    
  32.270      26.632      20.466      15.224      11.780      9.8430      8.5375      7.6674      7.1259      6.8075    
  6.6306      6.5426      6.5159      6.5426      6.6306      6.8075      7.1259      7.6674      8.5375      9.8430    
  11.780      15.224      20.466      26.632      32.270      36.113      70.701      68.174      60.836      49.686    
  36.819      25.011      16.494      11.780      9.5160      8.1485      7.3366      6.8856      6.6497      6.5379    
  6.5048      6.5379      6.6497      6.8856      7.3366      8.1485      9.5160      11.780      16.494      25.011    
  36.819      49.686      60.836      68.174      117.78      113.81      102.14      83.956      62.208      41.236    
  25.011      15.224      10.728      8.7058      7.5625      6.9550      6.6518      6.5133      6.4731      6.5133    
  6.6518      6.9550      7.5625      8.7058      10.728      15.224      25.011      41.236      62.208      83.956    
  102.14      113.81      171.89      166.51      150.46      124.93      93.539      62.208      36.819      20.466    
  12.415      9.2866      7.7826      7.0093      6.6374      6.4725      6.4253      6.4725      6.6374      7.0093    
  7.7826      9.2866      12.415      20.466      36.819      62.208      93.539      124.93      150.46      166.51    
  222.70      216.23      196.68      164.92      124.93      83.956      49.686      26.632      14.575      9.8364    
  7.9721      7.0441      6.6107      6.4228      6.3697      6.4228      6.6107      7.0441      7.9721      9.8364    
  14.575      26.632      49.686      83.956      124.93      164.92      196.68      216.23      261.39      254.31    
  232.63      196.68      150.46      102.14      60.836      32.270      16.721      10.355      8.1124      7.0606    
  6.5795      6.3746      6.3171      6.3746      6.5795      7.0606      8.1124      10.355      16.721      32.270    
  60.836      102.14      150.46      196.68      232.63      254.31      284.21      276.91      254.31      216.23    
  166.51      113.81      68.174      36.113      18.267      10.746      8.1958      7.0652      6.5545      6.3394    
  6.2793      6.3394      6.5545      7.0652      8.1958      10.746      18.267      36.113      68.174      113.81    
  166.51      216.23      254.31      276.91      284.21      276.91      254.31      216.23      166.51      113.81    
  68.174      36.113      18.267      10.746      8.1958      7.0652      6.5545      6.3394      6.2793      6.3394    
  6.5545      7.0652      8.1958      10.746      18.267      36.113      68.174      113.81      166.51      216.23    
  254.31      276.91      276.91      269.66      247.29      209.84      161.21      109.92      65.705      34.807    
  17.735      10.610      8.1697      7.0653      6.5643      6.3525      6.2932      6.3525      6.5643      7.0653    
  8.1697      10.610      17.735      34.807      65.705      109.92      161.21      209.84      247.29      269.66    
  254.31      247.29      225.89      190.59      145.46      98.500      58.558      31.093      16.262      10.246    
  8.0897      7.0621      6.5899      6.3881      6.3313      6.3881      6.5899      7.0621      8.0897      10.246    
  16.262      31.093      58.558      98.500      145.46      190.59      225.89      247.29      216.23      209.84    
  190.59      159.48      120.52      80.799      47.758      25.678      14.233      9.7631      7.9547      7.0478    
  6.6222      6.4371      6.3846      6.4371      6.6222      7.0478      7.9547      9.7631      14.233      25.678    
  47.758      80.799      120.52      159.48      190.59      209.84      166.51      161.21      145.46      120.52    
  90.021      59.752      35.377      19.802      12.206      9.2369      7.7720      7.0159      6.6507      6.4881    
  6.4415      6.4881      6.6507      7.0159      7.7720      9.2369      12.206      19.802      35.377      59.752    
  90.021      120.52      145.46      161.21      113.81      109.92      98.500      80.799      59.752      39.586    
  24.105      14.853      10.627      8.6737      7.5597      6.9654      6.6675      6.5310      6.4914      6.5310    
  6.6675      6.9654      7.5597      8.6737      10.627      14.853      24.105      39.586      59.752      80.799    
  98.500      109.92      68.174      65.705      58.558      47.758      35.377      24.105      16.050      11.626    
  9.4628      8.1335      7.3420      6.9008      6.6692      6.5591      6.5265      6.5591      6.6692      6.9008    
  7.3420      8.1335      9.4628      11.626      16.050      24.105      35.377      47.758      58.558      65.705    
  36.113      34.807      31.093      25.678      19.802      14.853      11.626      9.7808      8.5135      7.6675    
  7.1398      6.8286      6.6553      6.5688      6.5426      6.5688      6.6553      6.8286      7.1398      7.6675    
  8.5135      9.7808      11.626      14.853      19.802      25.678      31.093      34.807      18.267      17.735    
  16.262      14.233      12.206      10.627      9.4628      8.5135      7.7983      7.2972      6.9646      6.7536    
  6.6267      6.5591      6.5379      6.5591      6.6267      6.7536      6.9646      7.2972      7.7983      8.5135    
  9.4628      10.627      12.206      14.233      16.262      17.735      10.746      10.610      10.246      9.7631    
  9.2369      8.6737      8.1335      7.6675      7.2972      7.0195      6.8189      6.6784      6.5850      6.5310    
  6.5133      6.5310      6.5850      6.6784      6.8189      7.0195      7.2972      7.6675      8.1335      8.6737    
  9.2369      9.7631      10.246      10.610      8.1958      8.1697      8.0897      7.9547      7.7720      7.5597    
  7.3420      7.1398      6.9646      6.8189      6.6999      6.6047      6.5333      6.4881      6.4725      6.4881    
  6.5333      6.6047      6.6999      6.8189      6.9646      7.1398      7.3420      7.5597      7.7720      7.9547    
  8.0897      8.1697      7.0652      7.0653      7.0621      7.0478      7.0159      6.9654      6.9008      6.8286    
  6.7536      6.6784      6.6047      6.5356      6.4771      6.4371      6.4228      6.4371      6.4771      6.5356    
  6.6047      6.6784      6.7536      6.8286      6.9008      6.9654      7.0159      7.0478      7.0621      7.0653    
  6.5545      6.5643      6.5899      6.6222      6.6507      6.6675      6.6692      6.6553      6.6267      6.5850    
  6.5333      6.4771      6.4252      6.3881      6.3746      6.3881      6.4252      6.4771      6.5333      6.5850    
  6.6267      6.6553      6.6692      6.6675      6.6507      6.6222      6.5899      6.5643      6.3394      6.3525    
  6.3881      6.4371      6.4881      6.5310      6.5591      6.5688      6.5591      6.5310      6.4881      6.4371    
  6.3881      6.3525      6.3394      6.3525      6.3881      6.4371      6.4881      6.5310      6.5591      6.5688    
  6.5591      6.5310      6.4881      6.4371      6.3881      6.3525      6.2793      6.2932      6.3313      6.3846    
  6.4415      6.4914      6.5265      6.5426      6.5379      6.5133      6.4725      6.4228      6.3746      6.3394    
  6.3265      6.3394      6.3746      6.4228      6.4725      6.5133      6.5379      6.5426      6.5265      6.4914    
  6.4415      6.3846      6.3313      6.2932      6.3394      6.3525      6.3881      6.4371      6.4881      6.5310    
  6.5591      6.5688      6.5591      6.5310      6.4881      6.4371      6.3881      6.3525      6.3394      6.3525    
  6.3881      6.4371      6.4881      6.5310      6.5591      6.5688      6.5591      6.5310      6.4881      6.4371    
  6.3881      6.3525      6.5545      6.5643      6.5899      6.6222      6.6507      6.6675      6.6692      6.6553    
  6.6267      6.5850      6.5333      6.4771      6.4252      6.3881      6.3746      6.3881      6.4252      6.4771    
  6.5333      6.5850      6.6267      6.6553      6.6692      6.6675      6.6507      6.6222      6.5899      6.5643    
  7.0652      7.0653      7.0621      7.0478      7.0159      6.9654      6.9008      6.8286      6.7536      6.6784    
  6.6047      6.5356      6.4771      6.4371      6.4228      6.4371      6.4771      6.5356      6.6047      6.6784    
  6.7536      6.8286      6.9008      6.9654      7.0159      7.0478      7.0621      7.0653      8.1958      8.1697    
  8.0897      7.9547      7.7720      7.5597      7.3420      7.1398      6.9646      6.8189      6.6999      6.6047    
  6.5333      6.4881      6.4725      6.4881      6.5333      6.6047      6.6999      6.8189      6.9646      7.1398    
  7.3420      7.5597      7.7720      7.9547      8.0897      8.1697      10.746      10.610      10.246      9.7631    
  9.2369      8.6737      8.1335      7.6675      7.2972      7.0195      6.8189      6.6784      6.5850      6.5310    
  6.5133      6.5310      6.5850      6.6784      6.8189      7.0195      7.2972      7.6675      8.1335      8.6737    
  9.2369      9.7631      10.246      10.610      18.267      17.735      16.262      14.233      12.206      10.627    
  9.4628      8.5135      7.7983      7.2972      6.9646      6.7536      6.6267      6.5591      6.5379      6.5591    
  6.6267      6.7536      6.9646      7.2972      7.7983      8.5135      9.4628      10.627      12.206      14.233    
  16.262      17.735      36.113      34.807      31.093      25.678      19.802      14.853      11.626      9.7808    
  8.5135      7.6675      7.1398      6.8286      6.6553      6.5688      6.5426      6.5688      6.6553      6.8286    
  7.1398      7.6675      8.5135      9.7808      11.626      14.853      19.802      25.678      31.093      34.807    
  68.174      65.705      58.558      47.758      35.377      24.105      16.050      11.626      9.4628      8.1335    
  7.3420      6.9008      6.6692      6.5591      6.5265      6.5591      6.6692      6.9008      7.3420      8.1335    
  9.4628      11.626      16.050      24.105      35.377      47.758      58.558      65.705      113.81      109.92    
  98.500      80.799      59.752      39.586      24.105      14.853      10.627      8.6737      7.5597      6.9654    
  6.6675      6.5310      6.4914      6.5310      6.6675      6.9654      7.5597      8.6737      10.627      14.853    
  24.105      39.586      59.752      80.799      98.500      109.92      166.51      161.21      145.46      120.52    
  90.021      59.752      35.377      19.802      12.206      9.2369      7.7720      7.0159      6.6507      6.4881    
  6.4415      6.4881      6.6507      7.0159      7.7720      9.2369      12.206      19.802      35.377      59.752    
  90.021      120.52      145.46      161.21      216.23      209.84      190.59      159.48      120.52      80.799    
  47.758      25.678      14.233      9.7631      7.9547      7.0478      6.6222      6.4371      6.3846      6.4371    
  6.6222      7.0478      7.9547      9.7631      14.233      25.678      47.758      80.799      120.52      159.48    
  190.59      209.84      254.31      247.29      225.89      190.59      145.46      98.500      58.558      31.093    
  16.262      10.246      8.0897      7.0621      6.5899      6.3881      6.3313      6.3881      6.5899      7.0621    
  8.0897      10.246      16.262      31.093      58.558      98.500      145.46      190.59      225.89      247.29    
  276.91      269.66      247.29      209.84      161.21      109.92      65.705      34.807      17.735      10.610    
  8.1697      7.0653      6.5643      6.3525      6.2932      6.3525      6.5643      7.0653      8.1697      10.610    
  17.735      34.807      65.705      109.92      161.21      209.84      247.29      269.66      261.39      254.31    
  232.63      196.68      150.46      102.14      60.836      32.270      16.721      10.355      8.1124      7.0606    
  6.5795      6.3746      6.3171      6.3746      6.5795      7.0606      8.1124      10.355      16.721      32.270    
  60.836      102.14      150.46      196.68      232.63      254.31      254.31      247.29      225.89      190.59    
  145.46      98.500      58.558      31.093      16.262      10.246      8.0897      7.0621      6.5899      6.3881    
  6.3313      6.3881      6.5899      7.0621      8.0897      10.246      16.262      31.093      58.558      98.500    
  145.46      190.59      225.89      247.29      232.63      225.89      205.53      172.43      130.71      87.910    
  52.023      27.779      15.008      9.9565      8.0197      7.0631      6.6177      6.4252      6.3707      6.4252    
  6.6177      7.0631      8.0197      9.9565      15.008      27.779      52.023      87.910      130.71      172.43    
  205.53      225.89      196.68      190.59      172.43      143.44      107.66      71.718      42.295      23.029    
  13.313      9.5599      7.9008      7.0557      6.6538      6.4771      6.4267      6.4771      6.6538      7.0557    
  7.9008      9.5599      13.313      23.029      42.295      71.718      107.66      143.44      172.43      190.59    
  150.46      145.46      130.71      107.66      79.894      52.780      31.356      17.994      11.654      9.0904    
  7.7391      7.0337      6.6885      6.5333      6.4886      6.5333      6.6885      7.0337      7.7391      9.0904    
  11.654      17.994      31.356      52.780      79.894      107.66      130.71      145.46      102.14      98.500    
  87.910      71.718      52.780      34.980      21.627      13.867      10.353      8.5801      7.5516      6.9967    
  6.7152      6.5850      6.5471      6.5850      6.7152      6.9967      7.5516      8.5801      10.353      13.867    
  21.627      34.980      52.780      71.718      87.910      98.500      60.836      58.558      52.023      42.295    
  31.356      21.627      14.864      11.220      9.3102      8.0920      7.3609      6.9493      6.7311      6.6267    
  6.5957      6.6267      6.7311      6.9493      7.3609      8.0920      9.3102      11.220      14.864      21.627    
  31.356      42.295      52.023      58.558      32.270      31.093      27.779      23.029      17.994      13.867    
  11.220      9.6032      8.4474      7.6726      7.1866      6.8980      6.7363      6.6553      6.6306      6.6553    
  6.7363      6.8980      7.1866      7.6726      8.4474      9.6032      11.220      13.867      17.994      23.029    
  27.779      31.093      16.721      16.262      15.008      13.313      11.654      10.353      9.3102      8.4474    
  7.7973      7.3417      7.0392      6.8470      6.7311      6.6692      6.6497      6.6692      6.7311      6.8470    
  7.0392      7.3417      7.7973      8.4474      9.3102      10.353      11.654      13.313      15.008      16.262    
  10.355      10.246      9.9565      9.5599      9.0904      8.5801      8.0920      7.6726      7.3417      7.0957    
  6.9197      6.7970      6.7152      6.6675      6.6518      6.6675      6.7152      6.7970      6.9197      7.0957    
  7.3417      7.6726      8.0920      8.5801      9.0904      9.5599      9.9565      10.246      8.1124      8.0897    
  8.0197      7.9008      7.7391      7.5516      7.3609      7.1866      7.0392      6.9197      6.8238      6.7471    
  6.6885      6.6507      6.6374      6.6507      6.6885      6.7471      6.8238      6.9197      7.0392      7.1866    
  7.3609      7.5516      7.7391      7.9008      8.0197      8.0897      7.0606      7.0621      7.0631      7.0557    
  7.0337      6.9967      6.9493      6.8980      6.8470      6.7970      6.7471      6.6980      6.6538      6.6222    
  6.6107      6.6222      6.6538      6.6980      6.7471      6.7970      6.8470      6.8980      6.9493      6.9967    
  7.0337      7.0557      7.0631      7.0621      6.5795      6.5899      6.6177      6.6538      6.6885      6.7152    
  6.7311      6.7363      6.7311      6.7152      6.6885      6.6538      6.6177      6.5899      6.5795      6.5899    
  6.6177      6.6538      6.6885      6.7152      6.7311      6.7363      6.7311      6.7152      6.6885      6.6538    
  6.6177      6.5899      6.3746      6.3881      6.4252      6.4771      6.5333      6.5850      6.6267      6.6553    
  6.6692      6.6675      6.6507      6.6222      6.5899      6.5643      6.5545      6.5643      6.5899      6.6222    
  6.6507      6.6675      6.6692      6.6553      6.6267      6.5850      6.5333      6.4771      6.4252      6.3881    
  6.3171      6.3313      6.3707      6.4267      6.4886      6.5471      6.5957      6.6306      6.6497      6.6518    
  6.6374      6.6107      6.5795      6.5545      6.5449      6.5545      6.5795      6.6107      6.6374      6.6518    
  6.6497      6.6306      6.5957      6.5471      6.4886      6.4267      6.3707      6.3313      6.3746      6.3881    
  6.4252      6.4771      6.5333      6.5850      6.6267      6.6553      6.6692      6.6675      6.6507      6.6222    
  6.5899      6.5643      6.5545      6.5643      6.5899      6.6222      6.6507      6.6675      6.6692      6.6553    
  6.6267      6.5850      6.5333      6.4771      6.4252      6.3881      6.5795      6.5899      6.6177      6.6538    
  6.6885      6.7152      6.7311      6.7363      6.7311      6.7152      6.6885      6.6538      6.6177      6.5899    
  6.5795      6.5899      6.6177      6.6538      6.6885      6.7152      6.7311      6.7363      6.7311      6.7152    
  6.6885      6.6538      6.6177      6.5899      7.0606      7.0621      7.0631      7.0557      7.0337      6.9967    
  6.9493      6.8980      6.8470      6.7970      6.7471      6.6980      6.6538      6.6222      6.6107      6.6222    
  6.6538      6.6980      6.7471      6.7970      6.8470      6.8980      6.9493      6.9967      7.0337      7.0557    
  7.0631      7.0621      8.1124      8.0897      8.0197      7.9008      7.7391      7.5516      7.3609      7.1866    
  7.0392      6.9197      6.8238      6.7471      6.6885      6.6507      6.6374      6.6507      6.6885      6.7471    
  6.8238      6.9197      7.0392      7.1866      7.3609      7.5516      7.7391      7.9008      8.0197      8.0897    
  10.355      10.246      9.9565      9.5599      9.0904      8.5801      8.0920      7.6726      7.3417      7.0957    
  6.9197      6.7970      6.7152      6.6675      6.6518      6.6675      6.7152      6.7970      6.9197      7.0957    
  7.3417      7.6726      8.0920      8.5801      9.0904      9.5599      9.9565      10.246      16.721      16.262    
  15.008      13.313      11.654      10.353      9.3102      8.4474      7.7973      7.3417      7.0392      6.8470    
  6.7311      6.6692      6.6497      6.6692      6.7311      6.8470      7.0392      7.3417      7.7973      8.4474    
  9.3102      10.353      11.654      13.313      15.008      16.262      32.270      31.093      27.779      23.029    
  17.994      13.867      11.220      9.6032      8.4474      7.6726      7.1866      6.8980      6.7363      6.6553    
  6.6306      6.6553      6.7363      6.8980      7.1866      7.6726      8.4474      9.6032      11.220      13.867    
  17.994      23.029      27.779      31.093      60.836      58.558      52.023      42.295      31.356      21.627    
  14.864      11.220      9.3102      8.0920      7.3609      6.9493      6.7311      6.6267      6.5957      6.6267    
  6.7311      6.9493      7.3609      8.0920      9.3102      11.220      14.864      21.627      31.356      42.295    
  52.023      58.558      102.14      98.500      87.910      71.718      52.780      34.980      21.627      13.867    
  10.353      8.5801      7.5516      6.9967      6.7152      6.5850      6.5471      6.5850      6.7152      6.9967    
  7.5516      8.5801      10.353      13.867      21.627      34.980      52.780      71.718      87.910      98.500    
  150.46      145.46      130.71      107.66      79.894      52.780      31.356      17.994      11.654      9.0904    
  7.7391      7.0337      6.6885      6.5333      6.4886      6.5333      6.6885      7.0337      7.7391      9.0904    
  11.654      17.994      31.356      52.780      79.894      107.66      130.71      145.46      196.68      190.59    
  172.43      143.44      107.66      71.718      42.295      23.029      13.313      9.5599      7.9008      7.0557    
  6.6538      6.4771      6.4267      6.4771      6.6538      7.0557      7.9008      9.5599      13.313      23.029    
  42.295      71.718      107.66      143.44      172.43      190.59      232.63      225.89      205.53      172.43    
  130.71      87.910      52.023      27.779      15.008      9.9565      8.0197      7.0631      6.6177      6.4252    
  6.3707      6.4252      6.6177      7.0631      8.0197      9.9565      15.008      27.779      52.023      87.910    
  130.71      172.43      205.53      225.89      254.31      247.29      225.89      190.59      145.46      98.500    
  58.558      31.093      16.262      10.246      8.0897      7.0621      6.5899      6.3881      6.3313      6.3881    
  6.5899      7.0621      8.0897      10.246      16.262      31.093      58.558      98.500      145.46      190.59    
  225.89      247.29      222.70      216.23      196.68      164.92      124.93      83.956      49.686      26.632    
  14.575      9.8364      7.9721      7.0441      6.6107      6.4228      6.3697      6.4228      6.6107      7.0441    
  7.9721      9.8364      14.575      26.632      49.686      83.956      124.93      164.92      196.68      216.23    
  216.23      209.84      190.59      159.48      120.52      80.799      47.758      25.678      14.233      9.7631    
  7.9547      7.0478      6.6222      6.4371      6.3846      6.4371      6.6222      7.0478      7.9547      9.7631    
  14.233      25.678      47.758      80.799      120.52      159.48      190.59      209.84      196.68      190.59    
  172.43      143.44      107.66      71.718      42.295      23.029      13.313      9.5599      7.9008      7.0557    
  6.6538      6.4771      6.4267      6.4771      6.6538      7.0557      7.9008      9.5599      13.313      23.029    
  42.295      71.718      107.66      143.44      172.43      190.59      164.92      159.48      143.44      118.31    
  87.929      58.104      34.344      19.335      12.102      9.2503      7.8087      7.0611      6.6980      6.5356    