Cr                                      
   1.00000000000000     
     2.871000    0.000000    0.000000
     0.000000    2.871000    0.000000
     0.000000    0.000000    2.871000
   Cr
     2
Direct
  0.000000  0.000000  0.000000
  0.500000  0.500000  0.500000
 
   28   28   28
 0.29154407065E+03 0.28420864936E+03 0.26139131684E+03 0.22270150251E+03 0.17189444164E+03
 0.11778011325E+03 0.70700966724E+02 0.37459809406E+02 0.18824770384E+02 0.10892616301E+02
 0.82231131434E+01 0.70655674547E+01 0.65449099528E+01 0.63265216233E+01 0.62656044431E+01
 0.63265216233E+01 0.65449099528E+01 0.70655674547E+01 0.82231131434E+01 0.10892616301E+02
 0.18824770384E+02 0.37459809406E+02 0.70700966724E+02 0.11778011325E+03 0.17189444164E+03
 0.22270150251E+03 0.26139131684E+03 0.28420864936E+03 0.28420864936E+03 0.27691027615E+03
 0.25431070780E+03 0.21622864965E+03 0.16650929773E+03 0.11381302853E+03 0.68173810601E+02
 0.36112868275E+02 0.18267329408E+02 0.10746235059E+02 0.81958268166E+01 0.70652001235E+01
 0.65544793103E+01 0.63394335730E+01 0.62793453706E+01 0.63394335730E+01 0.65544793103E+01
 0.70652001235E+01 0.81958268166E+01 0.10746235059E+02 0.18267329408E+02 0.36112868275E+02
 0.68173810601E+02 0.11381302853E+03 0.16650929773E+03 0.21622864965E+03 0.25431070780E+03
 0.27691027615E+03 0.26139131684E+03 0.25431070780E+03 0.23263202985E+03 0.19668130836E+03
 0.15046210656E+03 0.10213873230E+03 0.60835649141E+02 0.32270375423E+02 0.16720897167E+02
 0.10354591741E+02 0.81124049834E+01 0.70606414888E+01 0.65794872951E+01 0.63746187737E+01
 0.63170893597E+01 0.63746187737E+01 0.65794872951E+01 0.70606414888E+01 0.81124049834E+01
 0.10354591741E+02 0.16720897167E+02 0.32270375423E+02 0.60835649141E+02 0.10213873230E+03
 0.15046210656E+03 0.19668130836E+03 0.23263202985E+03 0.25431070780E+03 0.22270150251E+03
 0.21622864965E+03 0.19668130836E+03 0.16491755594E+03 0.12492779167E+03 0.83955540591E+02
 0.49686231630E+02 0.26632497000E+02 0.14575235894E+02 0.98364088828E+01 0.79721125134E+01
 0.70441362208E+01 0.66106719669E+01 0.64228312531E+01 0.63696709697E+01 0.64228312531E+01
 0.66106719669E+01 0.70441362208E+01 0.79721125134E+01 0.98364088828E+01 0.14575235894E+02
 0.26632497000E+02 0.49686231630E+02 0.83955540591E+02 0.12492779167E+03 0.16491755594E+03
 0.19668130836E+03 0.21622864965E+03 0.17189444164E+03 0.16650929773E+03 0.15046210656E+03
 0.12492779167E+03 0.93538761157E+02 0.62208098222E+02 0.36818612762E+02 0.20465632783E+02
 0.12414626578E+02 0.92866411253E+01 0.77825581705E+01 0.70092505988E+01 0.66374440682E+01
 0.64725090629E+01 0.64253428017E+01 0.64725090629E+01 0.66374440682E+01 0.70092505988E+01
 0.77825581705E+01 0.92866411253E+01 0.12414626578E+02 0.20465632783E+02 0.36818612762E+02
 0.62208098222E+02 0.93538761157E+02 0.12492779167E+03 0.15046210656E+03 0.16650929773E+03
 0.11778011325E+03 0.11381302853E+03 0.10213873230E+03 0.83955540591E+02 0.62208098222E+02
 0.41235858995E+02 0.25010919153E+02 0.15224126329E+02 0.10727594786E+02 0.87057974170E+01
 0.75625077756E+01 0.69549725675E+01 0.66517713719E+01 0.65132530691E+01 0.64731017861E+01
 0.65132530691E+01 0.66517713719E+01 0.69549725675E+01 0.75625077756E+01 0.87057974170E+01
 0.10727594786E+02 0.15224126329E+02 0.25010919153E+02 0.41235858995E+02 0.62208098222E+02
 0.83955540591E+02 0.10213873230E+03 0.11381302853E+03 0.70700966724E+02 0.68173810601E+02
 0.60835649141E+02 0.49686231630E+02 0.36818612762E+02 0.25010919153E+02 0.16494167616E+02
 0.11780200838E+02 0.95160017836E+01 0.81484971539E+01 0.73365501011E+01 0.68855994846E+01
 0.66497125758E+01 0.65378534329E+01 0.65048320594E+01 0.65378534329E+01 0.66497125758E+01
 0.68855994846E+01 0.73365501011E+01 0.81484971539E+01 0.95160017836E+01 0.11780200838E+02
 0.16494167616E+02 0.25010919153E+02 0.36818612762E+02 0.49686231630E+02 0.60835649141E+02
 0.68173810601E+02 0.37459809406E+02 0.36112868275E+02 0.32270375423E+02 0.26632497000E+02
 0.20465632783E+02 0.15224126329E+02 0.11780200838E+02 0.98429645197E+01 0.85374991202E+01
 0.76673804363E+01 0.71259458921E+01 0.68074889685E+01 0.66306393573E+01 0.65425736157E+01
 0.65158966317E+01 0.65425736157E+01 0.66306393573E+01 0.68074889685E+01 0.71259458921E+01
 0.76673804363E+01 0.85374991202E+01 0.98429645197E+01 0.11780200838E+02 0.15224126329E+02
 0.20465632783E+02 0.26632497000E+02 0.32270375423E+02 0.36112868275E+02 0.18824770384E+02
 0.18267329408E+02 0.16720897167E+02 0.14575235894E+02 0.12414626578E+02 0.10727594786E+02
 0.95160017836E+01 0.85374991202E+01 0.78005148216E+01 0.72846418500E+01 0.69426061924E+01
 0.67258286759E+01 0.65956990600E+01 0.65265455871E+01 0.65048320594E+01 0.65265455871E+01
 0.65956990600E+01 0.67258286759E+01 0.69426061924E+01 0.72846418500E+01 0.78005148216E+01
 0.85374991202E+01 0.95160017836E+01 0.10727594786E+02 0.12414626578E+02 0.14575235894E+02
 0.16720897167E+02 0.18267329408E+02 0.10892616301E+02 0.10746235059E+02 0.10354591741E+02
 0.98364088828E+01 0.92866411253E+01 0.87057974170E+01 0.81484971539E+01 0.76673804363E+01
 0.72846418500E+01 0.69971385929E+01 0.67892514974E+01 0.66437031976E+01 0.65470868343E+01
 0.64913866202E+01 0.64731017861E+01 0.64913866202E+01 0.65470868343E+01 0.66437031976E+01
 0.67892514974E+01 0.69971385929E+01 0.72846418500E+01 0.76673804363E+01 0.81484971539E+01
 0.87057974170E+01 0.92866411253E+01 0.98364088828E+01 0.10354591741E+02 0.10746235059E+02
 0.82231131434E+01 0.81958268166E+01 0.81124049834E+01 0.79721125134E+01 0.77825581705E+01
 0.75625077756E+01 0.73365501011E+01 0.71259458921E+01 0.69426061924E+01 0.67892514974E+01
 0.66636931397E+01 0.65634873742E+01 0.64885986904E+01 0.64415073807E+01 0.64253428017E+01
 0.64415073807E+01 0.64885986904E+01 0.65634873742E+01 0.66636931397E+01 0.67892514974E+01
 0.69426061924E+01 0.71259458921E+01 0.73365501011E+01 0.75625077756E+01 0.77825581705E+01
 0.79721125134E+01 0.81124049834E+01 0.81958268166E+01 0.70655674547E+01 0.70652001235E+01
 0.70606414888E+01 0.70441362208E+01 0.70092505988E+01 0.69549725675E+01 0.68855994846E+01
 0.68074889685E+01 0.67258286759E+01 0.66437031976E+01 0.65634873742E+01 0.64890123478E+01
 0.64267008304E+01 0.63846142393E+01 0.63696709697E+01 0.63846142393E+01 0.64267008304E+01
 0.64890123478E+01 0.65634873742E+01 0.66437031976E+01 0.67258286759E+01 0.68074889685E+01
 0.68855994846E+01 0.69549725675E+01 0.70092505988E+01 0.70441362208E+01 0.70606414888E+01
 0.70652001235E+01 0.65449099528E+01 0.65544793103E+01 0.65794872951E+01 0.66106719669E+01
 0.66374440682E+01 0.66517713719E+01 0.66497125758E+01 0.66306393573E+01 0.65956990600E+01
 0.65470868343E+01 0.64885986904E+01 0.64267008304E+01 0.63707451365E+01 0.63313368109E+01
 0.63170893597E+01 0.63313368109E+01 0.63707451365E+01 0.64267008304E+01 0.64885986904E+01
 0.65470868343E+01 0.65956990600E+01 0.66306393573E+01 0.66497125758E+01 0.66517713719E+01
 0.66374440682E+01 0.66106719669E+01 0.65794872951E+01 0.65544793103E+01 0.63265216233E+01
 0.63394335730E+01 0.63746187737E+01 0.64228312531E+01 0.64725090629E+01 0.65132530691E+01
 0.65378534329E+01 0.65425736157E+01 0.65265455871E+01 0.64913866202E+01 0.64415073807E+01
 0.63846142393E+01 0.63313368109E+01 0.62932121748E+01 0.62793453706E+01 0.62932121748E+01
 0.63313368109E+01 0.63846142393E+01 0.64415073807E+01 0.64913866202E+01 0.65265455871E+01
 0.65425736157E+01 0.65378534329E+01 0.65132530691E+01 0.64725090629E+01 0.64228312531E+01
 0.63746187737E+01 0.63394335730E+01 0.62656044431E+01 0.62793453706E+01 0.63170893597E+01
 0.63696709697E+01 0.64253428017E+01 0.64731017861E+01 0.65048320594E+01 0.65158966317E+01
 0.65048320594E+01 0.64731017861E+01 0.64253428017E+01 0.63696709697E+01 0.63170893597E+01
 0.62793453706E+01 0.62656044431E+01 0.62793453706E+01 0.63170893597E+01 0.63696709697E+01
 0.64253428017E+01 0.64731017861E+01 0.65048320594E+01 0.65158966317E+01 0.65048320594E+01
 0.64731017861E+01 0.64253428017E+01 0.63696709697E+01 0.63170893597E+01 0.62793453706E+01
 0.63265216233E+01 0.63394335730E+01 0.63746187737E+01 0.64228312531E+01 0.64725090629E+01
 0.65132530691E+01 0.65378534329E+01 0.65425736157E+01 0.65265455871E+01 0.64913866202E+01
 0.64415073807E+01 0.63846142393E+01 0.63313368109E+01 0.62932121748E+01 0.62793453706E+01
 0.62932121748E+01 0.63313368109E+01 0.63846142393E+01 0.64415073807E+01 0.64913866202E+01
 0.65265455871E+01 0.65425736157E+01 0.65378534329E+01 0.65132530691E+01 0.64725090629E+01
 0.64228312531E+01 0.63746187737E+01 0.63394335730E+01 0.65449099528E+01 0.65544793103E+01
 0.65794872951E+01 0.66106719669E+01 0.66374440682E+01 0.66517713719E+01 0.66497125758E+01
 0.66306393573E+01 0.65956990600E+01 0.65470868343E+01 0.64885986904E+01 0.64267008304E+01
 0.63707451365E+01 0.63313368109E+01 0.63170893597E+01 0.63313368109E+01 0.63707451365E+01
 0.64267008304E+01 0.64885986904E+01 0.65470868343E+01 0.65956990600E+01 0.66306393573E+01
 0.66497125758E+01 0.66517713719E+01 0.66374440682E+01 0.66106719669E+01 0.65794872951E+01
 0.65544793103E+01 0.70655674547E+01 0.70652001235E+01 0.70606414888E+01 0.70441362208E+01
 0.70092505988E+01 0.69549725675E+01 0.68855994846E+01 0.68074889685E+01 0.67258286759E+01
 0.66437031976E+01 0.65634873742E+01 0.64890123478E+01 0.64267008304E+01 0.63846142393E+01
 0.63696709697E+01 0.63846142393E+01 0.64267008304E+01 0.64890123478E+01 0.65634873742E+01
 0.66437031976E+01 0.67258286759E+01 0.68074889685E+01 0.68855994846E+01 0.69549725675E+01
 0.70092505988E+01 0.70441362208E+01 0.70606414888E+01 0.70652001235E+01 0.82231131434E+01
 0.81958268166E+01 0.81124049834E+01 0.79721125134E+01 0.77825581705E+01 0.75625077756E+01
 0.73365501011E+01 0.71259458921E+01 0.69426061924E+01 0.67892514974E+01 0.66636931397E+01
 0.65634873742E+01 0.64885986904E+01 0.64415073807E+01 0.64253428017E+01 0.64415073807E+01
 0.64885986904E+01 0.65634873742E+01 0.66636931397E+01 0.67892514974E+01 0.69426061924E+01
 0.71259458921E+01 0.73365501011E+01 0.75625077756E+01 0.77825581705E+01 0.79721125134E+01
 0.81124049834E+01 0.81958268166E+01 0.10892616301E+02 0.10746235059E+02 0.10354591741E+02
 0.98364088828E+01 0.92866411253E+01 0.87057974170E+01 0.81484971539E+01 0.76673804363E+01
 0.72846418500E+01 0.69971385929E+01 0.67892514974E+01 0.66437031976E+01 0.65470868343E+01
 0.64913866202E+01 0.64731017861E+01 0.64913866202E+01 0.65470868343E+01 0.66437031976E+01
 0.67892514974E+01 0.69971385929E+01 0.72846418500E+01 0.76673804363E+01 0.81484971539E+01
 0.87057974170E+01 0.92866411253E+01 0.98364088828E+01 0.10354591741E+02 0.10746235059E+02
 0.18824770384E+02 0.18267329408E+02 0.16720897167E+02 0.14575235894E+02 0.12414626578E+02
 0.10727594786E+02 0.95160017836E+01 0.85374991202E+01 0.78005148216E+01 0.72846418500E+01
 0.69426061924E+01 0.67258286759E+01 0.65956990600E+01 0.65265455871E+01 0.65048320594E+01
 0.65265455871E+01 0.65956990600E+01 0.67258286759E+01 0.69426061924E+01 0.72846418500E+01
 0.78005148216E+01 0.85374991202E+01 0.95160017836E+01 0.10727594786E+02 0.12414626578E+02
 0.14575235894E+02 0.16720897167E+02 0.18267329408E+02 0.37459809406E+02 0.36112868275E+02
 0.32270375423E+02 0.26632497000E+02 0.20465632783E+02 0.15224126329E+02 0.11780200838E+02
 0.98429645197E+01 0.85374991202E+01 0.76673804363E+01 0.71259458921E+01 0.68074889685E+01
 0.66306393573E+01 0.65425736157E+01 0.65158966317E+01 0.65425736157E+01 0.66306393573E+01
 0.68074889685E+01 0.71259458921E+01 0.76673804363E+01 0.85374991202E+01 0.98429645197E+01
 0.11780200838E+02 0.15224126329E+02 0.20465632783E+02 0.26632497000E+02 0.32270375423E+02
 0.36112868275E+02 0.70700966724E+02 0.68173810601E+02 0.60835649141E+02 0.49686231630E+02
 0.36818612762E+02 0.25010919153E+02 0.16494167616E+02 0.11780200838E+02 0.95160017836E+01
 0.81484971539E+01 0.73365501011E+01 0.68855994846E+01 0.66497125758E+01 0.65378534329E+01
 0.65048320594E+01 0.65378534329E+01 0.66497125758E+01 0.68855994846E+01 0.73365501011E+01
 0.81484971539E+01 0.95160017836E+01 0.11780200838E+02 0.16494167616E+02 0.25010919153E+02
 0.36818612762E+02 0.49686231630E+02 0.60835649141E+02 0.68173810601E+02 0.11778011325E+03
 0.11381302853E+03 0.10213873230E+03 0.83955540591E+02 0.62208098222E+02 0.41235858995E+02
 0.25010919153E+02 0.15224126329E+02 0.10727594786E+02 0.87057974170E+01 0.75625077756E+01
 0.69549725675E+01 0.66517713719E+01 0.65132530691E+01 0.64731017861E+01 0.65132530691E+01
 0.66517713719E+01 0.69549725675E+01 0.75625077756E+01 0.87057974170E+01 0.10727594786E+02
 0.15224126329E+02 0.25010919153E+02 0.41235858995E+02 0.62208098222E+02 0.83955540591E+02
 0.10213873230E+03 0.11381302853E+03 0.17189444164E+03 0.16650929773E+03 0.15046210656E+03
 0.12492779167E+03 0.93538761157E+02 0.62208098222E+02 0.36818612762E+02 0.20465632783E+02
 0.12414626578E+02 0.92866411253E+01 0.77825581705E+01 0.70092505988E+01 0.66374440682E+01
 0.64725090629E+01 0.64253428017E+01 0.64725090629E+01 0.66374440682E+01 0.70092505988E+01
 0.77825581705E+01 0.92866411253E+01 0.12414626578E+02 0.20465632783E+02 0.36818612762E+02
 0.62208098222E+02 0.93538761157E+02 0.12492779167E+03 0.15046210656E+03 0.16650929773E+03
 0.22270150251E+03 0.21622864965E+03 0.19668130836E+03 0.16491755594E+03 0.12492779167E+03
 0.83955540591E+02 0.49686231630E+02 0.26632497000E+02 0.14575235894E+02 0.98364088828E+01
 0.79721125134E+01 0.70441362208E+01 0.66106719669E+01 0.64228312531E+01 0.63696709697E+01
 0.64228312531E+01 0.66106719669E+01 0.70441362208E+01 0.79721125134E+01 0.98364088828E+01
 0.14575235894E+02 0.26632497000E+02 0.49686231630E+02 0.83955540591E+02 0.12492779167E+03
 0.16491755594E+03 0.19668130836E+03 0.21622864965E+03 0.26139131684E+03 0.25431070780E+03
 0.23263202985E+03 0.19668130836E+03 0.15046210656E+03 0.10213873230E+03 0.60835649141E+02
 0.32270375423E+02 0.16720897167E+02 0.10354591741E+02 0.81124049834E+01 0.70606414888E+01
 0.65794872951E+01 0.63746187737E+01 0.63170893597E+01 0.63746187737E+01 0.65794872951E+01
 0.70606414888E+01 0.81124049834E+01 0.10354591741E+02 0.16720897167E+02 0.32270375423E+02
 0.60835649141E+02 0.10213873230E+03 0.15046210656E+03 0.19668130836E+03 0.23263202985E+03
 0.25431070780E+03 0.28420864936E+03 0.27691027615E+03 0.25431070780E+03 0.21622864965E+03
 0.16650929773E+03 0.11381302853E+03 0.68173810601E+02 0.36112868275E+02 0.18267329408E+02
 0.10746235059E+02 0.81958268166E+01 0.70652001235E+01 0.65544793103E+01 0.63394335730E+01
 0.62793453706E+01 0.63394335730E+01 0.65544793103E+01 0.70652001235E+01 0.81958268166E+01
 0.10746235059E+02 0.18267329408E+02 0.36112868275E+02 0.68173810601E+02 0.11381302853E+03
 0.16650929773E+03 0.21622864965E+03 0.25431070780E+03 0.27691027615E+03 0.28420864936E+03
 0.27691027615E+03 0.25431070780E+03 0.21622864965E+03 0.16650929773E+03 0.11381302853E+03
 0.68173810601E+02 0.36112868275E+02 0.18267329408E+02 0.10746235059E+02 0.81958268166E+01
 0.70652001235E+01 0.65544793103E+01 0.63394335730E+01 0.62793453706E+01 0.63394335730E+01
 0.65544793103E+01 0.70652001235E+01 0.81958268166E+01 0.10746235059E+02 0.18267329408E+02
 0.36112868275E+02 0.68173810601E+02 0.11381302853E+03 0.16650929773E+03 0.21622864965E+03
 0.25431070780E+03 0.27691027615E+03 0.27691027615E+03 0.26965706529E+03 0.24729373999E+03
 0.20983553400E+03 0.16120783739E+03 0.10992054279E+03 0.65704918723E+02 0.34806678213E+02
 0.17734539439E+02 0.10610140336E+02 0.81697039726E+01 0.70653121123E+01 0.65642767227E+01
 0.63524918809E+01 0.62932121748E+01 0.63524918809E+01 0.65642767227E+01 0.70653121123E+01
 0.81697039726E+01 0.10610140336E+02 0.17734539439E+02 0.34806678213E+02 0.65704918723E+02
 0.10992054279E+03 0.16120783739E+03 0.20983553400E+03 0.24729373999E+03 0.26965706529E+03
 0.25431070780E+03 0.24729373999E+03 0.22589136757E+03 0.19059302227E+03 0.14545802641E+03
 0.98500025056E+02 0.58558441368E+02 0.31093268905E+02 0.16262135260E+02 0.10246391011E+02
 0.80896741799E+01 0.70621363670E+01 0.65899487288E+01 0.63881135787E+01 0.63313368109E+01
 0.63881135787E+01 0.65899487288E+01 0.70621363670E+01 0.80896741799E+01 0.10246391011E+02
 0.16262135260E+02 0.31093268905E+02 0.58558441368E+02 0.98500025056E+02 0.14545802641E+03
 0.19059302227E+03 0.22589136757E+03 0.24729373999E+03 0.21622864965E+03 0.20983553400E+03
 0.19059302227E+03 0.15948083388E+03 0.12051681351E+03 0.80799305641E+02 0.47758267474E+02
 0.25677919670E+02 0.14233056493E+02 0.97631005662E+01 0.79547104451E+01 0.70478131160E+01
 0.66222336592E+01 0.64370991049E+01 0.63846142393E+01 0.64370991049E+01 0.66222336592E+01
 0.70478131160E+01 0.79547104451E+01 0.97631005662E+01 0.14233056493E+02 0.25677919670E+02
 0.47758267474E+02 0.80799305641E+02 0.12051681351E+03 0.15948083388E+03 0.19059302227E+03
 0.20983553400E+03 0.16650929773E+03 0.16120783739E+03 0.14545802641E+03 0.12051681351E+03
 0.90020872794E+02 0.59751932790E+02 0.35376985039E+02 0.19801538864E+02 0.12206102821E+02
 0.92369040318E+01 0.77719695397E+01 0.70158742745E+01 0.66506753544E+01 0.64880801848E+01
 0.64415073807E+01 0.64880801848E+01 0.66506753544E+01 0.70158742745E+01 0.77719695397E+01
 0.92369040318E+01 0.12206102821E+02 0.19801538864E+02 0.35376985039E+02 0.59751932790E+02
 0.90020872794E+02 0.12051681351E+03 0.14545802641E+03 0.16120783739E+03 0.11381302853E+03
 0.10992054279E+03 0.98500025056E+02 0.80799305641E+02 0.59751932790E+02 0.39586435963E+02
 0.24104808539E+02 0.14853343390E+02 0.10626709785E+02 0.86736721629E+01 0.75596968247E+01
 0.69653992082E+01 0.66675372339E+01 0.65310159614E+01 0.64913866202E+01 0.65310159614E+01
 0.66675372339E+01 0.69653992082E+01 0.75596968247E+01 0.86736721629E+01 0.10626709785E+02
 0.14853343390E+02 0.24104808539E+02 0.39586435963E+02 0.59751932790E+02 0.80799305641E+02
 0.98500025056E+02 0.10992054279E+03 0.68173810601E+02 0.65704918723E+02 0.58558441368E+02
 0.47758267474E+02 0.35376985039E+02 0.24104808539E+02 0.16049547894E+02 0.11626334524E+02
 0.94627913719E+01 0.81334994242E+01 0.73420087391E+01 0.69008313033E+01 0.66692190227E+01
 0.65590937448E+01 0.65265455871E+01 0.65590937448E+01 0.66692190227E+01 0.69008313033E+01
 0.73420087391E+01 0.81334994242E+01 0.94627913719E+01 0.11626334524E+02 0.16049547894E+02
 0.24104808539E+02 0.35376985039E+02 0.47758267474E+02 0.58558441368E+02 0.65704918723E+02
 0.36112868275E+02 0.34806678213E+02 0.31093268905E+02 0.25677919670E+02 0.19801538864E+02
 0.14853343390E+02 0.11626334524E+02 0.97808103317E+01 0.85135251840E+01 0.76674879373E+01
 0.71397955258E+01 0.68285696028E+01 0.66552694783E+01 0.65687946950E+01 0.65425736157E+01
 0.65687946950E+01 0.66552694783E+01 0.68285696028E+01 0.71397955258E+01 0.76674879373E+01
 0.85135251840E+01 0.97808103317E+01 0.11626334524E+02 0.14853343390E+02 0.19801538864E+02
 0.25677919670E+02 0.31093268905E+02 0.34806678213E+02 0.18267329408E+02 0.17734539439E+02
 0.16262135260E+02 0.14233056493E+02 0.12206102821E+02 0.10626709785E+02 0.94627913719E+01
 0.85135251840E+01 0.77982546852E+01 0.72971942331E+01 0.69646416481E+01 0.67535846782E+01
 0.66266635542E+01 0.65590937448E+01 0.65378534329E+01 0.65590937448E+01 0.66266635542E+01
 0.67535846782E+01 0.69646416481E+01 0.72971942331E+01 0.77982546852E+01 0.85135251840E+01
 0.94627913719E+01 0.10626709785E+02 0.12206102821E+02 0.14233056493E+02 0.16262135260E+02
 0.17734539439E+02 0.10746235059E+02 0.10610140336E+02 0.10246391011E+02 0.97631005662E+01
 0.92369040318E+01 0.86736721629E+01 0.81334994242E+01 0.76674879373E+01 0.72971942331E+01
 0.70194620370E+01 0.68188810735E+01 0.66784288816E+01 0.65850181557E+01 0.65310159614E+01
 0.65132530691E+01 0.65310159614E+01 0.65850181557E+01 0.66784288816E+01 0.68188810735E+01
 0.70194620370E+01 0.72971942331E+01 0.76674879373E+01 0.81334994242E+01 0.86736721629E+01
 0.92369040318E+01 0.97631005662E+01 0.10246391011E+02 0.10610140336E+02 0.81958268166E+01
 0.81697039726E+01 0.80896741799E+01 0.79547104451E+01 0.77719695397E+01 0.75596968247E+01
 0.73420087391E+01 0.71397955258E+01 0.69646416481E+01 0.68188810735E+01 0.66998618822E+01
 0.66047306389E+01 0.65332747366E+01 0.64880801848E+01 0.64725090629E+01 0.64880801848E+01
 0.65332747366E+01 0.66047306389E+01 0.66998618822E+01 0.68188810735E+01 0.69646416481E+01
 0.71397955258E+01 0.73420087391E+01 0.75596968247E+01 0.77719695397E+01 0.79547104451E+01
 0.80896741799E+01 0.81697039726E+01 0.70652001235E+01 0.70653121123E+01 0.70621363670E+01
 0.70478131160E+01 0.70158742745E+01 0.69653992082E+01 0.69008313033E+01 0.68285696028E+01
 0.67535846782E+01 0.66784288816E+01 0.66047306389E+01 0.65356058458E+01 0.64770549213E+01
 0.64370991049E+01 0.64228312531E+01 0.64370991049E+01 0.64770549213E+01 0.65356058458E+01
 0.66047306389E+01 0.66784288816E+01 0.67535846782E+01 0.68285696028E+01 0.69008313033E+01
 0.69653992082E+01 0.70158742745E+01 0.70478131160E+01 0.70621363670E+01 0.70653121123E+01
 0.65544793103E+01 0.65642767227E+01 0.65899487288E+01 0.66222336592E+01 0.66506753544E+01
 0.66675372339E+01 0.66692190227E+01 0.66552694783E+01 0.66266635542E+01 0.65850181557E+01
 0.65332747366E+01 0.64770549213E+01 0.64251733112E+01 0.63881135787E+01 0.63746187737E+01
 0.63881135787E+01 0.64251733112E+01 0.64770549213E+01 0.65332747366E+01 0.65850181557E+01
 0.66266635542E+01 0.66552694783E+01 0.66692190227E+01 0.66675372339E+01 0.66506753544E+01
 0.66222336592E+01 0.65899487288E+01 0.65642767227E+01 0.63394335730E+01 0.63524918809E+01
 0.63881135787E+01 0.64370991049E+01 0.64880801848E+01 0.65310159614E+01 0.65590937448E+01
 0.65687946950E+01 0.65590937448E+01 0.65310159614E+01 0.64880801848E+01 0.64370991049E+01
 0.63881135787E+01 0.63524918809E+01 0.63394335730E+01 0.63524918809E+01 0.63881135787E+01
 0.64370991049E+01 0.64880801848E+01 0.65310159614E+01 0.65590937448E+01 0.65687946950E+01
 0.65590937448E+01 0.65310159614E+01 0.64880801848E+01 0.64370991049E+01 0.63881135787E+01
 0.63524918809E+01 0.62793453706E+01 0.62932121748E+01 0.63313368109E+01 0.63846142393E+01
 0.64415073807E+01 0.64913866202E+01 0.65265455871E+01 0.65425736157E+01 0.65378534329E+01
 0.65132530691E+01 0.64725090629E+01 0.64228312531E+01 0.63746187737E+01 0.63394335730E+01
 0.63265216233E+01 0.63394335730E+01 0.63746187737E+01 0.64228312531E+01 0.64725090629E+01
 0.65132530691E+01 0.65378534329E+01 0.65425736157E+01 0.65265455871E+01 0.64913866202E+01
 0.64415073807E+01 0.63846142393E+01 0.63313368109E+01 0.62932121748E+01 0.63394335730E+01
 0.63524918809E+01 0.63881135787E+01 0.64370991049E+01 0.64880801848E+01 0.65310159614E+01
 0.65590937448E+01 0.65687946950E+01 0.65590937448E+01 0.65310159614E+01 0.64880801848E+01
 0.64370991049E+01 0.63881135787E+01 0.63524918809E+01 0.63394335730E+01 0.63524918809E+01
 0.63881135787E+01 0.64370991049E+01 0.64880801848E+01 0.65310159614E+01 0.65590937448E+01
 0.65687946950E+01 0.65590937448E+01 0.65310159614E+01 0.64880801848E+01 0.64370991049E+01
 0.63881135787E+01 0.63524918809E+01 0.65544793103E+01 0.65642767227E+01 0.65899487288E+01
 0.66222336592E+01 0.66506753544E+01 0.66675372339E+01 0.66692190227E+01 0.66552694783E+01
 0.66266635542E+01 0.65850181557E+01 0.65332747366E+01 0.64770549213E+01 0.64251733112E+01
 0.63881135787E+01 0.63746187737E+01 0.63881135787E+01 0.64251733112E+01 0.64770549213E+01
 0.65332747366E+01 0.65850181557E+01 0.66266635542E+01 0.66552694783E+01 0.66692190227E+01
 0.66675372339E+01 0.66506753544E+01 0.66222336592E+01 0.65899487288E+01 0.65642767227E+01
 0.70652001235E+01 0.70653121123E+01 0.70621363670E+01 0.70478131160E+01 0.70158742745E+01
 0.69653992082E+01 0.69008313033E+01 0.68285696028E+01 0.67535846782E+01 0.66784288816E+01
 0.66047306389E+01 0.65356058458E+01 0.64770549213E+01 0.64370991049E+01 0.64228312531E+01
 0.64370991049E+01 0.64770549213E+01 0.65356058458E+01 0.66047306389E+01 0.66784288816E+01
 0.67535846782E+01 0.68285696028E+01 0.69008313033E+01 0.69653992082E+01 0.70158742745E+01
 0.70478131160E+01 0.70621363670E+01 0.70653121123E+01 0.81958268166E+01 0.81697039726E+01
 0.80896741799E+01 0.79547104451E+01 0.77719695397E+01 0.75596968247E+01 0.73420087391E+01
 0.71397955258E+01 0.69646416481E+01 0.68188810735E+01 0.66998618822E+01 0.66047306389E+01
 0.65332747366E+01 0.64880801848E+01 0.64725090629E+01 0.64880801848E+01 0.65332747366E+01
 0.66047306389E+01 0.66998618822E+01 0.68188810735E+01 0.69646416481E+01 0.71397955258E+01
 0.73420087391E+01 0.75596968247E+01 0.77719695397E+01 0.79547104451E+01 0.80896741799E+01
 0.81697039726E+01 0.10746235059E+02 0.10610140336E+02 0.10246391011E+02 0.97631005662E+01
 0.92369040318E+01 0.86736721629E+01 0.81334994242E+01 0.76674879373E+01 0.72971942331E+01
 0.70194620370E+01 0.68188810735E+01 0.66784288816E+01 0.65850181557E+01 0.65310159614E+01
 0.65132530691E+01 0.65310159614E+01 0.65850181557E+01 0.66784288816E+01 0.68188810735E+01
 0.70194620370E+01 0.72971942331E+01 0.76674879373E+01 0.81334994242E+01 0.86736721629E+01
 0.92369040318E+01 0.97631005662E+01 0.10246391011E+02 0.10610140336E+02 0.18267329408E+02
 0.17734539439E+02 0.16262135260E+02 0.14233056493E+02 0.12206102821E+02 0.10626709785E+02
 0.94627913719E+01 0.85135251840E+01 0.77982546852E+01 0.72971942331E+01 0.69646416481E+01
 0.67535846782E+01 0.66266635542E+01 0.65590937448E+01 0.65378534329E+01 0.65590937448E+01
 0.66266635542E+01 0.67535846782E+01 0.69646416481E+01 0.72971942331E+01 0.77982546852E+01
 0.85135251840E+01 0.94627913719E+01 0.10626709785E+02 0.12206102821E+02 0.14233056493E+02
 0.16262135260E+02 0.17734539439E+02 0.36112868275E+02 0.34806678213E+02 0.31093268905E+02
 0.25677919670E+02 0.19801538864E+02 0.14853343390E+02 0.11626334524E+02 0.97808103317E+01
 0.85135251840E+01 0.76674879373E+01 0.71397955258E+01 0.68285696028E+01 0.66552694783E+01
 0.65687946950E+01 0.65425736157E+01 0.65687946950E+01 0.66552694783E+01 0.68285696028E+01
 0.71397955258E+01 0.76674879373E+01 0.85135251840E+01 0.97808103317E+01 0.11626334524E+02
 0.14853343390E+02 0.19801538864E+02 0.25677919670E+02 0.31093268905E+02 0.34806678213E+02
 0.68173810601E+02 0.65704918723E+02 0.58558441368E+02 0.47758267474E+02 0.35376985039E+02
 0.24104808539E+02 0.16049547894E+02 0.11626334524E+02 0.94627913719E+01 0.81334994242E+01
 0.73420087391E+01 0.69008313033E+01 0.66692190227E+01 0.65590937448E+01 0.65265455871E+01
 0.65590937448E+01 0.66692190227E+01 0.69008313033E+01 0.73420087391E+01 0.81334994242E+01
 0.94627913719E+01 0.11626334524E+02 0.16049547894E+02 0.24104808539E+02 0.35376985039E+02
 0.47758267474E+02 0.58558441368E+02 0.65704918723E+02 0.11381302853E+03 0.10992054279E+03
 0.98500025056E+02 0.80799305641E+02 0.59751932790E+02 0.39586435963E+02 0.24104808539E+02
 0.14853343390E+02 0.10626709785E+02 0.86736721629E+01 0.75596968247E+01 0.69653992082E+01
 0.66675372339E+01 0.65310159614E+01 0.64913866202E+01 0.65310159614E+01 0.66675372339E+01
 0.69653992082E+01 0.75596968247E+01 0.86736721629E+01 0.10626709785E+02 0.14853343390E+02
 0.24104808539E+02 0.39586435963E+02 0.59751932790E+02 0.80799305641E+02 0.98500025056E+02
 0.10992054279E+03 0.16650929773E+03 0.16120783739E+03 0.14545802641E+03 0.12051681351E+03
 0.90020872794E+02 0.59751932790E+02 0.35376985039E+02 0.19801538864E+02 0.12206102821E+02
 0.92369040318E+01 0.77719695397E+01 0.70158742745E+01 0.66506753544E+01 0.64880801848E+01
 0.64415073807E+01 0.64880801848E+01 0.66506753544E+01 0.70158742745E+01 0.77719695397E+01
 0.92369040318E+01 0.12206102821E+02 0.19801538864E+02 0.35376985039E+02 0.59751932790E+02
 0.90020872794E+02 0.12051681351E+03 0.14545802641E+03 0.16120783739E+03 0.21622864965E+03
 0.20983553400E+03 0.19059302227E+03 0.15948083388E+03 0.12051681351E+03 0.80799305641E+02
 0.47758267474E+02 0.25677919670E+02 0.14233056493E+02 0.97631005662E+01 0.79547104451E+01
 0.70478131160E+01 0.66222336592E+01 0.64370991049E+01 0.63846142393E+01 0.64370991049E+01
 0.66222336592E+01 0.70478131160E+01 0.79547104451E+01 0.97631005662E+01 0.14233056493E+02
 0.25677919670E+02 0.47758267474E+02 0.80799305641E+02 0.12051681351E+03 0.15948083388E+03
 0.19059302227E+03 0.20983553400E+03 0.25431070780E+03 0.24729373999E+03 0.22589136757E+03
 0.19059302227E+03 0.14545802641E+03 0.98500025056E+02 0.58558441368E+02 0.31093268905E+02
 0.16262135260E+02 0.10246391011E+02 0.80896741799E+01 0.70621363670E+01 0.65899487288E+01
 0.63881135787E+01 0.63313368109E+01 0.63881135787E+01 0.65899487288E+01 0.70621363670E+01
 0.80896741799E+01 0.10246391011E+02 0.16262135260E+02 0.31093268905E+02 0.58558441368E+02
 0.98500025056E+02 0.14545802641E+03 0.19059302227E+03 0.22589136757E+03 0.24729373999E+03
 0.27691027615E+03 0.26965706529E+03 0.24729373999E+03 0.20983553400E+03 0.16120783739E+03
 0.10992054279E+03 0.65704918723E+02 0.34806678213E+02 0.17734539439E+02 0.10610140336E+02
 0.81697039726E+01 0.70653121123E+01 0.65642767227E+01 0.63524918809E+01 0.62932121748E+01
 0.63524918809E+01 0.65642767227E+01 0.70653121123E+01 0.81697039726E+01 0.10610140336E+02
 0.17734539439E+02 0.34806678213E+02 0.65704918723E+02 0.10992054279E+03 0.16120783739E+03
 0.20983553400E+03 0.24729373999E+03 0.26965706529E+03 0.26139131684E+03 0.25431070780E+03
 0.23263202985E+03 0.19668130836E+03 0.15046210656E+03 0.10213873230E+03 0.60835649141E+02
 0.32270375423E+02 0.16720897167E+02 0.10354591741E+02 0.81124049834E+01 0.70606414888E+01
 0.65794872951E+01 0.63746187737E+01 0.63170893597E+01 0.63746187737E+01 0.65794872951E+01
 0.70606414888E+01 0.81124049834E+01 0.10354591741E+02 0.16720897167E+02 0.32270375423E+02
 0.60835649141E+02 0.10213873230E+03 0.15046210656E+03 0.19668130836E+03 0.23263202985E+03
 0.25431070780E+03 0.25431070780E+03 0.24729373999E+03 0.22589136757E+03 0.19059302227E+03
 0.14545802641E+03 0.98500025056E+02 0.58558441368E+02 0.31093268905E+02 0.16262135260E+02
 0.10246391011E+02 0.80896741799E+01 0.70621363670E+01 0.65899487288E+01 0.63881135787E+01
 0.63313368109E+01 0.63881135787E+01 0.65899487288E+01 0.70621363670E+01 0.80896741799E+01
 0.10246391011E+02 0.16262135260E+02 0.31093268905E+02 0.58558441368E+02 0.98500025056E+02
 0.14545802641E+03 0.19059302227E+03 0.22589136757E+03 0.24729373999E+03 0.23263202985E+03
 0.22589136757E+03 0.20552991232E+03 0.17242556764E+03 0.13071117696E+03 0.87910066539E+02