   2   2   0   0
  0.1183231E+02  0.2871000E-09  0.2871000E-09  0.2871000E-09  0.5000000E-15
  1.000000000000000E-004
  CAR 
 Cr                                      
     79.71260505    -38.50969088  301     10.65936578      1.00000000
    -38.510  0.0000E+00  0.0000E+00  0.0000E+00  0.0000E+00
    -38.116  0.0000E+00  0.0000E+00  0.0000E+00  0.0000E+00
    -37.722  0.0000E+00  0.0000E+00  0.0000E+00  0.0000E+00
    -37.327  0.0000E+00  0.0000E+00  0.0000E+00  0.0000E+00
    -36.933  0.0000E+00  0.0000E+00  0.0000E+00  0.0000E+00
    -36.539  0.0000E+00  0.0000E+00  0.0000E+00  0.0000E+00
    -36.145  0.0000E+00  0.0000E+00  0.0000E+00  0.0000E+00
    -35.751  0.0000E+00  0.0000E+00  0.0000E+00  0.0000E+00
    -35.357  0.0000E+00  0.0000E+00  0.0000E+00  0.0000E+00
    -34.963  0.0000E+00  0.0000E+00  0.0000E+00  0.0000E+00
    -34.569  0.0000E+00  0.0000E+00  0.0000E+00  0.0000E+00
    -34.175  0.0000E+00  0.0000E+00  0.0000E+00  0.0000E+00
    -33.781  0.0000E+00  0.0000E+00  0.0000E+00  0.0000E+00
    -33.387  0.2131E-13  0.2131E-13  0.8396E-14  0.8396E-14
    -32.993  0.3301E+01  0.3301E+01  0.1301E+01  0.1301E+01
    -32.599  0.4031E+01  0.4031E+01  0.3000E+01  0.3000E+01
    -32.205  0.0000E+00  0.0000E+00  0.3000E+01  0.3000E+01
    -31.810  0.4856E+00  0.4856E+00  0.3191E+01  0.3191E+01
    -31.416  0.7094E+01  0.7094E+01  0.6000E+01  0.6000E+01
    -31.022  0.0000E+00  0.0000E+00  0.6000E+01  0.6000E+01
    -30.628  0.0000E+00  0.0000E+00  0.6000E+01  0.6000E+01
    -30.234  0.0000E+00  0.0000E+00  0.6000E+01  0.6000E+01
    -29.840  0.0000E+00  0.0000E+00  0.6000E+01  0.6000E+01
    -29.446  0.0000E+00  0.0000E+00  0.6000E+01  0.6000E+01
    -29.052  0.0000E+00  0.0000E+00  0.6000E+01  0.6000E+01
    -28.658  0.0000E+00  0.0000E+00  0.6000E+01  0.6000E+01
    -28.264  0.0000E+00  0.0000E+00  0.6000E+01  0.6000E+01
    -27.870  0.0000E+00  0.0000E+00  0.6000E+01  0.6000E+01
    -27.476  0.0000E+00  0.0000E+00  0.6000E+01  0.6000E+01
    -27.082  0.0000E+00  0.0000E+00  0.6000E+01  0.6000E+01
    -26.687  0.0000E+00  0.0000E+00  0.6000E+01  0.6000E+01
    -26.293  0.0000E+00  0.0000E+00  0.6000E+01  0.6000E+01
    -25.899  0.0000E+00  0.0000E+00  0.6000E+01  0.6000E+01
    -25.505  0.0000E+00  0.0000E+00  0.6000E+01  0.6000E+01
    -25.111  0.0000E+00  0.0000E+00  0.6000E+01  0.6000E+01
    -24.717  0.0000E+00  0.0000E+00  0.6000E+01  0.6000E+01
    -24.323  0.0000E+00  0.0000E+00  0.6000E+01  0.6000E+01
    -23.929  0.0000E+00  0.0000E+00  0.6000E+01  0.6000E+01
    -23.535  0.0000E+00  0.0000E+00  0.6000E+01  0.6000E+01
    -23.141  0.0000E+00  0.0000E+00  0.6000E+01  0.6000E+01
    -22.747  0.0000E+00  0.0000E+00  0.6000E+01  0.6000E+01
    -22.353  0.0000E+00  0.0000E+00  0.6000E+01  0.6000E+01
    -21.959  0.0000E+00  0.0000E+00  0.6000E+01  0.6000E+01
    -21.564  0.0000E+00  0.0000E+00  0.6000E+01  0.6000E+01
    -21.170  0.0000E+00  0.0000E+00  0.6000E+01  0.6000E+01
    -20.776  0.0000E+00  0.0000E+00  0.6000E+01  0.6000E+01
    -20.382  0.0000E+00  0.0000E+00  0.6000E+01  0.6000E+01
    -19.988  0.0000E+00  0.0000E+00  0.6000E+01  0.6000E+01
    -19.594  0.0000E+00  0.0000E+00  0.6000E+01  0.6000E+01
    -19.200  0.0000E+00  0.0000E+00  0.6000E+01  0.6000E+01
    -18.806  0.0000E+00  0.0000E+00  0.6000E+01  0.6000E+01
    -18.412  0.0000E+00  0.0000E+00  0.6000E+01  0.6000E+01
    -18.018  0.0000E+00  0.0000E+00  0.6000E+01  0.6000E+01
    -17.624  0.0000E+00  0.0000E+00  0.6000E+01  0.6000E+01
    -17.230  0.0000E+00  0.0000E+00  0.6000E+01  0.6000E+01
    -16.836  0.0000E+00  0.0000E+00  0.6000E+01  0.6000E+01
    -16.442  0.0000E+00  0.0000E+00  0.6000E+01  0.6000E+01
    -16.047  0.0000E+00  0.0000E+00  0.6000E+01  0.6000E+01
    -15.653  0.0000E+00  0.0000E+00  0.6000E+01  0.6000E+01
    -15.259  0.0000E+00  0.0000E+00  0.6000E+01  0.6000E+01
    -14.865  0.0000E+00  0.0000E+00  0.6000E+01  0.6000E+01
    -14.471  0.0000E+00  0.0000E+00  0.6000E+01  0.6000E+01
    -14.077  0.0000E+00  0.0000E+00  0.6000E+01  0.6000E+01
    -13.683  0.0000E+00  0.0000E+00  0.6000E+01  0.6000E+01
    -13.289  0.0000E+00  0.0000E+00  0.6000E+01  0.6000E+01
    -12.895  0.0000E+00  0.0000E+00  0.6000E+01  0.6000E+01
    -12.501  0.0000E+00  0.0000E+00  0.6000E+01  0.6000E+01
    -12.107  0.0000E+00  0.0000E+00  0.6000E+01  0.6000E+01
    -11.713  0.0000E+00  0.0000E+00  0.6000E+01  0.6000E+01
    -11.319  0.0000E+00  0.0000E+00  0.6000E+01  0.6000E+01
    -10.924  0.0000E+00  0.0000E+00  0.6000E+01  0.6000E+01
    -10.530  0.0000E+00  0.0000E+00  0.6000E+01  0.6000E+01
    -10.136  0.0000E+00  0.0000E+00  0.6000E+01  0.6000E+01
     -9.742  0.0000E+00  0.0000E+00  0.6000E+01  0.6000E+01
     -9.348  0.0000E+00  0.0000E+00  0.6000E+01  0.6000E+01
     -8.954  0.0000E+00  0.0000E+00  0.6000E+01  0.6000E+01
     -8.560  0.0000E+00  0.0000E+00  0.6000E+01  0.6000E+01
     -8.166  0.0000E+00  0.0000E+00  0.6000E+01  0.6000E+01
     -7.772  0.0000E+00  0.0000E+00  0.6000E+01  0.6000E+01
     -7.378  0.0000E+00  0.0000E+00  0.6000E+01  0.6000E+01
     -6.984  0.0000E+00  0.0000E+00  0.6000E+01  0.6000E+01
     -6.590  0.0000E+00  0.0000E+00  0.6000E+01  0.6000E+01
     -6.196  0.0000E+00  0.0000E+00  0.6000E+01  0.6000E+01
     -5.802  0.0000E+00  0.0000E+00  0.6000E+01  0.6000E+01
     -5.407  0.0000E+00  0.0000E+00  0.6000E+01  0.6000E+01
     -5.013  0.0000E+00  0.0000E+00  0.6000E+01  0.6000E+01
     -4.619  0.0000E+00  0.0000E+00  0.6000E+01  0.6000E+01
     -4.225  0.0000E+00  0.0000E+00  0.6000E+01  0.6000E+01
     -3.831  0.0000E+00  0.0000E+00  0.6000E+01  0.6000E+01
     -3.437  0.0000E+00  0.0000E+00  0.6000E+01  0.6000E+01
     -3.043  0.0000E+00  0.0000E+00  0.6000E+01  0.6000E+01
     -2.649  0.0000E+00  0.0000E+00  0.6000E+01  0.6000E+01
     -2.255  0.0000E+00  0.0000E+00  0.6000E+01  0.6000E+01
     -1.861  0.0000E+00  0.0000E+00  0.6000E+01  0.6000E+01
     -1.467  0.0000E+00  0.0000E+00  0.6000E+01  0.6000E+01
     -1.073  0.0000E+00  0.0000E+00  0.6000E+01  0.6000E+01
     -0.679  0.0000E+00  0.0000E+00  0.6000E+01  0.6000E+01
     -0.284  0.0000E+00  0.0000E+00  0.6000E+01  0.6000E+01
      0.110  0.0000E+00  0.0000E+00  0.6000E+01  0.6000E+01
      0.504  0.0000E+00  0.0000E+00  0.6000E+01  0.6000E+01
      0.898  0.0000E+00  0.0000E+00  0.6000E+01  0.6000E+01
      1.292  0.0000E+00  0.0000E+00  0.6000E+01  0.6000E+01
      1.686  0.0000E+00  0.0000E+00  0.6000E+01  0.6000E+01
      2.080  0.0000E+00  0.0000E+00  0.6000E+01  0.6000E+01
      2.474  0.0000E+00  0.0000E+00  0.6000E+01  0.6000E+01
      2.868  0.2449E-02  0.2449E-02  0.6001E+01  0.6001E+01
      3.262  0.3085E-01  0.3085E-01  0.6013E+01  0.6013E+01
      3.656  0.5947E-01  0.5947E-01  0.6037E+01  0.6037E+01
      4.050  0.3979E-01  0.3979E-01  0.6053E+01  0.6053E+01
      4.444  0.1207E+00  0.1207E+00  0.6100E+01  0.6100E+01
      4.838  0.1189E+00  0.1189E+00  0.6158E+01  0.6158E+01
      5.233  0.5902E-01  0.5902E-01  0.6181E+01  0.6181E+01
      5.627  0.1726E+00  0.1726E+00  0.6250E+01  0.6250E+01
      6.021  0.2676E+00  0.2676E+00  0.6355E+01  0.6355E+01
      6.415  0.4504E+00  0.4504E+00  0.6533E+01  0.6533E+01
      6.809  0.8217E+00  0.8217E+00  0.6856E+01  0.6856E+01
      7.203  0.1161E+01  0.1161E+01  0.7335E+01  0.7335E+01
      7.597  0.1511E+01  0.1511E+01  0.7943E+01  0.7943E+01
      7.991  0.6810E+00  0.6810E+00  0.8215E+01  0.8215E+01
      8.385  0.1368E+01  0.1368E+01  0.8787E+01  0.8787E+01
      8.779  0.2132E+01  0.2132E+01  0.9645E+01  0.9645E+01
      9.173  0.1679E+01  0.1679E+01  0.1031E+02  0.1031E+02
      9.567  0.2204E+01  0.2204E+01  0.1121E+02  0.1121E+02
      9.961  0.8507E+00  0.8507E+00  0.1159E+02  0.1159E+02
     10.356  0.7653E+00  0.7653E+00  0.1189E+02  0.1189E+02
     10.750  0.4153E+00  0.4153E+00  0.1206E+02  0.1206E+02
     11.144  0.4347E+00  0.4347E+00  0.1224E+02  0.1224E+02
     11.538  0.1757E+01  0.1757E+01  0.1295E+02  0.1295E+02
     11.932  0.3054E+01  0.3054E+01  0.1419E+02  0.1419E+02
     12.326  0.2290E+01  0.2290E+01  0.1513E+02  0.1513E+02
     12.720  0.1327E+01  0.1327E+01  0.1567E+02  0.1567E+02
     13.114  0.1770E+01  0.1770E+01  0.1638E+02  0.1638E+02
     13.508  0.6135E+00  0.6135E+00  0.1662E+02  0.1662E+02
     13.902  0.5340E+00  0.5340E+00  0.1683E+02  0.1683E+02
     14.296  0.1905E+00  0.1905E+00  0.1691E+02  0.1691E+02
     14.690  0.3796E+00  0.3796E+00  0.1706E+02  0.1706E+02
     15.084  0.2682E+00  0.2682E+00  0.1717E+02  0.1717E+02
     15.478  0.3265E+00  0.3265E+00  0.1730E+02  0.1730E+02
     15.873  0.1619E+00  0.1619E+00  0.1736E+02  0.1736E+02
     16.267  0.4718E+00  0.4718E+00  0.1755E+02  0.1755E+02
     16.661  0.5947E-01  0.5947E-01  0.1757E+02  0.1757E+02
     17.055  0.1810E+00  0.1810E+00  0.1764E+02  0.1764E+02
     17.449  0.2758E+01  0.2758E+01  0.1875E+02  0.1875E+02
     17.843  0.2166E+00  0.2166E+00  0.1883E+02  0.1883E+02
     18.237  0.1188E+00  0.1188E+00  0.1889E+02  0.1889E+02
     18.631  0.8544E-01  0.8544E-01  0.1892E+02  0.1892E+02
     19.025  0.2511E+01  0.2511E+01  0.1991E+02  0.1991E+02
     19.419  0.1135E+00  0.1135E+00  0.1996E+02  0.1996E+02
     19.813  0.1272E+00  0.1272E+00  0.2001E+02  0.2001E+02
     20.207  0.6605E-01  0.6605E-01  0.2004E+02  0.2004E+02
     20.601  0.6980E+00  0.6980E+00  0.2031E+02  0.2031E+02
     20.996  0.9198E-01  0.9198E-01  0.2035E+02  0.2035E+02
     21.390  0.1022E+01  0.1022E+01  0.2075E+02  0.2075E+02
     21.784  0.3070E+00  0.3070E+00  0.2087E+02  0.2087E+02
     22.178  0.2756E+00  0.2756E+00  0.2098E+02  0.2098E+02
     22.572  0.3484E+00  0.3484E+00  0.2112E+02  0.2112E+02
     22.966  0.3744E+00  0.3744E+00  0.2128E+02  0.2128E+02
     23.360  0.7366E+00  0.7366E+00  0.2157E+02  0.2157E+02
     23.754  0.1516E+00  0.1516E+00  0.2163E+02  0.2163E+02
     24.148  0.4769E+00  0.4769E+00  0.2182E+02  0.2182E+02
     24.542  0.4128E+00  0.4128E+00  0.2199E+02  0.2199E+02
     24.936  0.2147E+00  0.2147E+00  0.2208E+02  0.2208E+02
     25.330  0.5693E+00  0.5693E+00  0.2230E+02  0.2230E+02
     25.724  0.4897E+00  0.4897E+00  0.2249E+02  0.2249E+02
     26.118  0.3513E+00  0.3513E+00  0.2265E+02  0.2265E+02
     26.513  0.4905E+00  0.4905E+00  0.2284E+02  0.2284E+02
     26.907  0.2578E+00  0.2578E+00  0.2295E+02  0.2295E+02
     27.301  0.3434E+00  0.3434E+00  0.2308E+02  0.2308E+02
     27.695  0.5579E+00  0.5579E+00  0.2331E+02  0.2331E+02
     28.089  0.6814E+00  0.6814E+00  0.2358E+02  0.2358E+02
     28.483  0.8025E+00  0.8025E+00  0.2390E+02  0.2390E+02
     28.877  0.1951E+00  0.1951E+00  0.2399E+02  0.2399E+02
     29.271  0.5391E+00  0.5391E+00  0.2421E+02  0.2421E+02
     29.665  0.5178E+00  0.5178E+00  0.2441E+02  0.2441E+02
     30.059  0.2606E+00  0.2606E+00  0.2453E+02  0.2453E+02
     30.453  0.6136E+00  0.6136E+00  0.2477E+02  0.2477E+02
     30.847  0.7488E+00  0.7488E+00  0.2507E+02  0.2507E+02
     31.241  0.7074E+00  0.7074E+00  0.2535E+02  0.2535E+02
     31.636  0.4085E+00  0.4085E+00  0.2551E+02  0.2551E+02
     32.030  0.4498E+00  0.4498E+00  0.2571E+02  0.2571E+02
     32.424  0.3729E+00  0.3729E+00  0.2586E+02  0.2586E+02
     32.818  0.2953E+00  0.2953E+00  0.2598E+02  0.2598E+02
     33.212  0.6007E+00  0.6007E+00  0.2621E+02  0.2621E+02
     33.606  0.3501E+00  0.3501E+00  0.2636E+02  0.2636E+02
     34.000  0.1450E+00  0.1450E+00  0.2642E+02  0.2642E+02
     34.394  0.1176E+00  0.1176E+00  0.2647E+02  0.2647E+02
     34.788  0.5576E+00  0.5576E+00  0.2669E+02  0.2669E+02
     35.182  0.8752E+00  0.8752E+00  0.2704E+02  0.2704E+02
     35.576  0.1047E+00  0.1047E+00  0.2708E+02  0.2708E+02
     35.970  0.8325E+00  0.8325E+00  0.2741E+02  0.2741E+02
     36.364  0.2992E+00  0.2992E+00  0.2753E+02  0.2753E+02
     36.759  0.3609E+00  0.3609E+00  0.2768E+02  0.2768E+02
     37.153  0.1181E+00  0.1181E+00  0.2772E+02  0.2772E+02
     37.547  0.3297E+00  0.3297E+00  0.2785E+02  0.2785E+02
     37.941  0.6277E+00  0.6277E+00  0.2811E+02  0.2811E+02
     38.335  0.9379E+00  0.9379E+00  0.2851E+02  0.2851E+02
     38.729  0.3953E+00  0.3953E+00  0.2867E+02  0.2867E+02
     39.123  0.4918E+00  0.4918E+00  0.2887E+02  0.2887E+02
     39.517  0.2031E+00  0.2031E+00  0.2895E+02  0.2895E+02
     39.911  0.4475E+00  0.4475E+00  0.2913E+02  0.2913E+02
     40.305  0.6406E+00  0.6406E+00  0.2938E+02  0.2938E+02
     40.699  0.8362E+00  0.8362E+00  0.2971E+02  0.2971E+02
     41.093  0.4206E+00  0.4206E+00  0.2989E+02  0.2989E+02
     41.487  0.1833E+00  0.1833E+00  0.2998E+02  0.2998E+02
     41.881  0.9569E+00  0.9569E+00  0.3036E+02  0.3036E+02
     42.276  0.6727E+00  0.6727E+00  0.3062E+02  0.3062E+02
     42.670  0.3812E+00  0.3812E+00  0.3077E+02  0.3077E+02
     43.064  0.5828E+00  0.5828E+00  0.3100E+02  0.3100E+02
     43.458  0.4301E+00  0.4301E+00  0.3119E+02  0.3119E+02
     43.852  0.4206E+00  0.4206E+00  0.3136E+02  0.3136E+02
     44.246  0.8205E+00  0.8205E+00  0.3168E+02  0.3168E+02
     44.640  0.5214E+00  0.5214E+00  0.3190E+02  0.3190E+02
     45.034  0.3287E+00  0.3287E+00  0.3203E+02  0.3203E+02
     45.428  0.4786E+00  0.4786E+00  0.3222E+02  0.3222E+02
     45.822  0.2857E+00  0.2857E+00  0.3234E+02  0.3234E+02
     46.216  0.8570E+00  0.8570E+00  0.3268E+02  0.3268E+02
     46.610  0.7490E+00  0.7490E+00  0.3298E+02  0.3298E+02
     47.004  0.5620E+00  0.5620E+00  0.3321E+02  0.3321E+02
     47.399  0.3869E+00  0.3869E+00  0.3336E+02  0.3336E+02
     47.793  0.8176E+00  0.8176E+00  0.3368E+02  0.3368E+02
     48.187  0.8523E+00  0.8523E+00  0.3405E+02  0.3405E+02
     48.581  0.4111E+00  0.4111E+00  0.3421E+02  0.3421E+02
     48.975  0.7381E+00  0.7381E+00  0.3450E+02  0.3450E+02
     49.369  0.5258E+00  0.5258E+00  0.3471E+02  0.3471E+02
     49.763  0.3503E+00  0.3503E+00  0.3487E+02  0.3487E+02
     50.157  0.5790E+00  0.5790E+00  0.3510E+02  0.3510E+02
     50.551  0.3081E+00  0.3081E+00  0.3525E+02  0.3525E+02
     50.945  0.3470E+00  0.3470E+00  0.3540E+02  0.3540E+02
     51.339  0.4734E+00  0.4734E+00  0.3560E+02  0.3560E+02
     51.733  0.5976E+00  0.5976E+00  0.3583E+02  0.3583E+02
     52.127  0.1243E+01  0.1243E+01  0.3632E+02  0.3632E+02
     52.521  0.6308E+00  0.6308E+00  0.3658E+02  0.3658E+02
     52.916  0.3309E+00  0.3309E+00  0.3671E+02  0.3671E+02
     53.310  0.4703E+00  0.4703E+00  0.3690E+02  0.3690E+02
     53.704  0.3178E+00  0.3178E+00  0.3703E+02  0.3703E+02
     54.098  0.8835E+00  0.8835E+00  0.3737E+02  0.3737E+02
     54.492  0.5459E+00  0.5459E+00  0.3762E+02  0.3762E+02
     54.886  0.3815E+00  0.3815E+00  0.3777E+02  0.3777E+02
     55.280  0.3993E+00  0.3993E+00  0.3794E+02  0.3794E+02
     55.674  0.4107E+00  0.4107E+00  0.3810E+02  0.3810E+02
     56.068  0.1118E+01  0.1118E+01  0.3854E+02  0.3854E+02
     56.462  0.3301E+00  0.3301E+00  0.3867E+02  0.3867E+02
     56.856  0.3856E+00  0.3856E+00  0.3882E+02  0.3882E+02
     57.250  0.1083E+01  0.1083E+01  0.3926E+02  0.3926E+02
     57.644  0.9599E+00  0.9599E+00  0.3967E+02  0.3967E+02
     58.039  0.7154E+00  0.7154E+00  0.3996E+02  0.3996E+02
     58.433  0.6403E+00  0.6403E+00  0.4021E+02  0.4021E+02
     58.827  0.7559E+00  0.7559E+00  0.4052E+02  0.4052E+02
     59.221  0.6079E+00  0.6079E+00  0.4076E+02  0.4076E+02
     59.615  0.1137E+01  0.1137E+01  0.4121E+02  0.4121E+02
     60.009  0.1110E+01  0.1110E+01  0.4166E+02  0.4166E+02
     60.403  0.8268E+00  0.8268E+00  0.4199E+02  0.4199E+02
     60.797  0.3619E+00  0.3619E+00  0.4214E+02  0.4214E+02
     61.191  0.4699E+00  0.4699E+00  0.4232E+02  0.4232E+02
     61.585  0.3490E+00  0.3490E+00  0.4246E+02  0.4246E+02
     61.979  0.8979E+00  0.8979E+00  0.4282E+02  0.4282E+02
     62.373  0.4068E+00  0.4068E+00  0.4298E+02  0.4298E+02
     62.767  0.5879E+00  0.5879E+00  0.4321E+02  0.4321E+02
     63.161  0.6229E+00  0.6229E+00  0.4346E+02  0.4346E+02
     63.556  0.2346E+00  0.2346E+00  0.4359E+02  0.4359E+02
     63.950  0.3871E+00  0.3871E+00  0.4374E+02  0.4374E+02
     64.344  0.2818E+00  0.2818E+00  0.4386E+02  0.4386E+02
     64.738  0.4495E+00  0.4495E+00  0.4406E+02  0.4406E+02
     65.132  0.7946E+00  0.7946E+00  0.4439E+02  0.4439E+02
     65.526  0.6894E+00  0.6894E+00  0.4467E+02  0.4467E+02
     65.920  0.7299E+00  0.7299E+00  0.4496E+02  0.4496E+02
     66.314  0.4901E+00  0.4901E+00  0.4516E+02  0.4516E+02
     66.708  0.9073E+00  0.9073E+00  0.4552E+02  0.4552E+02
     67.102  0.4095E+00  0.4095E+00  0.4568E+02  0.4568E+02
     67.496  0.7183E+00  0.7183E+00  0.4596E+02  0.4596E+02
     67.890  0.6101E+00  0.6101E+00  0.4620E+02  0.4620E+02
     68.284  0.5480E+00  0.5480E+00  0.4642E+02  0.4642E+02
     68.679  0.2703E+00  0.2703E+00  0.4655E+02  0.4655E+02
     69.073  0.4143E+00  0.4143E+00  0.4671E+02  0.4671E+02
     69.467  0.8321E+00  0.8321E+00  0.4704E+02  0.4704E+02
     69.861  0.6110E+00  0.6110E+00  0.4728E+02  0.4728E+02
     70.255  0.2291E+00  0.2291E+00  0.4737E+02  0.4737E+02
     70.649  0.3915E+00  0.3915E+00  0.4753E+02  0.4753E+02
     71.043  0.1487E-01  0.1487E-01  0.4756E+02  0.4756E+02
     71.437  0.7067E-01  0.7067E-01  0.4759E+02  0.4759E+02
     71.831  0.3062E+00  0.3062E+00  0.4771E+02  0.4771E+02
     72.225  0.3078E+00  0.3078E+00  0.4783E+02  0.4783E+02
     72.619  0.1518E+00  0.1518E+00  0.4789E+02  0.4789E+02
     73.013  0.2832E-01  0.2832E-01  0.4791E+02  0.4791E+02
     73.407  0.5940E-01  0.5940E-01  0.4793E+02  0.4793E+02
     73.801  0.6091E-12  0.6091E-12  0.4793E+02  0.4793E+02
     74.196  0.1190E+00  0.1190E+00  0.4798E+02  0.4798E+02
     74.590  0.5947E-01  0.5947E-01  0.4800E+02  0.4800E+02
     74.984  0.0000E+00  0.0000E+00  0.4800E+02  0.4800E+02
     75.378  0.0000E+00  0.0000E+00  0.4800E+02  0.4800E+02
     75.772  0.0000E+00  0.0000E+00  0.4800E+02  0.4800E+02
     76.166  0.0000E+00  0.0000E+00  0.4800E+02  0.4800E+02
     76.560  0.0000E+00  0.0000E+00  0.4800E+02  0.4800E+02
     76.954  0.0000E+00  0.0000E+00  0.4800E+02  0.4800E+02
     77.348  0.0000E+00  0.0000E+00  0.4800E+02  0.4800E+02
     77.742  0.0000E+00  0.0000E+00  0.4800E+02  0.4800E+02
     78.136  0.0000E+00  0.0000E+00  0.4800E+02  0.4800E+02
     78.530  0.0000E+00  0.0000E+00  0.4800E+02  0.4800E+02
     78.924  0.0000E+00  0.0000E+00  0.4800E+02  0.4800E+02
     79.319  0.0000E+00  0.0000E+00  0.4800E+02  0.4800E+02
     79.713  0.0000E+00  0.0000E+00  0.4800E+02  0.4800E+02
