    2    2    1    2
  0.1183231E+02  0.2871000E-09  0.2871000E-09  0.2871000E-09  0.5000000E-15
  1.000000000000000E-004
  CAR 
 Cr                                      
     24     35     48
 
  0.0000000E+00  0.0000000E+00  0.0000000E+00  0.1953125E-02
      1        -32.935141      -32.935141   1.000000   1.000000
      2        -32.935141      -32.935141   1.000000   1.000000
      3        -32.935141      -32.935141   1.000000   1.000000
      4        -31.627049      -31.627049   1.000000   1.000000
      5        -31.627049      -31.627049   1.000000   1.000000
      6        -31.627049      -31.627049   1.000000   1.000000
      7          2.868638        2.868638   1.000000   1.000000
      8          6.488677        6.488677   1.000000   1.000000
      9          6.488677        6.488677   1.000000   1.000000
     10          9.764715        9.764715   1.000000   1.000000
     11          9.764715        9.764715   1.000000   1.000000
     12          9.764715        9.764715   1.000000   1.000000
     13         11.862331       11.862331   0.000000   0.000000
     14         11.862331       11.862331   0.000000   0.000000
     15         13.238762       13.238762   0.000000   0.000000
     16         13.238762       13.238762   0.000000   0.000000
     17         13.238762       13.238762   0.000000   0.000000
     18         17.121920       17.121920   0.000000   0.000000
     19         18.715164       18.715164   0.000000   0.000000
     20         21.042224       21.042224   0.000000   0.000000
     21         21.042224       21.042224   0.000000   0.000000
     22         21.042224       21.042224   0.000000   0.000000
     23         27.705664       27.705664   0.000000   0.000000
     24         27.705664       27.705664   0.000000   0.000000
     25         32.743042       32.743042   0.000000   0.000000
     26         32.743042       32.743042   0.000000   0.000000
     27         32.743042       32.743042   0.000000   0.000000
     28         33.707146       33.707146   0.000000   0.000000
     29         40.028404       40.028404   0.000000   0.000000
     30         40.028404       40.028404   0.000000   0.000000
     31         44.413690       44.413690   0.000000   0.000000
     32         44.413690       44.413690   0.000000   0.000000
     33         44.413690       44.413690   0.000000   0.000000
     34         45.285052       45.285052   0.000000   0.000000
     35         45.285052       45.285052   0.000000   0.000000
     36         45.285052       45.285052   0.000000   0.000000
     37         45.712326       45.712326   0.000000   0.000000
     38         57.525089       57.525089   0.000000   0.000000
     39         57.525089       57.525089   0.000000   0.000000
     40         57.525089       57.525089   0.000000   0.000000
     41         59.495858       59.495858   0.000000   0.000000
     42         59.495858       59.495858   0.000000   0.000000
     43         59.495858       59.495858   0.000000   0.000000
     44         60.655064       60.655064   0.000000   0.000000
     45         69.973812       69.973812   0.000000   0.000000
     46         70.829027       70.829027   0.000000   0.000000
     47         70.829027       70.829027   0.000000   0.000000
     48         70.829027       70.829027   0.000000   0.000000
 
  0.1250000E+00  0.8475561E-32  0.0000000E+00  0.1171875E-01
      1        -32.948196      -32.948196   1.000000   1.000000
      2        -32.924175      -32.924175   1.000000   1.000000
      3        -32.924175      -32.924175   1.000000   1.000000
      4        -31.660989      -31.660989   1.000000   1.000000
      5        -31.635475      -31.635475   1.000000   1.000000
      6        -31.635475      -31.635475   1.000000   1.000000
      7          3.202905        3.202905   1.000000   1.000000
      8          6.658981        6.658981   1.000000   1.000000
      9          6.668592        6.668592   1.000000   1.000000
     10          9.742809        9.742809   1.000000   1.000000
     11          9.742809        9.742809   1.000000   1.000000
     12          9.869407        9.869407   1.000000   1.000000
     13         11.632826       11.632826   0.000000   0.000000
     14         11.948688       11.948688   0.000000   0.000000
     15         12.831353       12.831353   0.000000   0.000000
     16         12.831353       12.831353   0.000000   0.000000
     17         13.108951       13.108951   0.000000   0.000000
     18         17.121383       17.121383   0.000000   0.000000
     19         18.713157       18.713157   0.000000   0.000000
     20         19.572807       19.572807   0.000000   0.000000
     21         21.795841       21.795841   0.000000   0.000000
     22         21.795841       21.795841   0.000000   0.000000
     23         27.724814       27.724814   0.000000   0.000000
     24         28.520057       28.520057   0.000000   0.000000
     25         31.827868       31.827868   0.000000   0.000000
     26         32.928667       32.928667   0.000000   0.000000
     27         32.928667       32.928667   0.000000   0.000000
     28         34.677448       34.677448   0.000000   0.000000
     29         38.083226       38.083226   0.000000   0.000000
     30         41.772804       41.772804   0.000000   0.000000
     31         41.950371       41.950371   0.000000   0.000000
     32         41.950371       41.950371   0.000000   0.000000
     33         44.376983       44.376983   0.000000   0.000000
     34         45.480188       45.480188   0.000000   0.000000
     35         46.744397       46.744397   0.000000   0.000000
     36         48.104216       48.104216   0.000000   0.000000
     37         48.104216       48.104216   0.000000   0.000000
     38         54.466041       54.466041   0.000000   0.000000
     39         54.466041       54.466041   0.000000   0.000000
     40         56.782825       56.782825   0.000000   0.000000
     41         60.461606       60.461606   0.000000   0.000000
     42         60.956231       60.956231   0.000000   0.000000
     43         62.091789       62.091789   0.000000   0.000000
     44         62.091789       62.091789   0.000000   0.000000
     45         68.878199       68.878199   0.000000   0.000000
     46         71.466964       71.466964   0.000000   0.000000
     47         71.466964       71.466964   0.000000   0.000000
     48         71.644657       71.644657   0.000000   0.000000
 
  0.2500000E+00  0.1695112E-31  0.0000000E+00  0.1171875E-01
      1        -32.978698      -32.978698   1.000000   1.000000
      2        -32.896782      -32.896782   1.000000   1.000000
      3        -32.896782      -32.896782   1.000000   1.000000
      4        -31.742977      -31.742977   1.000000   1.000000
      5        -31.656298      -31.656298   1.000000   1.000000
      6        -31.656298      -31.656298   1.000000   1.000000
      7          4.142256        4.142256   1.000000   1.000000
      8          7.076023        7.076023   1.000000   1.000000
      9          7.152608        7.152608   1.000000   1.000000
     10          9.717459        9.717459   1.000000   1.000000
     11          9.717459        9.717459   1.000000   1.000000
     12         10.163908       10.163908   1.000000   1.000000
     13         10.994201       10.994201   0.000000   0.000000
     14         11.983616       11.983616   0.000000   0.000000
     15         11.983616       11.983616   0.000000   0.000000
     16         12.174009       12.174009   0.000000   0.000000
     17         12.754187       12.754187   0.000000   0.000000
     18         16.924576       16.924576   0.000000   0.000000
     19         17.134580       17.134580   0.000000   0.000000
     20         18.717856       18.717856   0.000000   0.000000
     21         23.672670       23.672670   0.000000   0.000000
     22         23.672670       23.672670   0.000000   0.000000
     23         27.801774       27.801774   0.000000   0.000000
     24         29.179952       29.179952   0.000000   0.000000
     25         30.341030       30.341030   0.000000   0.000000
     26         32.868211       32.868211   0.000000   0.000000
     27         32.868211       32.868211   0.000000   0.000000
     28         34.903628       34.903628   0.000000   0.000000
     29         37.795425       37.795425   0.000000   0.000000
     30         40.280327       40.280327   0.000000   0.000000
     31         40.280327       40.280327   0.000000   0.000000
     32         44.292314       44.292314   0.000000   0.000000
     33         44.993998       44.993998   0.000000   0.000000
     34         45.693069       45.693069   0.000000   0.000000
     35         48.670285       48.670285   0.000000   0.000000
     36         50.565742       50.565742   0.000000   0.000000
     37         50.565742       50.565742   0.000000   0.000000
     38         51.431879       51.431879   0.000000   0.000000
     39         51.431879       51.431879   0.000000   0.000000
     40         55.312232       55.312232   0.000000   0.000000
     41         59.141593       59.141593   0.000000   0.000000
     42         63.149593       63.149593   0.000000   0.000000
     43         63.760578       63.760578   0.000000   0.000000
     44         63.760578       63.760578   0.000000   0.000000
     45         68.159610       68.159610   0.000000   0.000000
     46         69.386064       69.386064   0.000000   0.000000
     47         73.119863       73.119863   0.000000   0.000000
     48         73.119863       73.119863   0.000000   0.000000
 
  0.3750000E+00  0.3158966E-31  0.0000000E+00  0.1171875E-01
      1        -33.008124      -33.008124   1.000000   1.000000
      2        -32.868424      -32.868424   1.000000   1.000000
      3        -32.868424      -32.868424   1.000000   1.000000
      4        -31.825183      -31.825183   1.000000   1.000000
      5        -31.678275      -31.678275   1.000000   1.000000
      6        -31.678275      -31.678275   1.000000   1.000000
      7          5.470352        5.470352   1.000000   1.000000
      8          7.293184        7.293184   1.000000   1.000000
      9          7.903179        7.903179   1.000000   1.000000
     10          9.760861        9.760861   1.000000   1.000000
     11          9.760861        9.760861   1.000000   1.000000
     12         10.095174       10.095174   1.000000   1.000000
     13         10.571172       10.571172   0.993693   0.993693
     14         11.209068       11.209068   0.000000   0.000000
     15         11.209068       11.209068   0.000000   0.000000
     16         12.286783       12.286783   0.000000   0.000000
     17         12.472598       12.472598   0.000000   0.000000
     18         14.650638       14.650638   0.000000   0.000000
     19         17.123243       17.123243   0.000000   0.000000
     20         18.716853       18.716853   0.000000   0.000000
     21         26.133775       26.133775   0.000000   0.000000
     22         26.133775       26.133775   0.000000   0.000000
     23         27.983757       27.983757   0.000000   0.000000
     24         29.196173       29.196173   0.000000   0.000000
     25         29.502388       29.502388   0.000000   0.000000
     26         31.352128       31.352128   0.000000   0.000000
     27         31.352128       31.352128   0.000000   0.000000
     28         32.157064       32.157064   0.000000   0.000000
     29         40.960610       40.960610   0.000000   0.000000
     30         40.960610       40.960610   0.000000   0.000000
     31         42.319185       42.319185   0.000000   0.000000
     32         44.226016       44.226016   0.000000   0.000000
     33         44.568473       44.568473   0.000000   0.000000
     34         46.806432       46.806432   0.000000   0.000000
     35         46.806432       46.806432   0.000000   0.000000
     36         49.750617       49.750617   0.000000   0.000000
     37         50.715661       50.715661   0.000000   0.000000
     38         53.879407       53.879407   0.000000   0.000000
     39         54.571529       54.571529   0.000000   0.000000
     40         54.866279       54.866279   0.000000   0.000000
     41         54.866279       54.866279   0.000000   0.000000
     42         61.905255       61.905255   0.000000   0.000000
     43         61.905255       61.905255   0.000000   0.000000
     44         62.878869       62.878869   0.000000   0.000000
     45         67.122125       67.122125   0.000000   0.000000
     46         70.632078       70.632078   0.000000   0.000000
     47         74.338864       74.338864   0.000000   0.000000
     48         74.338864       74.338864   0.000000   0.000000
 
  0.5000000E+00  0.3390224E-31  0.0000000E+00  0.5859375E-02
      1        -33.019816      -33.019816   1.000000   1.000000
      2        -32.856135      -32.856135   1.000000   1.000000
      3        -32.856135      -32.856135   1.000000   1.000000
      4        -31.859181      -31.859181   1.000000   1.000000
      5        -31.687435      -31.687435   1.000000   1.000000
      6        -31.687435      -31.687435   1.000000   1.000000
      7          6.598084        6.598084   1.000000   1.000000
      8          6.884062        6.884062   1.000000   1.000000
      9          8.551040        8.551040   1.000000   1.000000
     10          9.385647        9.385647   1.000000   1.000000
     11          9.826826        9.826826   1.000000   1.000000
     12          9.826826        9.826826   1.000000   1.000000
     13         10.827400       10.827400   0.000001   0.000001
     14         10.868890       10.868890   0.000000   0.000000
     15         10.868890       10.868890   0.000000   0.000000
     16         12.006064       12.006064   0.000000   0.000000
     17         12.744654       12.744654   0.000000   0.000000
     18         13.581917       13.581917   0.000000   0.000000
     19         17.123159       17.123159   0.000000   0.000000
     20         18.716766       18.716766   0.000000   0.000000
     21         28.227739       28.227739   0.000000   0.000000
     22         28.626355       28.626355   0.000000   0.000000
     23         28.807839       28.807839   0.000000   0.000000
     24         28.807839       28.807839   0.000000   0.000000
     25         28.847221       28.847221   0.000000   0.000000
     26         28.847221       28.847221   0.000000   0.000000
     27         30.296381       30.296381   0.000000   0.000000
     28         30.393707       30.393707   0.000000   0.000000
     29         43.263235       43.263235   0.000000   0.000000
     30         43.263235       43.263235   0.000000   0.000000
     31         43.644933       43.644933   0.000000   0.000000
     32         43.644933       43.644933   0.000000   0.000000
     33         44.226213       44.226213   0.000000   0.000000
     34         44.390852       44.390852   0.000000   0.000000
     35         47.242584       47.242584   0.000000   0.000000
     36         47.290329       47.290329   0.000000   0.000000
     37         52.696378       52.696378   0.000000   0.000000
     38         52.998193       52.998193   0.000000   0.000000
     39         56.501166       56.501166   0.000000   0.000000
     40         56.524442       56.524442   0.000000   0.000000
     41         58.260838       58.260838   0.000000   0.000000
     42         58.260838       58.260838   0.000000   0.000000
     43         58.630425       58.630425   0.000000   0.000000
     44         58.630425       58.630425   0.000000   0.000000
     45         72.025391       72.025391   0.000000   0.000000
     46         72.032113       72.032113   0.000000   0.000000
     47         72.898162       72.898162   0.000000   0.000000
     48         72.968029       72.968029   0.000000   0.000000
 
  0.1250000E+00  0.1250000E+00  0.0000000E+00  0.2343750E-01
      1        -32.963827      -32.963827   1.000000   1.000000
      2        -32.917772      -32.917772   1.000000   1.000000
      3        -32.914292      -32.914292   1.000000   1.000000
      4        -31.691676      -31.691676   1.000000   1.000000
      5        -31.642419      -31.642419   1.000000   1.000000
      6        -31.638583      -31.638583   1.000000   1.000000
      7          3.524185        3.524185   1.000000   1.000000
      8          6.807634        6.807634   1.000000   1.000000
      9          6.858110        6.858110   1.000000   1.000000
     10          9.529030        9.529030   1.000000   1.000000
     11          9.682448        9.682448   1.000000   1.000000
     12         10.143756       10.143756   1.000000   1.000000
     13         11.634324       11.634324   0.000000   0.000000
     14         11.882767       11.882767   0.000000   0.000000
     15         12.261077       12.261077   0.000000   0.000000
     16         12.443839       12.443839   0.000000   0.000000
     17         13.282950       13.282950   0.000000   0.000000
     18         17.121415       17.121415   0.000000   0.000000
     19         18.713712       18.713712   0.000000   0.000000
     20         19.771862       19.771862   0.000000   0.000000
     21         20.695023       20.695023   0.000000   0.000000
     22         22.432794       22.432794   0.000000   0.000000
     23         28.094092       28.094092   0.000000   0.000000
     24         29.315405       29.315405   0.000000   0.000000
     25         31.163919       31.163919   0.000000   0.000000
     26         32.369059       32.369059   0.000000   0.000000
     27         33.165033       33.165033   0.000000   0.000000
     28         35.462356       35.462356   0.000000   0.000000
     29         38.773144       38.773144   0.000000   0.000000
     30         40.317917       40.317917   0.000000   0.000000
     31         40.400489       40.400489   0.000000   0.000000
     32         42.003638       42.003638   0.000000   0.000000
     33         44.996803       44.996803   0.000000   0.000000
     34         45.219453       45.219453   0.000000   0.000000
     35         48.638159       48.638159   0.000000   0.000000
     36         48.775389       48.775389   0.000000   0.000000
     37         49.181781       49.181781   0.000000   0.000000
     38         51.940255       51.940255   0.000000   0.000000
     39         54.235890       54.235890   0.000000   0.000000
     40         58.631947       58.631947   0.000000   0.000000
     41         58.921414       58.921414   0.000000   0.000000
     42         61.623357       61.623357   0.000000   0.000000
     43         61.767610       61.767610   0.000000   0.000000
     44         64.654126       64.654126   0.000000   0.000000
     45         68.113914       68.113914   0.000000   0.000000
     46         70.432645       70.432645   0.000000   0.000000
     47         72.052040       72.052040   0.000000   0.000000
     48         72.422026       72.422026   0.000000   0.000000
 
  0.2500000E+00  0.1250000E+00  0.0000000E+00  0.4687500E-01
      1        -32.996056      -32.996056   1.000000   1.000000
      2        -32.908489      -32.908489   1.000000   1.000000
      3        -32.889965      -32.889965   1.000000   1.000000
      4        -31.753828      -31.753828   1.000000   1.000000
      5        -31.659640      -31.659640   1.000000   1.000000
      6        -31.656547      -31.656547   1.000000   1.000000
      7          4.418788        4.418788   1.000000   1.000000
      8          7.171959        7.171959   1.000000   1.000000
      9          7.342554        7.342554   1.000000   1.000000
     10          9.369346        9.369346   1.000000   1.000000
     11          9.559750        9.559750   1.000000   1.000000
     12         10.411103       10.411103   1.000000   1.000000
     13         11.220871       11.220871   0.000000   0.000000
     14         11.562621       11.562621   0.000000   0.000000
     15         11.701741       11.701741   0.000000   0.000000
     16         12.087320       12.087320   0.000000   0.000000
     17         13.136020       13.136020   0.000000   0.000000
     18         17.114252       17.114252   0.000000   0.000000
     19         17.346863       17.346863   0.000000   0.000000
     20         18.716968       18.716968   0.000000   0.000000
     21         21.963998       21.963998   0.000000   0.000000
     22         24.114636       24.114636   0.000000   0.000000
     23         28.223726       28.223726   0.000000   0.000000
     24         29.402535       29.402535   0.000000   0.000000
     25         30.530430       30.530430   0.000000   0.000000
     26         31.578673       31.578673   0.000000   0.000000
     27         33.232766       33.232766   0.000000   0.000000
     28         37.220491       37.220491   0.000000   0.000000
     29         38.195155       38.195155   0.000000   0.000000
     30         38.596975       38.596975   0.000000   0.000000
     31         39.566147       39.566147   0.000000   0.000000
     32         43.897282       43.897282   0.000000   0.000000
     33         44.787732       44.787732   0.000000   0.000000
     34         45.781760       45.781760   0.000000   0.000000
     35         48.717245       48.717245   0.000000   0.000000
     36         49.938090       49.938090   0.000000   0.000000
     37         51.819470       51.819470   0.000000   0.000000
     38         52.045033       52.045033   0.000000   0.000000
     39         52.054503       52.054503   0.000000   0.000000
     40         57.732672       57.732672   0.000000   0.000000
     41         60.088892       60.088892   0.000000   0.000000
     42         60.472444       60.472444   0.000000   0.000000
     43         62.848231       62.848231   0.000000   0.000000
     44         66.506464       66.506464   0.000000   0.000000
     45         67.181374       67.181374   0.000000   0.000000
     46         68.717948       68.717948   0.000000   0.000000
     47         70.173243       70.173243   0.000000   0.000000
     48         71.700797       71.700797   0.000000   0.000000
 
  0.3750000E+00  0.1250000E+00  0.0000000E+00  0.4687500E-01
      1        -33.025278      -33.025278   1.000000   1.000000
      2        -32.903394      -32.903394   1.000000   1.000000
      3        -32.864777      -32.864777   1.000000   1.000000
      4        -31.809074      -31.809074   1.000000   1.000000
      5        -31.678974      -31.678974   1.000000   1.000000
      6        -31.677595      -31.677595   1.000000   1.000000
      7          5.656285        5.656285   1.000000   1.000000
      8          7.353378        7.353378   1.000000   1.000000
      9          7.997157        7.997157   1.000000   1.000000
     10          9.373099        9.373099   1.000000   1.000000
     11          9.389654        9.389654   1.000000   1.000000
     12         10.173949       10.173949   1.000000   1.000000
     13         10.671081       10.671081   0.370187   0.370187
     14         11.190472       11.190472   0.000000   0.000000
     15         11.550745       11.550745   0.000000   0.000000
     16         12.426670       12.426670   0.000000   0.000000
     17         12.720018       12.720018   0.000000   0.000000
     18         14.903342       14.903342   0.000000   0.000000
     19         17.123141       17.123141   0.000000   0.000000
     20         18.716391       18.716391   0.000000   0.000000
     21         23.844838       23.844838   0.000000   0.000000
     22         26.438379       26.438379   0.000000   0.000000
     23         27.567266       27.567266   0.000000   0.000000
     24         28.463798       28.463798   0.000000   0.000000
     25         30.139794       30.139794   0.000000   0.000000
     26         31.502434       31.502434   0.000000   0.000000
     27         31.653483       31.653483   0.000000   0.000000
     28         35.015322       35.015322   0.000000   0.000000
     29         39.029625       39.029625   0.000000   0.000000
     30         40.314021       40.314021   0.000000   0.000000
     31         42.208194       42.208194   0.000000   0.000000
     32         42.495442       42.495442   0.000000   0.000000
     33         45.915102       45.915102   0.000000   0.000000
     34         46.307147       46.307147   0.000000   0.000000
     35         48.757942       48.757942   0.000000   0.000000
     36         49.318219       49.318219   0.000000   0.000000
     37         51.261171       51.261171   0.000000   0.000000
     38         54.705138       54.705138   0.000000   0.000000
     39         55.071413       55.071413   0.000000   0.000000
     40         55.794008       55.794008   0.000000   0.000000
     41         57.129829       57.129829   0.000000   0.000000
     42         60.011761       60.011761   0.000000   0.000000
     43         61.107170       61.107170   0.000000   0.000000
     44         64.961521       64.961521   0.000000   0.000000
     45         66.748899       66.748899   0.000000   0.000000
     46         69.248197       69.248197   0.000000   0.000000
     47         69.396464       69.396464   0.000000   0.000000
     48         74.042015       74.042015   0.000000   0.000000
 
  0.5000000E+00  0.1250000E+00  0.0000000E+00  0.2343750E-01
      1        -33.036640      -33.036640   1.000000   1.000000
      2        -32.902494      -32.902494   1.000000   1.000000
      3        -32.854071      -32.854071   1.000000   1.000000
      4        -31.830176      -31.830176   1.000000   1.000000
      5        -31.689161      -31.689161   1.000000   1.000000
      6        -31.685236      -31.685236   1.000000   1.000000
      7          6.706962        6.706962   1.000000   1.000000
      8          6.913081        6.913081   1.000000   1.000000
      9          8.545999        8.545999   1.000000   1.000000
     10          9.075156        9.075156   1.000000   1.000000
     11          9.491455        9.491455   1.000000   1.000000
     12          9.851636        9.851636   1.000000   1.000000
     13         10.481349       10.481349   1.000000   1.000000
     14         11.054583       11.054583   0.000000   0.000000
     15         11.870497       11.870497   0.000000   0.000000
     16         12.347521       12.347521   0.000000   0.000000
     17         12.821326       12.821326   0.000000   0.000000
     18         13.601600       13.601600   0.000000   0.000000
     19         17.122937       17.122937   0.000000   0.000000
     20         18.716394       18.716394   0.000000   0.000000
     21         25.684553       25.684553   0.000000   0.000000
     22         25.812539       25.812539   0.000000   0.000000
     23         28.926969       28.926969   0.000000   0.000000
     24         29.041070       29.041070   0.000000   0.000000
     25         29.076060       29.076060   0.000000   0.000000
     26         29.112927       29.112927   0.000000   0.000000
     27         32.936022       32.936022   0.000000   0.000000
     28         32.970042       32.970042   0.000000   0.000000
     29         40.624733       40.624733   0.000000   0.000000
     30         40.888315       40.888315   0.000000   0.000000
     31         42.155699       42.155699   0.000000   0.000000
     32         42.573405       42.573405   0.000000   0.000000
     33         47.216597       47.216597   0.000000   0.000000
     34         47.497340       47.497340   0.000000   0.000000
     35         47.600422       47.600422   0.000000   0.000000
     36         47.604302       47.604302   0.000000   0.000000
     37         54.054783       54.054783   0.000000   0.000000
     38         54.309845       54.309845   0.000000   0.000000
     39         55.118306       55.118306   0.000000   0.000000
     40         55.298706       55.298706   0.000000   0.000000
     41         58.284362       58.284362   0.000000   0.000000
     42         58.658898       58.658898   0.000000   0.000000
     43         60.198748       60.198748   0.000000   0.000000
     44         60.369430       60.369430   0.000000   0.000000
     45         70.319345       70.319345   0.000000   0.000000
     46         70.387570       70.387570   0.000000   0.000000
     47         70.426588       70.426588   0.000000   0.000000
     48         70.427462       70.427462   0.000000   0.000000
 
  0.2500000E+00  0.2500000E+00  0.0000000E+00  0.2343750E-01
      1        -33.034028      -33.034028   1.000000   1.000000
      2        -32.942165      -32.942165   1.000000   1.000000
      3        -32.873136      -32.873136   1.000000   1.000000
      4        -31.769831      -31.769831   1.000000   1.000000
      5        -31.667684      -31.667684   1.000000   1.000000
      6        -31.664125      -31.664125   1.000000   1.000000
      7          5.146946        5.146946   1.000000   1.000000
      8          7.254139        7.254139   1.000000   1.000000
      9          7.936353        7.936353   1.000000   1.000000
     10          8.991794        8.991794   1.000000   1.000000
     11          9.397582        9.397582   1.000000   1.000000
     12         10.051843       10.051843   1.000000   1.000000
     13         11.225813       11.225813   0.000000   0.000000
     14         11.563047       11.563047   0.000000   0.000000
     15         11.692526       11.692526   0.000000   0.000000
     16         11.967760       11.967760   0.000000   0.000000
     17         13.398074       13.398074   0.000000   0.000000
     18         17.121117       17.121117   0.000000   0.000000
     19         17.271263       17.271263   0.000000   0.000000
     20         18.711661       18.711661   0.000000   0.000000
     21         20.390461       20.390461   0.000000   0.000000
     22         25.391344       25.391344   0.000000   0.000000
     23         27.193064       27.193064   0.000000   0.000000