       N       E                     dE             d eps       ncg     rms          rms(c)
DAV:   1    -0.190499905249E+02   -0.19050E+02   -0.23528E-05  3456   0.124E-02    0.180E-02
DAV:   2    -0.190499941348E+02   -0.36099E-05   -0.21957E-05  3360   0.979E-03
   1 F= -.19049994E+02 E0= -.19049067E+02  d E =-.185410E-02  mag=     0.0000
       N       E                     dE             ncg
DAV:   1    -0.990282319593E+04   -0.25504E+05     6864
DAV:   2    -0.102504690999E+05   -0.34765E+03     7920
DAV:   3    -0.102508950240E+05   -0.42592E+00     9840
DAV:   4    -0.102508950629E+05   -0.38945E-04     9600
       N       E                     dE             ncg
DAV:   1    -0.988315081768E+04   -0.46175E+05     8448
DAV:   2    -0.100849248654E+05   -0.20177E+03     7104
DAV:   3    -0.100852099658E+05   -0.28510E+00    11232
DAV:   4    -0.100852099939E+05   -0.28116E-04     7728
       N       E                     dE             ncg
DAV:   1    -0.975327638742E+04   -0.35174E+05     7152
DAV:   2    -0.100557569926E+05   -0.30248E+03     7920
DAV:   3    -0.100561331006E+05   -0.37611E+00    10272
DAV:   4    -0.100561331222E+05   -0.21538E-04     9072
       N       E                     dE             ncg
DAV:   1    -0.983440617500E+04   -0.20906E+05     6720
DAV:   2    -0.102035873012E+05   -0.36918E+03     7776
DAV:   3    -0.102040807802E+05   -0.49348E+00    11088
DAV:   4    -0.102040807842E+05   -0.40010E-05     8688
       N       E                     dE             ncg
DAV:   1     0.536598441628E+04   -0.20844E+04     1344
DAV:   2     0.529267946306E+04   -0.73305E+02     1728
DAV:   3     0.529261713541E+04   -0.62328E-01     1680
DAV:   4     0.529261713398E+04   -0.14220E-05     1824
