Ca                                      
   1.00000000000000     
     5.525070    0.000000    0.000000
     0.000000    5.525070    0.000000
     0.000000    0.000000    5.525070
   Ca
     4
Direct
  0.000000  0.000000  0.000000
  0.000000  0.500000  0.500000
  0.500000  0.000000  0.500000
  0.500000  0.500000  0.000000
 
   56   56   56
  1212.0      1184.2      1103.6      978.33      820.84      646.97      474.58      321.01      199.24      114.55    
  63.626      36.947      23.235      16.064      12.505      10.775      9.9145      9.4578      9.1968      9.0387    
  8.9370      8.8656      8.8088      8.7577      8.7104      8.6699      8.6402      8.6230      8.6175      8.6230    
  8.6402      8.6699      8.7104      8.7577      8.8088      8.8656      8.9370      9.0387      9.1968      9.4578    
  9.9145      10.775      12.505      16.064      23.235      36.947      63.626      114.55      199.24      321.01    
  474.58      646.97      820.84      978.33      1103.6      1184.2      1184.2      1156.8      1077.6      954.42    
  799.76      629.31      460.73      311.03      192.77      110.84      61.774      36.093      22.811      15.861    
  12.409      10.728      9.8893      9.4433      9.1882      9.0338      8.9348      8.8656      8.8104      8.7605    
  8.7141      8.6743      8.6453      8.6284      8.6230      8.6284      8.6453      8.6743      8.7141      8.7605    
  8.8104      8.8656      8.9348      9.0338      9.1882      9.4433      9.8893      10.728      12.409      15.861    
  22.811      36.093      61.774      110.84      192.77      311.03      460.73      629.31      799.76      954.42    
  1077.6      1156.8      1103.6      1077.6      1002.2      885.30      738.97      578.59      421.20      282.75    
  174.56      100.49      56.629      33.699      21.617      15.288      12.137      10.593      9.8178      9.4025    
  9.1645      9.0210      8.9300      8.8668      8.8160      8.7692      8.7254      8.6881      8.6611      8.6453    
  8.6402      8.6453      8.6611      8.6881      8.7254      8.7692      8.8160      8.8668      8.9300      9.0210    
  9.1645      9.4025      9.8178      10.593      12.137      15.288      21.617      33.699      56.629      100.49    
  174.56      282.75      421.20      578.59      738.97      885.30      1002.2      1077.6      978.33      954.42    
  885.30      778.46      645.60      501.38      361.68      240.72      147.89      85.567      49.278      30.191    
  19.856      14.440      11.731      10.392      9.7108      9.3426      9.1314      9.0053      8.9264      8.8721    
  8.8276      8.7854      8.7455      8.7120      8.6881      8.6743      8.6699      8.6743      8.6881      8.7120    
  8.7455      8.7854      8.8276      8.8721      8.9264      9.0053      9.1314      9.3426      9.7108      10.392    
  11.731      14.440      19.856      30.191      49.278      85.567      147.89      240.72      361.68      501.38    
  645.60      778.46      885.30      954.42      820.84      799.76      738.97      645.60      530.62      407.61    
  290.63      191.55      117.37      68.846      41.094      26.111      17.806      13.447      11.250      10.151    
  9.5827      9.2727      9.0956      8.9915      8.9279      8.8842      8.8471      8.8101      8.7746      8.7455    
  8.7254      8.7141      8.7104      8.7141      8.7254      8.7455      8.7746      8.8101      8.8471      8.8842    
  8.9279      8.9915      9.0956      9.2727      9.5827      10.151      11.250      13.447      17.806      26.111    
  41.094      68.846      117.37      191.55      290.63      407.61      530.62      645.60      738.97      799.76    
  646.97      629.31      578.59      501.38      407.61      309.17      217.72      142.39      87.710      52.980    
  33.242      22.016      15.742      12.437      10.754      9.8977      9.4480      9.2008      9.0613      8.9817    
  8.9347      8.9023      8.8725      8.8408      8.8101      8.7854      8.7692      8.7605      8.7577      8.7605    
  8.7692      8.7854      8.8101      8.8408      8.8725      8.9023      8.9347      8.9817      9.0613      9.2008    
  9.4480      9.8977      10.754      12.437      15.742      22.016      33.242      52.980      87.710      142.39    
  217.72      309.17      407.61      501.38      578.59      629.31      474.58      460.73      421.20      361.68    
  290.63      217.72      151.88      99.394      62.588      39.750      26.322      18.342      13.882      11.514    
  10.291      9.6568      9.3180      9.1319      9.0295      8.9742      8.9433      8.9213      8.8986      8.8725    
  8.8471      8.8276      8.8160      8.8104      8.8088      8.8104      8.8160      8.8276      8.8471      8.8725    
  8.8986      8.9213      8.9433      8.9742      9.0295      9.1319      9.3180      9.6568      10.291      11.514    
  13.882      18.342      26.322      39.750      62.588      99.394      151.88      217.72      290.63      361.68    
  421.20      460.73      321.01      311.03      282.75      240.72      191.55      142.39      99.394      66.304    
  43.765      29.603      20.678      15.344      12.348      10.739      9.8918      9.4429      9.1998      9.0678    
  8.9989      8.9654      8.9489      8.9367      8.9213      8.9023      8.8842      8.8721      8.8668      8.8656    
  8.8656      8.8656      8.8668      8.8721      8.8842      8.9023      8.9213      8.9367      8.9489      8.9654    
  8.9989      9.0678      9.1998      9.4429      9.8918      10.739      12.348      15.344      20.678      29.603    
  43.765      66.304      99.394      142.39      191.55      240.72      282.75      311.03      199.24      192.77    
  174.56      147.89      117.37      87.710      62.588      43.765      30.835      22.076      16.455      13.087    
  11.176      10.131      9.5680      9.2625      9.0962      9.0091      8.9686      8.9541      8.9509      8.9489    
  8.9433      8.9347      8.9279      8.9264      8.9300      8.9348      8.9370      8.9348      8.9300      8.9264    
  8.9279      8.9347      8.9433      8.9489      8.9509      8.9541      8.9686      9.0091      9.0962      9.2625    
  9.5680      10.131      11.176      13.087      16.455      22.076      30.835      43.765      62.588      87.710    
  117.37      147.89      174.56      192.77      114.55      110.84      100.49      85.567      68.846      52.980    
  39.750      29.603      22.076      16.873      13.527      11.503      10.335      9.6803      9.3170      9.1160    
  9.0083      8.9570      8.9404      8.9433      8.9541      8.9654      8.9742      8.9817      8.9915      9.0053    
  9.0210      9.0338      9.0387      9.0338      9.0210      9.0053      8.9915      8.9817      8.9742      8.9654    
  8.9541      8.9433      8.9404      8.9570      9.0083      9.1160      9.3170      9.6803      10.335      11.503    
  13.527      16.873      22.076      29.603      39.750      52.980      68.846      85.567      100.49      110.84    
  63.626      61.774      56.629      49.278      41.094      33.242      26.322      20.678      16.455      13.527    
  11.626      10.455      9.7608      9.3587      9.1288      9.0011      8.9371      8.9148      8.9196      8.9404    
  8.9686      8.9989      9.0295      9.0613      9.0956      9.1314      9.1645      9.1882      9.1968      9.1882    
  9.1645      9.1314      9.0956      9.0613      9.0295      8.9989      8.9686      8.9404      8.9196      8.9148    
  8.9371      9.0011      9.1288      9.3587      9.7608      10.455      11.626      13.527      16.455      20.678    
  26.322      33.242      41.094      49.278      56.629      61.774      36.947      36.093      33.699      30.191    
  26.111      22.016      18.342      15.344      13.087      11.503      10.455      9.7904      9.3820      9.1360    
  8.9925      8.9158      8.8855      8.8884      8.9148      8.9570      9.0091      9.0678      9.1319      9.2008    
  9.2727      9.3426      9.4025      9.4433      9.4578      9.4433      9.4025      9.3426      9.2727      9.2008    
  9.1319      9.0678      9.0091      8.9570      8.9148      8.8884      8.8855      8.9158      8.9925      9.1360    
  9.3820      9.7904      10.455      11.503      13.087      15.344      18.342      22.016      26.111      30.191    
  33.699      36.093      23.235      22.811      21.617      19.856      17.806      15.742      13.882      12.348    
  11.176      10.335      9.7608      9.3820      9.1384      8.9867      8.8994      8.8599      8.8577      8.8855    
  8.9371      9.0083      9.0962      9.1998      9.3180      9.4480      9.5827      9.7108      9.8178      9.8893    
  9.9145      9.8893      9.8178      9.7108      9.5827      9.4480      9.3180      9.1998      9.0962      9.0083    
  8.9371      8.8855      8.8577      8.8599      8.8994      8.9867      9.1384      9.3820      9.7608      10.335    
  11.176      12.348      13.882      15.742      17.806      19.856      21.617      22.811      16.064      15.861    
  15.288      14.440      13.447      12.437      11.514      10.739      10.131      9.6803      9.3587      9.1360    
  8.9867      8.8932      8.8448      8.8351      8.8599      8.9158      9.0011      9.1160      9.2625      9.4429    
  9.6568      9.8977      10.151      10.392      10.593      10.728      10.775      10.728      10.593      10.392    
  10.151      9.8977      9.6568      9.4429      9.2625      9.1160      9.0011      8.9158      8.8599      8.8351    
  8.8448      8.8932      8.9867      9.1360      9.3587      9.6803      10.131      10.739      11.514      12.437    
  13.447      14.440      15.288      15.861      12.505      12.409      12.137      11.731      11.250      10.754    
  10.291      9.8918      9.5680      9.3170      9.1288      8.9925      8.8994      8.8448      8.8268      8.8448    
  8.8994      8.9925      9.1288      9.3170      9.5680      9.8918      10.291      10.754      11.250      11.731    
  12.137      12.409      12.505      12.409      12.137      11.731      11.250      10.754      10.291      9.8918    
  9.5680      9.3170      9.1288      8.9925      8.8994      8.8448      8.8268      8.8448      8.8994      8.9925    
  9.1288      9.3170      9.5680      9.8918      10.291      10.754      11.250      11.731      12.137      12.409    
  10.775      10.728      10.593      10.392      10.151      9.8977      9.6568      9.4429      9.2625      9.1160    
  9.0011      8.9158      8.8599      8.8351      8.8448      8.8932      8.9867      9.1360      9.3587      9.6803    
  10.131      10.739      11.514      12.437      13.447      14.440      15.288      15.861      16.064      15.861    
  15.288      14.440      13.447      12.437      11.514      10.739      10.131      9.6803      9.3587      9.1360    
  8.9867      8.8932      8.8448      8.8351      8.8599      8.9158      9.0011      9.1160      9.2625      9.4429    
  9.6568      9.8977      10.151      10.392      10.593      10.728      9.9145      9.8893      9.8178      9.7108    
  9.5827      9.4480      9.3180      9.1998      9.0962      9.0083      8.9371      8.8855      8.8577      8.8599    
  8.8994      8.9867      9.1384      9.3820      9.7608      10.335      11.176      12.348      13.882      15.742    
  17.806      19.856      21.617      22.811      23.235      22.811      21.617      19.856      17.806      15.742    
  13.882      12.348      11.176      10.335      9.7608      9.3820      9.1384      8.9867      8.8994      8.8599    
  8.8577      8.8855      8.9371      9.0083      9.0962      9.1998      9.3180      9.4480      9.5827      9.7108    
  9.8178      9.8893      9.4578      9.4433      9.4025      9.3426      9.2727      9.2008      9.1319      9.0678    
  9.0091      8.9570      8.9148      8.8884      8.8855      8.9158      8.9925      9.1360      9.3820      9.7904    
  10.455      11.503      13.087      15.344      18.342      22.016      26.111      30.191      33.699      36.093    
  36.947      36.093      33.699      30.191      26.111      22.016      18.342      15.344      13.087      11.503    
  10.455      9.7904      9.3820      9.1360      8.9925      8.9158      8.8855      8.8884      8.9148      8.9570    
  9.0091      9.0678      9.1319      9.2008      9.2727      9.3426      9.4025      9.4433      9.1968      9.1882    
  9.1645      9.1314      9.0956      9.0613      9.0295      8.9989      8.9686      8.9404      8.9196      8.9148    
  8.9371      9.0011      9.1288      9.3587      9.7608      10.455      11.626      13.527      16.455      20.678    
  26.322      33.242      41.094      49.278      56.629      61.774      63.626      61.774      56.629      49.278    
  41.094      33.242      26.322      20.678      16.455      13.527      11.626      10.455      9.7608      9.3587    
  9.1288      9.0011      8.9371      8.9148      8.9196      8.9404      8.9686      8.9989      9.0295      9.0613    
  9.0956      9.1314      9.1645      9.1882      9.0387      9.0338      9.0210      9.0053      8.9915      8.9817    
  8.9742      8.9654      8.9541      8.9433      8.9404      8.9570      9.0083      9.1160      9.3170      9.6803    
  10.335      11.503      13.527      16.873      22.076      29.603      39.750      52.980      68.846      85.567    
  100.49      110.84      114.55      110.84      100.49      85.567      68.846      52.980      39.750      29.603    
  22.076      16.873      13.527      11.503      10.335      9.6803      9.3170      9.1160      9.0083      8.9570    
  8.9404      8.9433      8.9541      8.9654      8.9742      8.9817      8.9915      9.0053      9.0210      9.0338    
  8.9370      8.9348      8.9300      8.9264      8.9279      8.9347      8.9433      8.9489      8.9509      8.9541    
  8.9686      9.0091      9.0962      9.2625      9.5680      10.131      11.176      13.087      16.455      22.076    
  30.835      43.765      62.588      87.710      117.37      147.89      174.56      192.77      199.24      192.77    
  174.56      147.89      117.37      87.710      62.588      43.765      30.835      22.076      16.455      13.087    
  11.176      10.131      9.5680      9.2625      9.0962      9.0091      8.9686      8.9541      8.9509      8.9489    
  8.9433      8.9347      8.9279      8.9264      8.9300      8.9348      8.8656      8.8656      8.8668      8.8721    
  8.8842      8.9023      8.9213      8.9367      8.9489      8.9654      8.9989      9.0678      9.1998      9.4429    
  9.8918      10.739      12.348      15.344      20.678      29.603      43.765      66.304      99.394      142.39    
  191.55      240.72      282.75      311.03      321.01      311.03      282.75      240.72      191.55      142.39    
  99.394      66.304      43.765      29.603      20.678      15.344      12.348      10.739      9.8918      9.4429    
  9.1998      9.0678      8.9989      8.9654      8.9489      8.9367      8.9213      8.9023      8.8842      8.8721    
  8.8668      8.8656      8.8088      8.8104      8.8160      8.8276      8.8471      8.8725      8.8986      8.9213    
  8.9433      8.9742      9.0295      9.1319      9.3180      9.6568      10.291      11.514      13.882      18.342    
  26.322      39.750      62.588      99.394      151.88      217.72      290.63      361.68      421.20      460.73    
  474.58      460.73      421.20      361.68      290.63      217.72      151.88      99.394      62.588      39.750    
  26.322      18.342      13.882      11.514      10.291      9.6568      9.3180      9.1319      9.0295      8.9742    
  8.9433      8.9213      8.8986      8.8725      8.8471      8.8276      8.8160      8.8104      8.7577      8.7605    
  8.7692      8.7854      8.8101      8.8408      8.8725      8.9023      8.9347      8.9817      9.0613      9.2008    
  9.4480      9.8977      10.754      12.437      15.742      22.016      33.242      52.980      87.710      142.39    
  217.72      309.17      407.61      501.38      578.59      629.31      646.97      629.31      578.59      501.38    
  407.61      309.17      217.72      142.39      87.710      52.980      33.242      22.016      15.742      12.437    
  10.754      9.8977      9.4480      9.2008      9.0613      8.9817      8.9347      8.9023      8.8725      8.8408    
  8.8101      8.7854      8.7692      8.7605      8.7104      8.7141      8.7254      8.7455      8.7746      8.8101    
  8.8471      8.8842      8.9279      8.9915      9.0956      9.2727      9.5827      10.151      11.250      13.447    
  17.806      26.111      41.094      68.846      117.37      191.55      290.63      407.61      530.62      645.60    
  738.97      799.76      820.84      799.76      738.97      645.60      530.62      407.61      290.63      191.55    
  117.37      68.846      41.094      26.111      17.806      13.447      11.250      10.151      9.5827      9.2727    
  9.0956      8.9915      8.9279      8.8842      8.8471      8.8101      8.7746      8.7455      8.7254      8.7141    
  8.6699      8.6743      8.6881      8.7120      8.7455      8.7854      8.8276      8.8721      8.9264      9.0053    
  9.1314      9.3426      9.7108      10.392      11.731      14.440      19.856      30.191      49.278      85.567    
  147.89      240.72      361.68      501.38      645.60      778.46      885.30      954.42      978.33      954.42    
  885.30      778.46      645.60      501.38      361.68      240.72      147.89      85.567      49.278      30.191    
  19.856      14.440      11.731      10.392      9.7108      9.3426      9.1314      9.0053      8.9264      8.8721    
  8.8276      8.7854      8.7455      8.7120      8.6881      8.6743      8.6402      8.6453      8.6611      8.6881    
  8.7254      8.7692      8.8160      8.8668      8.9300      9.0210      9.1645      9.4025      9.8178      10.593    
  12.137      15.288      21.617      33.699      56.629      100.49      174.56      282.75      421.20      578.59    
  738.97      885.30      1002.2      1077.6      1103.6      1077.6      1002.2      885.30      738.97      578.59    
  421.20      282.75      174.56      100.49      56.629      33.699      21.617      15.288      12.137      10.593    
  9.8178      9.4025      9.1645      9.0210      8.9300      8.8668      8.8160      8.7692      8.7254      8.6881    
  8.6611      8.6453      8.6230      8.6284      8.6453      8.6743      8.7141      8.7605      8.8104      8.8656    
  8.9348      9.0338      9.1882      9.4433      9.8893      10.728      12.409      15.861      22.811      36.093    
  61.774      110.84      192.77      311.03      460.73      629.31      799.76      954.42      1077.6      1156.8    
  1184.2      1156.8      1077.6      954.42      799.76      629.31      460.73      311.03      192.77      110.84    
  61.774      36.093      22.811      15.861      12.409      10.728      9.8893      9.4433      9.1882      9.0338    
  8.9348      8.8656      8.8104      8.7605      8.7141      8.6743      8.6453      8.6284      8.6175      8.6230    
  8.6402      8.6699      8.7104      8.7577      8.8088      8.8656      8.9370      9.0387      9.1968      9.4578    
  9.9145      10.775      12.505      16.064      23.235      36.947      63.626      114.55      199.24      321.01    
  474.58      646.97      820.84      978.33      1103.6      1184.2      1212.0      1184.2      1103.6      978.33    
  820.84      646.97      474.58      321.01      199.24      114.55      63.626      36.947      23.235      16.064    
  12.505      10.775      9.9145      9.4578      9.1968      9.0387      8.9370      8.8656      8.8088      8.7577    
  8.7104      8.6699      8.6402      8.6230      8.6230      8.6284      8.6453      8.6743      8.7141      8.7605    
  8.8104      8.8656      8.9348      9.0338      9.1882      9.4433      9.8893      10.728      12.409      15.861    
  22.811      36.093      61.774      110.84      192.77      311.03      460.73      629.31      799.76      954.42    
  1077.6      1156.8      1184.2      1156.8      1077.6      954.42      799.76      629.31      460.73      311.03    
  192.77      110.84      61.774      36.093      22.811      15.861      12.409      10.728      9.8893      9.4433    
  9.1882      9.0338      8.9348      8.8656      8.8104      8.7605      8.7141      8.6743      8.6453      8.6284    
  8.6402      8.6453      8.6611      8.6881      8.7254      8.7692      8.8160      8.8668      8.9300      9.0210    
  9.1645      9.4025      9.8178      10.593      12.137      15.288      21.617      33.699      56.629      100.49    
  174.56      282.75      421.20      578.59      738.97      885.30      1002.2      1077.6      1103.6      1077.6    
  1002.2      885.30      738.97      578.59      421.20      282.75      174.56      100.49      56.629      33.699    
  21.617      15.288      12.137      10.593      9.8178      9.4025      9.1645      9.0210      8.9300      8.8668    
  8.8160      8.7692      8.7254      8.6881      8.6611      8.6453      8.6699      8.6743      8.6881      8.7120    
  8.7455      8.7854      8.8276      8.8721      8.9264      9.0053      9.1314      9.3426      9.7108      10.392    
  11.731      14.440      19.856      30.191      49.278      85.567      147.89      240.72      361.68      501.38    
  645.60      778.46      885.30      954.42      978.33      954.42      885.30      778.46      645.60      501.38    
  361.68      240.72      147.89      85.567      49.278      30.191      19.856      14.440      11.731      10.392    
  9.7108      9.3426      9.1314      9.0053      8.9264      8.8721      8.8276      8.7854      8.7455      8.7120    
  8.6881      8.6743      8.7104      8.7141      8.7254      8.7455      8.7746      8.8101      8.8471      8.8842    
  8.9279      8.9915      9.0956      9.2727      9.5827      10.151      11.250      13.447      17.806      26.111    
  41.094      68.846      117.37      191.55      290.63      407.61      530.62      645.60      738.97      799.76    
  820.84      799.76      738.97      645.60      530.62      407.61      290.63      191.55      117.37      68.846    
  41.094      26.111      17.806      13.447      11.250      10.151      9.5827      9.2727      9.0956      8.9915    
  8.9279      8.8842      8.8471      8.8101      8.7746      8.7455      8.7254      8.7141      8.7577      8.7605    
  8.7692      8.7854      8.8101      8.8408      8.8725      8.9023      8.9347      8.9817      9.0613      9.2008    
  9.4480      9.8977      10.754      12.437      15.742      22.016      33.242      52.980      87.710      142.39    
  217.72      309.17      407.61      501.38      578.59      629.31      646.97      629.31      578.59      501.38    
  407.61      309.17      217.72      142.39      87.710      52.980      33.242      22.016      15.742      12.437    
  10.754      9.8977      9.4480      9.2008      9.0613      8.9817      8.9347      8.9023      8.8725      8.8408    
  8.8101      8.7854      8.7692      8.7605      8.8088      8.8104      8.8160      8.8276      8.8471      8.8725    
  8.8986      8.9213      8.9433      8.9742      9.0295      9.1319      9.3180      9.6568      10.291      11.514    
  13.882      18.342      26.322      39.750      62.588      99.394      151.88      217.72      290.63      361.68    
  421.20      460.73      474.58      460.73      421.20      361.68      290.63      217.72      151.88      99.394    
  62.588      39.750      26.322      18.342      13.882      11.514      10.291      9.6568      9.3180      9.1319    
  9.0295      8.9742      8.9433      8.9213      8.8986      8.8725      8.8471      8.8276      8.8160      8.8104    
  8.8656      8.8656      8.8668      8.8721      8.8842      8.9023      8.9213      8.9367      8.9489      8.9654    
  8.9989      9.0678      9.1998      9.4429      9.8918      10.739      12.348      15.344      20.678      29.603    
  43.765      66.304      99.394      142.39      191.55      240.72      282.75      311.03      321.01      311.03    
  282.75      240.72      191.55      142.39      99.394      66.304      43.765      29.603      20.678      15.344    
  12.348      10.739      9.8918      9.4429      9.1998      9.0678      8.9989      8.9654      8.9489      8.9367    
  8.9213      8.9023      8.8842      8.8721      8.8668      8.8656      8.9370      8.9348      8.9300      8.9264    
  8.9279      8.9347      8.9433      8.9489      8.9509      8.9541      8.9686      9.0091      9.0962      9.2625    
  9.5680      10.131      11.176      13.087      16.455      22.076      30.835      43.765      62.588      87.710    
  117.37      147.89      174.56      192.77      199.24      192.77      174.56      147.89      117.37      87.710    
  62.588      43.765      30.835      22.076      16.455      13.087      11.176      10.131      9.5680      9.2625    
  9.0962      9.0091      8.9686      8.9541      8.9509      8.9489      8.9433      8.9347      8.9279      8.9264    
  8.9300      8.9348      9.0387      9.0338      9.0210      9.0053      8.9915      8.9817      8.9742      8.9654    
  8.9541      8.9433      8.9404      8.9570      9.0083      9.1160      9.3170      9.6803      10.335      11.503    
  13.527      16.873      22.076      29.603      39.750      52.980      68.846      85.567      100.49      110.84    
  114.55      110.84      100.49      85.567      68.846      52.980      39.750      29.603      22.076      16.873    
  13.527      11.503      10.335      9.6803      9.3170      9.1160      9.0083      8.9570      8.9404      8.9433    
  8.9541      8.9654      8.9742      8.9817      8.9915      9.0053      9.0210      9.0338      9.1968      9.1882    
  9.1645      9.1314      9.0956      9.0613      9.0295      8.9989      8.9686      8.9404      8.9196      8.9148    
  8.9371      9.0011      9.1288      9.3587      9.7608      10.455      11.626      13.527      16.455      20.678    
  26.322      33.242      41.094      49.278      56.629      61.774      63.626      61.774      56.629      49.278    
  41.094      33.242      26.322      20.678      16.455      13.527      11.626      10.455      9.7608      9.3587    
  9.1288      9.0011      8.9371      8.9148      8.9196      8.9404      8.9686      8.9989      9.0295      9.0613    
  9.0956      9.1314      9.1645      9.1882      9.4578      9.4433      9.4025      9.3426      9.2727      9.2008    
  9.1319      9.0678      9.0091      8.9570      8.9148      8.8884      8.8855      8.9158      8.9925      9.1360    
  9.3820      9.7904      10.455      11.503      13.087      15.344      18.342      22.016      26.111      30.191    
  33.699      36.093      36.947      36.093      33.699      30.191      26.111      22.016      18.342      15.344    
  13.087      11.503      10.455      9.7904      9.3820      9.1360      8.9925      8.9158      8.8855      8.8884    
  8.9148      8.9570      9.0091      9.0678      9.1319      9.2008      9.2727      9.3426      9.4025      9.4433    
  9.9145      9.8893      9.8178      9.7108      9.5827      9.4480      9.3180      9.1998      9.0962      9.0083    
  8.9371      8.8855      8.8577      8.8599      8.8994      8.9867      9.1384      9.3820      9.7608      10.335    
  11.176      12.348      13.882      15.742      17.806      19.856      21.617      22.811      23.235      22.811    
  21.617      19.856      17.806      15.742      13.882      12.348      11.176      10.335      9.7608      9.3820    
  9.1384      8.9867      8.8994      8.8599      8.8577      8.8855      8.9371      9.0083      9.0962      9.1998    
  9.3180      9.4480      9.5827      9.7108      9.8178      9.8893      10.775      10.728      10.593      10.392    
  10.151      9.8977      9.6568      9.4429      9.2625      9.1160      9.0011      8.9158      8.8599      8.8351    
  8.8448      8.8932      8.9867      9.1360      9.3587      9.6803      10.131      10.739      11.514      12.437    
  13.447      14.440      15.288      15.861      16.064      15.861      15.288      14.440      13.447      12.437    
  11.514      10.739      10.131      9.6803      9.3587      9.1360      8.9867      8.8932      8.8448      8.8351    
  8.8599      8.9158      9.0011      9.1160      9.2625      9.4429      9.6568      9.8977      10.151      10.392    
  10.593      10.728      12.505      12.409      12.137      11.731      11.250      10.754      10.291      9.8918    
  9.5680      9.3170      9.1288      8.9925      8.8994      8.8448      8.8268      8.8448      8.8994      8.9925    
  9.1288      9.3170      9.5680      9.8918      10.291      10.754      11.250      11.731      12.137      12.409    
  12.505      12.409      12.137      11.731      11.250      10.754      10.291      9.8918      9.5680      9.3170    
  9.1288      8.9925      8.8994      8.8448      8.8268      8.8448      8.8994      8.9925      9.1288      9.3170    
  9.5680      9.8918      10.291      10.754      11.250      11.731      12.137      12.409      16.064      15.861    
  15.288      14.440      13.447      12.437      11.514      10.739      10.131      9.6803      9.3587      9.1360    
  8.9867      8.8932      8.8448      8.8351      8.8599      8.9158      9.0011      9.1160      9.2625      9.4429    
  9.6568      9.8977      10.151      10.392      10.593      10.728      10.775      10.728      10.593      10.392    
  10.151      9.8977      9.6568      9.4429      9.2625      9.1160      9.0011      8.9158      8.8599      8.8351    