Ca                                      
   1.00000000000000     
     5.525070    0.000000    0.000000
     0.000000    5.525070    0.000000
     0.000000    0.000000    5.525070
   Ca
     4
Direct
  0.000000  0.000000  0.000000
  0.000000  0.500000  0.500000
  0.500000  0.000000  0.500000
  0.500000  0.500000  0.000000
 
   56   56   56
 0.12120261549E+04 0.11842029817E+04 0.11035934904E+04 0.97832590458E+03 0.82084462590E+03
 0.64696869969E+03 0.47457620641E+03 0.32100654015E+03 0.19924161418E+03 0.11454517985E+03
 0.63626299430E+02 0.36947077448E+02 0.23234840584E+02 0.16064244108E+02 0.12504943135E+02
 0.10775007634E+02 0.99144785395E+01 0.94578282336E+01 0.91968423795E+01 0.90386731689E+01
 0.89369801161E+01 0.88655819187E+01 0.88087562994E+01 0.87577317713E+01 0.87103924193E+01
 0.86698655837E+01 0.86402304082E+01 0.86230185773E+01 0.86174972991E+01 0.86230185773E+01
 0.86402304082E+01 0.86698655837E+01 0.87103924193E+01 0.87577317713E+01 0.88087562994E+01
 0.88655819187E+01 0.89369801161E+01 0.90386731689E+01 0.91968423795E+01 0.94578282336E+01
 0.99144785395E+01 0.10775007634E+02 0.12504943135E+02 0.16064244108E+02 0.23234840584E+02
 0.36947077448E+02 0.63626299430E+02 0.11454517985E+03 0.19924161418E+03 0.32100654015E+03
 0.47457620641E+03 0.64696869969E+03 0.82084462590E+03 0.97832590458E+03 0.11035934904E+04
 0.11842029817E+04 0.11842029817E+04 0.11568375238E+04 0.10775622285E+04 0.95441856198E+03
 0.79976177581E+03 0.62930521288E+03 0.46072916743E+03 0.31103278160E+03 0.19277103956E+03
 0.11083968518E+03 0.61773959243E+02 0.36093008921E+02 0.22811302778E+02 0.15861443142E+02
 0.12408904810E+02 0.10727787351E+02 0.98893174404E+01 0.94432975549E+01 0.91881788526E+01
 0.90337741524E+01 0.89348418989E+01 0.88655994127E+01 0.88103777738E+01 0.87604903670E+01
 0.87140542698E+01 0.86743358176E+01 0.86453256885E+01 0.86284487834E+01 0.86230185773E+01
 0.86284487834E+01 0.86453256885E+01 0.86743358176E+01 0.87140542698E+01 0.87604903670E+01
 0.88103777738E+01 0.88655994127E+01 0.89348418989E+01 0.90337741524E+01 0.91881788526E+01
 0.94432975549E+01 0.98893174404E+01 0.10727787351E+02 0.12408904810E+02 0.15861443142E+02
 0.22811302778E+02 0.36093008921E+02 0.61773959243E+02 0.11083968518E+03 0.19277103956E+03
 0.31103278160E+03 0.46072916743E+03 0.62930521288E+03 0.79976177581E+03 0.95441856198E+03
 0.10775622285E+04 0.11568375238E+04 0.11035934904E+04 0.10775622285E+04 0.10021910111E+04
 0.88529541785E+03 0.73897381794E+03 0.57859287198E+03 0.42119552607E+03 0.28274585758E+03
 0.17455568453E+03 0.10048921361E+03 0.56628653317E+02 0.33699165287E+02 0.21616528930E+02
 0.15288296262E+02 0.12136527891E+02 0.10593425489E+02 0.98178235308E+01 0.94024736483E+01
 0.91644599880E+01 0.90210237388E+01 0.89300020982E+01 0.88667844040E+01 0.88159714095E+01
 0.87692357717E+01 0.87254009739E+01 0.86881122887E+01 0.86610699725E+01 0.86453256885E+01
 0.86402304082E+01 0.86453256885E+01 0.86610699725E+01 0.86881122887E+01 0.87254009739E+01
 0.87692357717E+01 0.88159714095E+01 0.88667844040E+01 0.89300020982E+01 0.90210237388E+01
 0.91644599880E+01 0.94024736483E+01 0.98178235308E+01 0.10593425489E+02 0.12136527891E+02
 0.15288296262E+02 0.21616528930E+02 0.33699165287E+02 0.56628653317E+02 0.10048921361E+03
 0.17455568453E+03 0.28274585758E+03 0.42119552607E+03 0.57859287198E+03 0.73897381794E+03
 0.88529541785E+03 0.10021910111E+04 0.10775622285E+04 0.97832590458E+03 0.95441856198E+03
 0.88529541785E+03 0.77846457446E+03 0.64559601026E+03 0.50137943768E+03 0.36167945893E+03
 0.24072339566E+03 0.14789339441E+03 0.85567310112E+02 0.49277851273E+02 0.30191087120E+02
 0.19855778680E+02 0.14440315951E+02 0.11730658296E+02 0.10391865382E+02 0.97107769567E+01
 0.93425997263E+01 0.91314259528E+01 0.90052573788E+01 0.89264113716E+01 0.88721056229E+01
 0.88276162119E+01 0.87854184797E+01 0.87454734026E+01 0.87119603919E+01 0.86881122887E+01
 0.86743358176E+01 0.86698655837E+01 0.86743358176E+01 0.86881122887E+01 0.87119603919E+01
 0.87454734026E+01 0.87854184797E+01 0.88276162119E+01 0.88721056229E+01 0.89264113716E+01
 0.90052573788E+01 0.91314259528E+01 0.93425997263E+01 0.97107769567E+01 0.10391865382E+02
 0.11730658296E+02 0.14440315951E+02 0.19855778680E+02 0.30191087120E+02 0.49277851273E+02
 0.85567310112E+02 0.14789339441E+03 0.24072339566E+03 0.36167945893E+03 0.50137943768E+03
 0.64559601026E+03 0.77846457446E+03 0.88529541785E+03 0.95441856198E+03 0.82084462590E+03
 0.79976177581E+03 0.73897381794E+03 0.64559601026E+03 0.53062488057E+03 0.40761496335E+03
 0.29063325476E+03 0.19154770173E+03 0.11737015013E+03 0.68845598534E+02 0.41094144832E+02
 0.26111131574E+02 0.17805655794E+02 0.13446577034E+02 0.11249788588E+02 0.10150527872E+02
 0.95826735505E+01 0.92727417176E+01 0.90955756231E+01 0.89914621439E+01 0.89278602648E+01
 0.88842450148E+01 0.88470564530E+01 0.88100534682E+01 0.87746029982E+01 0.87454734026E+01
 0.87254009739E+01 0.87140542698E+01 0.87103924193E+01 0.87140542698E+01 0.87254009739E+01
 0.87454734026E+01 0.87746029982E+01 0.88100534682E+01 0.88470564530E+01 0.88842450148E+01
 0.89278602648E+01 0.89914621439E+01 0.90955756231E+01 0.92727417176E+01 0.95826735505E+01
 0.10150527872E+02 0.11249788588E+02 0.13446577034E+02 0.17805655794E+02 0.26111131574E+02
 0.41094144832E+02 0.68845598534E+02 0.11737015013E+03 0.19154770173E+03 0.29063325476E+03
 0.40761496335E+03 0.53062488057E+03 0.64559601026E+03 0.73897381794E+03 0.79976177581E+03
 0.64696869969E+03 0.62930521288E+03 0.57859287198E+03 0.50137943768E+03 0.40761496335E+03
 0.30916649897E+03 0.21772284713E+03 0.14238943703E+03 0.87709711143E+02 0.52980227800E+02
 0.33242430722E+02 0.22015549272E+02 0.15742344042E+02 0.12436803271E+02 0.10753676728E+02
 0.98977252196E+01 0.94479741561E+01 0.92008440069E+01 0.90612809156E+01 0.89817095506E+01
 0.89347358354E+01 0.89023104869E+01 0.88725309176E+01 0.88408440763E+01 0.88100534682E+01
 0.87854184797E+01 0.87692357717E+01 0.87604903670E+01 0.87577317713E+01 0.87604903670E+01
 0.87692357717E+01 0.87854184797E+01 0.88100534682E+01 0.88408440763E+01 0.88725309176E+01
 0.89023104869E+01 0.89347358354E+01 0.89817095506E+01 0.90612809156E+01 0.92008440069E+01
 0.94479741561E+01 0.98977252196E+01 0.10753676728E+02 0.12436803271E+02 0.15742344042E+02
 0.22015549272E+02 0.33242430722E+02 0.52980227800E+02 0.87709711143E+02 0.14238943703E+03
 0.21772284713E+03 0.30916649897E+03 0.40761496335E+03 0.50137943768E+03 0.57859287198E+03
 0.62930521288E+03 0.47457620641E+03 0.46072916743E+03 0.42119552607E+03 0.36167945893E+03
 0.29063325476E+03 0.21772284713E+03 0.15188422703E+03 0.99394444180E+02 0.62587514499E+02
 0.39750304087E+02 0.26321638274E+02 0.18342371469E+02 0.13881592338E+02 0.11513743396E+02
 0.10290887603E+02 0.96568283474E+01 0.93180465925E+01 0.91318686675E+01 0.90295021160E+01
 0.89741841882E+01 0.89432784944E+01 0.89213495296E+01 0.88986321696E+01 0.88725309176E+01
 0.88470564530E+01 0.88276162119E+01 0.88159714095E+01 0.88103777738E+01 0.88087562994E+01
 0.88103777738E+01 0.88159714095E+01 0.88276162119E+01 0.88470564530E+01 0.88725309176E+01
 0.88986321696E+01 0.89213495296E+01 0.89432784944E+01 0.89741841882E+01 0.90295021160E+01
 0.91318686675E+01 0.93180465925E+01 0.96568283474E+01 0.10290887603E+02 0.11513743396E+02
 0.13881592338E+02 0.18342371469E+02 0.26321638274E+02 0.39750304087E+02 0.62587514499E+02
 0.99394444180E+02 0.15188422703E+03 0.21772284713E+03 0.29063325476E+03 0.36167945893E+03
 0.42119552607E+03 0.46072916743E+03 0.32100654015E+03 0.31103278160E+03 0.28274585758E+03
 0.24072339566E+03 0.19154770173E+03 0.14238943703E+03 0.99394444180E+02 0.66303702838E+02
 0.43765494599E+02 0.29602733542E+02 0.20678255861E+02 0.15343862986E+02 0.12347914185E+02
 0.10738626216E+02 0.98917832902E+01 0.94429096977E+01 0.91997895221E+01 0.90677709315E+01
 0.89989276160E+01 0.89654470519E+01 0.89489345918E+01 0.89366711362E+01 0.89213495296E+01
 0.89023104869E+01 0.88842450148E+01 0.88721056229E+01 0.88667844040E+01 0.88655994127E+01
 0.88655819187E+01 0.88655994127E+01 0.88667844040E+01 0.88721056229E+01 0.88842450148E+01
 0.89023104869E+01 0.89213495296E+01 0.89366711362E+01 0.89489345918E+01 0.89654470519E+01
 0.89989276160E+01 0.90677709315E+01 0.91997895221E+01 0.94429096977E+01 0.98917832902E+01
 0.10738626216E+02 0.12347914185E+02 0.15343862986E+02 0.20678255861E+02 0.29602733542E+02
 0.43765494599E+02 0.66303702838E+02 0.99394444180E+02 0.14238943703E+03 0.19154770173E+03
 0.24072339566E+03 0.28274585758E+03 0.31103278160E+03 0.19924161418E+03 0.19277103956E+03
 0.17455568453E+03 0.14789339441E+03 0.11737015013E+03 0.87709711143E+02 0.62587514499E+02
 0.43765494599E+02 0.30834629400E+02 0.22076094285E+02 0.16455448200E+02 0.13087129715E+02
 0.11176079459E+02 0.10131197222E+02 0.95679977262E+01 0.92625219273E+01 0.90961933201E+01
 0.90090713632E+01 0.89686307538E+01 0.89541325281E+01 0.89509119826E+01 0.89489345918E+01
 0.89432784944E+01 0.89347358354E+01 0.89278602648E+01 0.89264113716E+01 0.89300020982E+01
 0.89348418989E+01 0.89369801161E+01 0.89348418989E+01 0.89300020982E+01 0.89264113716E+01
 0.89278602648E+01 0.89347358354E+01 0.89432784944E+01 0.89489345918E+01 0.89509119826E+01
 0.89541325281E+01 0.89686307538E+01 0.90090713632E+01 0.90961933201E+01 0.92625219273E+01
 0.95679977262E+01 0.10131197222E+02 0.11176079459E+02 0.13087129715E+02 0.16455448200E+02
 0.22076094285E+02 0.30834629400E+02 0.43765494599E+02 0.62587514499E+02 0.87709711143E+02
 0.11737015013E+03 0.14789339441E+03 0.17455568453E+03 0.19277103956E+03 0.11454517985E+03
 0.11083968518E+03 0.10048921361E+03 0.85567310112E+02 0.68845598534E+02 0.52980227800E+02
 0.39750304087E+02 0.29602733542E+02 0.22076094285E+02 0.16872845159E+02 0.13527260152E+02
 0.11503437784E+02 0.10335239584E+02 0.96803334408E+01 0.93169876623E+01 0.91160427092E+01
 0.90082548528E+01 0.89569665493E+01 0.89404039131E+01 0.89432638096E+01 0.89541325281E+01
 0.89654470519E+01 0.89741841882E+01 0.89817095506E+01 0.89914621439E+01 0.90052573788E+01
 0.90210237388E+01 0.90337741524E+01 0.90386731689E+01 0.90337741524E+01 0.90210237388E+01
 0.90052573788E+01 0.89914621439E+01 0.89817095506E+01 0.89741841882E+01 0.89654470519E+01
 0.89541325281E+01 0.89432638096E+01 0.89404039131E+01 0.89569665493E+01 0.90082548528E+01
 0.91160427092E+01 0.93169876623E+01 0.96803334408E+01 0.10335239584E+02 0.11503437784E+02
 0.13527260152E+02 0.16872845159E+02 0.22076094285E+02 0.29602733542E+02 0.39750304087E+02
 0.52980227800E+02 0.68845598534E+02 0.85567310112E+02 0.10048921361E+03 0.11083968518E+03
 0.63626299430E+02 0.61773959243E+02 0.56628653317E+02 0.49277851273E+02 0.41094144832E+02
 0.33242430722E+02 0.26321638274E+02 0.20678255861E+02 0.16455448200E+02 0.13527260152E+02
 0.11625654733E+02 0.10454718110E+02 0.97608268227E+01 0.93587483912E+01 0.91288373620E+01
 0.90011430982E+01 0.89371208085E+01 0.89147975903E+01 0.89196127340E+01 0.89404039131E+01
 0.89686307538E+01 0.89989276160E+01 0.90295021160E+01 0.90612809156E+01 0.90955756231E+01
 0.91314259528E+01 0.91644599880E+01 0.91881788526E+01 0.91968423795E+01 0.91881788526E+01
 0.91644599880E+01 0.91314259528E+01 0.90955756231E+01 0.90612809156E+01 0.90295021160E+01
 0.89989276160E+01 0.89686307538E+01 0.89404039131E+01 0.89196127340E+01 0.89147975903E+01
 0.89371208085E+01 0.90011430982E+01 0.91288373620E+01 0.93587483912E+01 0.97608268227E+01
 0.10454718110E+02 0.11625654733E+02 0.13527260152E+02 0.16455448200E+02 0.20678255861E+02
 0.26321638274E+02 0.33242430722E+02 0.41094144832E+02 0.49277851273E+02 0.56628653317E+02
 0.61773959243E+02 0.36947077448E+02 0.36093008921E+02 0.33699165287E+02 0.30191087120E+02
 0.26111131574E+02 0.22015549272E+02 0.18342371469E+02 0.15343862986E+02 0.13087129715E+02
 0.11503437784E+02 0.10454718110E+02 0.97903832721E+01 0.93819533643E+01 0.91360145023E+01
 0.89924600315E+01 0.89157983843E+01 0.88854524821E+01 0.88883562980E+01 0.89147975903E+01
 0.89569665493E+01 0.90090713632E+01 0.90677709315E+01 0.91318686675E+01 0.92008440069E+01
 0.92727417176E+01 0.93425997263E+01 0.94024736483E+01 0.94432975549E+01 0.94578282336E+01
 0.94432975549E+01 0.94024736483E+01 0.93425997263E+01 0.92727417176E+01 0.92008440069E+01
 0.91318686675E+01 0.90677709315E+01 0.90090713632E+01 0.89569665493E+01 0.89147975903E+01
 0.88883562980E+01 0.88854524821E+01 0.89157983843E+01 0.89924600315E+01 0.91360145023E+01
 0.93819533643E+01 0.97903832721E+01 0.10454718110E+02 0.11503437784E+02 0.13087129715E+02
 0.15343862986E+02 0.18342371469E+02 0.22015549272E+02 0.26111131574E+02 0.30191087120E+02
 0.33699165287E+02 0.36093008921E+02 0.23234840584E+02 0.22811302778E+02 0.21616528930E+02
 0.19855778680E+02 0.17805655794E+02 0.15742344042E+02 0.13881592338E+02 0.12347914185E+02
 0.11176079459E+02 0.10335239584E+02 0.97608268227E+01 0.93819533643E+01 0.91383552469E+01
 0.89867014396E+01 0.88993896296E+01 0.88598578215E+01 0.88577117197E+01 0.88854524821E+01
 0.89371208085E+01 0.90082548528E+01 0.90961933201E+01 0.91997895221E+01 0.93180465925E+01
 0.94479741561E+01 0.95826735505E+01 0.97107769567E+01 0.98178235308E+01 0.98893174404E+01
 0.99144785395E+01 0.98893174404E+01 0.98178235308E+01 0.97107769567E+01 0.95826735505E+01
 0.94479741561E+01 0.93180465925E+01 0.91997895221E+01 0.90961933201E+01 0.90082548528E+01
 0.89371208085E+01 0.88854524821E+01 0.88577117197E+01 0.88598578215E+01 0.88993896296E+01
 0.89867014396E+01 0.91383552469E+01 0.93819533643E+01 0.97608268227E+01 0.10335239584E+02
 0.11176079459E+02 0.12347914185E+02 0.13881592338E+02 0.15742344042E+02 0.17805655794E+02
 0.19855778680E+02 0.21616528930E+02 0.22811302778E+02 0.16064244108E+02 0.15861443142E+02
 0.15288296262E+02 0.14440315951E+02 0.13446577034E+02 0.12436803271E+02 0.11513743396E+02
 0.10738626216E+02 0.10131197222E+02 0.96803334408E+01 0.93587483912E+01 0.91360145023E+01
 0.89867014396E+01 0.88932127200E+01 0.88448242035E+01 0.88351403862E+01 0.88598578215E+01
 0.89157983843E+01 0.90011430982E+01 0.91160427092E+01 0.92625219273E+01 0.94429096977E+01
 0.96568283474E+01 0.98977252196E+01 0.10150527872E+02 0.10391865382E+02 0.10593425489E+02
 0.10727787351E+02 0.10775007634E+02 0.10727787351E+02 0.10593425489E+02 0.10391865382E+02
 0.10150527872E+02 0.98977252196E+01 0.96568283474E+01 0.94429096977E+01 0.92625219273E+01
 0.91160427092E+01 0.90011430982E+01 0.89157983843E+01 0.88598578215E+01 0.88351403862E+01
 0.88448242035E+01 0.88932127200E+01 0.89867014396E+01 0.91360145023E+01 0.93587483912E+01
 0.96803334408E+01 0.10131197222E+02 0.10738626216E+02 0.11513743396E+02 0.12436803271E+02
 0.13446577034E+02 0.14440315951E+02 0.15288296262E+02 0.15861443142E+02 0.12504943135E+02
 0.12408904810E+02 0.12136527891E+02 0.11730658296E+02 0.11249788588E+02 0.10753676728E+02
 0.10290887603E+02 0.98917832902E+01 0.95679977262E+01 0.93169876623E+01 0.91288373620E+01
 0.89924600315E+01 0.88993896296E+01 0.88448242035E+01 0.88267893108E+01 0.88448242035E+01
 0.88993896296E+01 0.89924600315E+01 0.91288373620E+01 0.93169876623E+01 0.95679977262E+01
 0.98917832902E+01 0.10290887603E+02 0.10753676728E+02 0.11249788588E+02 0.11730658296E+02
 0.12136527891E+02 0.12408904810E+02 0.12504943135E+02 0.12408904810E+02 0.12136527891E+02
 0.11730658296E+02 0.11249788588E+02 0.10753676728E+02 0.10290887603E+02 0.98917832902E+01
 0.95679977262E+01 0.93169876623E+01 0.91288373620E+01 0.89924600315E+01 0.88993896296E+01
 0.88448242035E+01 0.88267893108E+01 0.88448242035E+01 0.88993896296E+01 0.89924600315E+01
 0.91288373620E+01 0.93169876623E+01 0.95679977262E+01 0.98917832902E+01 0.10290887603E+02
 0.10753676728E+02 0.11249788588E+02 0.11730658296E+02 0.12136527891E+02 0.12408904810E+02
 0.10775007634E+02 0.10727787351E+02 0.10593425489E+02 0.10391865382E+02 0.10150527872E+02
 0.98977252196E+01 0.96568283474E+01 0.94429096977E+01 0.92625219273E+01 0.91160427092E+01
 0.90011430982E+01 0.89157983843E+01 0.88598578215E+01 0.88351403862E+01 0.88448242035E+01
 0.88932127200E+01 0.89867014396E+01 0.91360145023E+01 0.93587483912E+01 0.96803334408E+01
 0.10131197222E+02 0.10738626216E+02 0.11513743396E+02 0.12436803271E+02 0.13446577034E+02
 0.14440315951E+02 0.15288296262E+02 0.15861443142E+02 0.16064244108E+02 0.15861443142E+02
 0.15288296262E+02 0.14440315951E+02 0.13446577034E+02 0.12436803271E+02 0.11513743396E+02
 0.10738626216E+02 0.10131197222E+02 0.96803334408E+01 0.93587483912E+01 0.91360145023E+01
 0.89867014396E+01 0.88932127200E+01 0.88448242035E+01 0.88351403862E+01 0.88598578215E+01
 0.89157983843E+01 0.90011430982E+01 0.91160427092E+01 0.92625219273E+01 0.94429096977E+01
 0.96568283474E+01 0.98977252196E+01 0.10150527872E+02 0.10391865382E+02 0.10593425489E+02
 0.10727787351E+02 0.99144785395E+01 0.98893174404E+01 0.98178235308E+01 0.97107769567E+01
 0.95826735505E+01 0.94479741561E+01 0.93180465925E+01 0.91997895221E+01 0.90961933201E+01
 0.90082548528E+01 0.89371208085E+01 0.88854524821E+01 0.88577117197E+01 0.88598578215E+01
 0.88993896296E+01 0.89867014396E+01 0.91383552469E+01 0.93819533643E+01 0.97608268227E+01
 0.10335239584E+02 0.11176079459E+02 0.12347914185E+02 0.13881592338E+02 0.15742344042E+02
 0.17805655794E+02 0.19855778680E+02 0.21616528930E+02 0.22811302778E+02 0.23234840584E+02
 0.22811302778E+02 0.21616528930E+02 0.19855778680E+02 0.17805655794E+02 0.15742344042E+02
 0.13881592338E+02 0.12347914185E+02 0.11176079459E+02 0.10335239584E+02 0.97608268227E+01
 0.93819533643E+01 0.91383552469E+01 0.89867014396E+01 0.88993896296E+01 0.88598578215E+01
 0.88577117197E+01 0.88854524821E+01 0.89371208085E+01 0.90082548528E+01 0.90961933201E+01
 0.91997895221E+01 0.93180465925E+01 0.94479741561E+01 0.95826735505E+01 0.97107769567E+01
 0.98178235308E+01 0.98893174404E+01 0.94578282336E+01 0.94432975549E+01 0.94024736483E+01
 0.93425997263E+01 0.92727417176E+01 0.92008440069E+01 0.91318686675E+01 0.90677709315E+01
 0.90090713632E+01 0.89569665493E+01 0.89147975903E+01 0.88883562980E+01 0.88854524821E+01
 0.89157983843E+01 0.89924600315E+01 0.91360145023E+01 0.93819533643E+01 0.97903832721E+01
 0.10454718110E+02 0.11503437784E+02 0.13087129715E+02 0.15343862986E+02 0.18342371469E+02
 0.22015549272E+02 0.26111131574E+02 0.30191087120E+02 0.33699165287E+02 0.36093008921E+02
 0.36947077448E+02 0.36093008921E+02 0.33699165287E+02 0.30191087120E+02 0.26111131574E+02
 0.22015549272E+02 0.18342371469E+02 0.15343862986E+02 0.13087129715E+02 0.11503437784E+02
 0.10454718110E+02 0.97903832721E+01 0.93819533643E+01 0.91360145023E+01 0.89924600315E+01
 0.89157983843E+01 0.88854524821E+01 0.88883562980E+01 0.89147975903E+01 0.89569665493E+01
 0.90090713632E+01 0.90677709315E+01 0.91318686675E+01 0.92008440069E+01 0.92727417176E+01
 0.93425997263E+01 0.94024736483E+01 0.94432975549E+01 0.91968423795E+01 0.91881788526E+01
 0.91644599880E+01 0.91314259528E+01 0.90955756231E+01 0.90612809156E+01 0.90295021160E+01
 0.89989276160E+01 0.89686307538E+01 0.89404039131E+01 0.89196127340E+01 0.89147975903E+01
 0.89371208085E+01 0.90011430982E+01 0.91288373620E+01 0.93587483912E+01 0.97608268227E+01
 0.10454718110E+02 0.11625654733E+02 0.13527260152E+02 0.16455448200E+02 0.20678255861E+02
 0.26321638274E+02 0.33242430722E+02 0.41094144832E+02 0.49277851273E+02 0.56628653317E+02
 0.61773959243E+02 0.63626299430E+02 0.61773959243E+02 0.56628653317E+02 0.49277851273E+02
 0.41094144832E+02 0.33242430722E+02 0.26321638274E+02 0.20678255861E+02 0.16455448200E+02
 0.13527260152E+02 0.11625654733E+02 0.10454718110E+02 0.97608268227E+01 0.93587483912E+01
 0.91288373620E+01 0.90011430982E+01 0.89371208085E+01 0.89147975903E+01 0.89196127340E+01
 0.89404039131E+01 0.89686307538E+01 0.89989276160E+01 0.90295021160E+01 0.90612809156E+01
 0.90955756231E+01 0.91314259528E+01 0.91644599880E+01 0.91881788526E+01 0.90386731689E+01
 0.90337741524E+01 0.90210237388E+01 0.90052573788E+01 0.89914621439E+01 0.89817095506E+01
 0.89741841882E+01 0.89654470519E+01 0.89541325281E+01 0.89432638096E+01 0.89404039131E+01
 0.89569665493E+01 0.90082548528E+01 0.91160427092E+01 0.93169876623E+01 0.96803334408E+01
 0.10335239584E+02 0.11503437784E+02 0.13527260152E+02 0.16872845159E+02 0.22076094285E+02
 0.29602733542E+02 0.39750304087E+02 0.52980227800E+02 0.68845598534E+02 0.85567310112E+02
 0.10048921361E+03 0.11083968518E+03 0.11454517985E+03 0.11083968518E+03 0.10048921361E+03
 0.85567310112E+02 0.68845598534E+02 0.52980227800E+02 0.39750304087E+02 0.29602733542E+02
 0.22076094285E+02 0.16872845159E+02 0.13527260152E+02 0.11503437784E+02 0.10335239584E+02
 0.96803334408E+01 0.93169876623E+01 0.91160427092E+01 0.90082548528E+01 0.89569665493E+01
 0.89404039131E+01 0.89432638096E+01 0.89541325281E+01 0.89654470519E+01 0.89741841882E+01
 0.89817095506E+01 0.89914621439E+01 0.90052573788E+01 0.90210237388E+01 0.90337741524E+01
 0.89369801161E+01 0.89348418989E+01 0.89300020982E+01 0.89264113716E+01 0.89278602648E+01
 0.89347358354E+01 0.89432784944E+01 0.89489345918E+01 0.89509119826E+01 0.89541325281E+01
 0.89686307538E+01 0.90090713632E+01 0.90961933201E+01 0.92625219273E+01 0.95679977262E+01
 0.10131197222E+02 0.11176079459E+02 0.13087129715E+02 0.16455448200E+02 0.22076094285E+02
 0.30834629400E+02 0.43765494599E+02 0.62587514499E+02 0.87709711143E+02 0.11737015013E+03
 0.14789339441E+03 0.17455568453E+03 0.19277103956E+03 0.19924161418E+03 0.19277103956E+03
 0.17455568453E+03 0.14789339441E+03 0.11737015013E+03 0.87709711143E+02 0.62587514499E+02
 0.43765494599E+02 0.30834629400E+02 0.22076094285E+02 0.16455448200E+02 0.13087129715E+02
 0.11176079459E+02 0.10131197222E+02 0.95679977262E+01 0.92625219273E+01 0.90961933201E+01
 0.90090713632E+01 0.89686307538E+01 0.89541325281E+01 0.89509119826E+01 0.89489345918E+01
 0.89432784944E+01 0.89347358354E+01 0.89278602648E+01 0.89264113716E+01 0.89300020982E+01
 0.89348418989E+01 0.88655819187E+01 0.88655994127E+01 0.88667844040E+01 0.88721056229E+01
 0.88842450148E+01 0.89023104869E+01 0.89213495296E+01 0.89366711362E+01 0.89489345918E+01
 0.89654470519E+01 0.89989276160E+01 0.90677709315E+01 0.91997895221E+01 0.94429096977E+01
 0.98917832902E+01 0.10738626216E+02 0.12347914185E+02 0.15343862986E+02 0.20678255861E+02
 0.29602733542E+02 0.43765494599E+02 0.66303702838E+02 0.99394444180E+02 0.14238943703E+03
 0.19154770173E+03 0.24072339566E+03 0.28274585758E+03 0.31103278160E+03 0.32100654015E+03
 0.31103278160E+03 0.28274585758E+03 0.24072339566E+03 0.19154770173E+03 0.14238943703E+03
 0.99394444180E+02 0.66303702838E+02 0.43765494599E+02 0.29602733542E+02 0.20678255861E+02
 0.15343862986E+02 0.12347914185E+02 0.10738626216E+02 0.98917832902E+01 0.94429096977E+01
 0.91997895221E+01 0.90677709315E+01 0.89989276160E+01 0.89654470519E+01 0.89489345918E+01
 0.89366711362E+01 0.89213495296E+01 0.89023104869E+01 0.88842450148E+01 0.88721056229E+01
 0.88667844040E+01 0.88655994127E+01 0.88087562994E+01 0.88103777738E+01 0.88159714095E+01
 0.88276162119E+01 0.88470564530E+01 0.88725309176E+01 0.88986321696E+01 0.89213495296E+01
 0.89432784944E+01 0.89741841882E+01 0.90295021160E+01 0.91318686675E+01 0.93180465925E+01
 0.96568283474E+01 0.10290887603E+02 0.11513743396E+02 0.13881592338E+02 0.18342371469E+02
 0.26321638274E+02 0.39750304087E+02 0.62587514499E+02 0.99394444180E+02 0.15188422703E+03
 0.21772284713E+03 0.29063325476E+03 0.36167945893E+03 0.42119552607E+03 0.46072916743E+03
 0.47457620641E+03 0.46072916743E+03 0.42119552607E+03 0.36167945893E+03 0.29063325476E+03
 0.21772284713E+03 0.15188422703E+03 0.99394444180E+02 0.62587514499E+02 0.39750304087E+02
 0.26321638274E+02 0.18342371469E+02 0.13881592338E+02 0.11513743396E+02 0.10290887603E+02
 0.96568283474E+01 0.93180465925E+01 0.91318686675E+01 0.90295021160E+01 0.89741841882E+01
 0.89432784944E+01 0.89213495296E+01 0.88986321696E+01 0.88725309176E+01 0.88470564530E+01
 0.88276162119E+01 0.88159714095E+01 0.88103777738E+01 0.87577317713E+01 0.87604903670E+01
 0.87692357717E+01 0.87854184797E+01 0.88100534682E+01 0.88408440763E+01 0.88725309176E+01
 0.89023104869E+01 0.89347358354E+01 0.89817095506E+01 0.90612809156E+01 0.92008440069E+01
 0.94479741561E+01 0.98977252196E+01 0.10753676728E+02 0.12436803271E+02 0.15742344042E+02
 0.22015549272E+02 0.33242430722E+02 0.52980227800E+02 0.87709711143E+02 0.14238943703E+03
 0.21772284713E+03 0.30916649897E+03 0.40761496335E+03 0.50137943768E+03 0.57859287198E+03
 0.62930521288E+03 0.64696869969E+03 0.62930521288E+03 0.57859287198E+03 0.50137943768E+03
 0.40761496335E+03 0.30916649897E+03 0.21772284713E+03 0.14238943703E+03 0.87709711143E+02
 0.52980227800E+02 0.33242430722E+02 0.22015549272E+02 0.15742344042E+02 0.12436803271E+02
 0.10753676728E+02 0.98977252196E+01 0.94479741561E+01 0.92008440069E+01 0.90612809156E+01
 0.89817095506E+01 0.89347358354E+01 0.89023104869E+01 0.88725309176E+01 0.88408440763E+01
 0.88100534682E+01 0.87854184797E+01 0.87692357717E+01 0.87604903670E+01 0.87103924193E+01
 0.87140542698E+01 0.87254009739E+01 0.87454734026E+01 0.87746029982E+01 0.88100534682E+01
 0.88470564530E+01 0.88842450148E+01 0.89278602648E+01 0.89914621439E+01 0.90955756231E+01
 0.92727417176E+01 0.95826735505E+01 0.10150527872E+02 0.11249788588E+02 0.13446577034E+02
 0.17805655794E+02 0.26111131574E+02 0.41094144832E+02 0.68845598534E+02 0.11737015013E+03
 0.19154770173E+03 0.29063325476E+03 0.40761496335E+03 0.53062488057E+03 0.64559601026E+03
 0.73897381794E+03 0.79976177581E+03 0.82084462590E+03 0.79976177581E+03 0.73897381794E+03
 0.64559601026E+03 0.53062488057E+03 0.40761496335E+03 0.29063325476E+03 0.19154770173E+03
 0.11737015013E+03 0.68845598534E+02 0.41094144832E+02 0.26111131574E+02 0.17805655794E+02
 0.13446577034E+02 0.11249788588E+02 0.10150527872E+02 0.95826735505E+01 0.92727417176E+01
 0.90955756231E+01 0.89914621439E+01 0.89278602648E+01 0.88842450148E+01 0.88470564530E+01
 0.88100534682E+01 0.87746029982E+01 0.87454734026E+01 0.87254009739E+01 0.87140542698E+01
 0.86698655837E+01 0.86743358176E+01 0.86881122887E+01 0.87119603919E+01 0.87454734026E+01
 0.87854184797E+01 0.88276162119E+01 0.88721056229E+01 0.89264113716E+01 0.90052573788E+01
 0.91314259528E+01 0.93425997263E+01 0.97107769567E+01 0.10391865382E+02 0.11730658296E+02
 0.14440315951E+02 0.19855778680E+02 0.30191087120E+02 0.49277851273E+02 0.85567310112E+02
 0.14789339441E+03 0.24072339566E+03 0.36167945893E+03 0.50137943768E+03 0.64559601026E+03
 0.77846457446E+03 0.88529541785E+03 0.95441856198E+03 0.97832590458E+03 0.95441856198E+03
 0.88529541785E+03 0.77846457446E+03 0.64559601026E+03 0.50137943768E+03 0.36167945893E+03
 0.24072339566E+03 0.14789339441E+03 0.85567310112E+02 0.49277851273E+02 0.30191087120E+02
 0.19855778680E+02 0.14440315951E+02 0.11730658296E+02 0.10391865382E+02 0.97107769567E+01
 0.93425997263E+01 0.91314259528E+01 0.90052573788E+01 0.89264113716E+01 0.88721056229E+01
 0.88276162119E+01 0.87854184797E+01 0.87454734026E+01 0.87119603919E+01 0.86881122887E+01
 0.86743358176E+01 0.86402304082E+01 0.86453256885E+01 0.86610699725E+01 0.86881122887E+01
 0.87254009739E+01 0.87692357717E+01 0.88159714095E+01 0.88667844040E+01 0.89300020982E+01
 0.90210237388E+01 0.91644599880E+01 0.94024736483E+01 0.98178235308E+01 0.10593425489E+02
 0.12136527891E+02 0.15288296262E+02 0.21616528930E+02 0.33699165287E+02 0.56628653317E+02
 0.10048921361E+03 0.17455568453E+03 0.28274585758E+03 0.42119552607E+03 0.57859287198E+03
 0.73897381794E+03 0.88529541785E+03 0.10021910111E+04 0.10775622285E+04 0.11035934904E+04
 0.10775622285E+04 0.10021910111E+04 0.88529541785E+03 0.73897381794E+03 0.57859287198E+03
 0.42119552607E+03 0.28274585758E+03 0.17455568453E+03 0.10048921361E+03 0.56628653317E+02
 0.33699165287E+02 0.21616528930E+02 0.15288296262E+02 0.12136527891E+02 0.10593425489E+02
 0.98178235308E+01 0.94024736483E+01 0.91644599880E+01 0.90210237388E+01 0.89300020982E+01
 0.88667844040E+01 0.88159714095E+01 0.87692357717E+01 0.87254009739E+01 0.86881122887E+01
 0.86610699725E+01 0.86453256885E+01 0.86230185773E+01 0.86284487834E+01 0.86453256885E+01
 0.86743358176E+01 0.87140542698E+01 0.87604903670E+01 0.88103777738E+01 0.88655994127E+01
 0.89348418989E+01 0.90337741524E+01 0.91881788526E+01 0.94432975549E+01 0.98893174404E+01
 0.10727787351E+02 0.12408904810E+02 0.15861443142E+02 0.22811302778E+02 0.36093008921E+02
 0.61773959243E+02 0.11083968518E+03 0.19277103956E+03 0.31103278160E+03 0.46072916743E+03
 0.62930521288E+03 0.79976177581E+03 0.95441856198E+03 0.10775622285E+04 0.11568375238E+04
 0.11842029817E+04 0.11568375238E+04 0.10775622285E+04 0.95441856198E+03 0.79976177581E+03
 0.62930521288E+03 0.46072916743E+03 0.31103278160E+03 0.19277103956E+03 0.11083968518E+03
 0.61773959243E+02 0.36093008921E+02 0.22811302778E+02 0.15861443142E+02 0.12408904810E+02
 0.10727787351E+02 0.98893174404E+01 0.94432975549E+01 0.91881788526E+01 0.90337741524E+01
 0.89348418989E+01 0.88655994127E+01 0.88103777738E+01 0.87604903670E+01 0.87140542698E+01
 0.86743358176E+01 0.86453256885E+01 0.86284487834E+01 0.86174972991E+01 0.86230185773E+01
 0.86402304082E+01 0.86698655837E+01 0.87103924193E+01 0.87577317713E+01 0.88087562994E+01
 0.88655819187E+01 0.89369801161E+01 0.90386731689E+01 0.91968423795E+01 0.94578282336E+01
 0.99144785395E+01 0.10775007634E+02 0.12504943135E+02 0.16064244108E+02 0.23234840584E+02
 0.36947077448E+02 0.63626299430E+02 0.11454517985E+03 0.19924161418E+03 0.32100654015E+03
 0.47457620641E+03 0.64696869969E+03 0.82084462590E+03 0.97832590458E+03 0.11035934904E+04
 0.11842029817E+04 0.12120261549E+04 0.11842029817E+04 0.11035934904E+04 0.97832590458E+03
 0.82084462590E+03 0.64696869969E+03 0.47457620641E+03 0.32100654015E+03 0.19924161418E+03
 0.11454517985E+03 0.63626299430E+02 0.36947077448E+02 0.23234840584E+02 0.16064244108E+02
 0.12504943135E+02 0.10775007634E+02 0.99144785395E+01 0.94578282336E+01 0.91968423795E+01
 0.90386731689E+01 0.89369801161E+01 0.88655819187E+01 0.88087562994E+01 0.87577317713E+01
 0.87103924193E+01 0.86698655837E+01 0.86402304082E+01 0.86230185773E+01 0.86230185773E+01