   4   4   0   0
  0.4216512E+02  0.5525070E-09  0.5525070E-09  0.5525070E-09  0.5000000E-15
  1.000000000000000E-004
  CAR 
 Ca                                      
     13.43336544    -42.60458445  301      1.97925945      1.00000000
    -42.605  0.0000E+00  0.0000E+00
    -42.418  0.0000E+00  0.0000E+00
    -42.231  0.0000E+00  0.0000E+00
    -42.044  0.0000E+00  0.0000E+00
    -41.857  0.0000E+00  0.0000E+00
    -41.671  0.0000E+00  0.0000E+00
    -41.484  0.0000E+00  0.0000E+00
    -41.297  0.0000E+00  0.0000E+00
    -41.110  0.0000E+00  0.0000E+00
    -40.923  0.0000E+00  0.0000E+00
    -40.737  0.0000E+00  0.0000E+00
    -40.550  0.0000E+00  0.0000E+00
    -40.363  0.0000E+00  0.0000E+00
    -40.176  0.4266E-02  0.7969E-03
    -39.989  0.4012E+02  0.7494E+01
    -39.803  0.2708E+01  0.8000E+01
    -39.616  0.0000E+00  0.8000E+01
    -39.429  0.0000E+00  0.8000E+01
    -39.242  0.0000E+00  0.8000E+01
    -39.056  0.0000E+00  0.8000E+01
    -38.869  0.0000E+00  0.8000E+01
    -38.682  0.0000E+00  0.8000E+01
    -38.495  0.0000E+00  0.8000E+01
    -38.308  0.0000E+00  0.8000E+01
    -38.122  0.0000E+00  0.8000E+01
    -37.935  0.0000E+00  0.8000E+01
    -37.748  0.0000E+00  0.8000E+01
    -37.561  0.0000E+00  0.8000E+01
    -37.374  0.0000E+00  0.8000E+01
    -37.188  0.0000E+00  0.8000E+01
    -37.001  0.0000E+00  0.8000E+01
    -36.814  0.0000E+00  0.8000E+01
    -36.627  0.0000E+00  0.8000E+01
    -36.440  0.0000E+00  0.8000E+01
    -36.254  0.0000E+00  0.8000E+01
    -36.067  0.0000E+00  0.8000E+01
    -35.880  0.0000E+00  0.8000E+01
    -35.693  0.0000E+00  0.8000E+01
    -35.506  0.0000E+00  0.8000E+01
    -35.320  0.0000E+00  0.8000E+01
    -35.133  0.0000E+00  0.8000E+01
    -34.946  0.0000E+00  0.8000E+01
    -34.759  0.0000E+00  0.8000E+01
    -34.572  0.0000E+00  0.8000E+01
    -34.386  0.0000E+00  0.8000E+01
    -34.199  0.0000E+00  0.8000E+01
    -34.012  0.0000E+00  0.8000E+01
    -33.825  0.0000E+00  0.8000E+01
    -33.639  0.0000E+00  0.8000E+01
    -33.452  0.0000E+00  0.8000E+01
    -33.265  0.0000E+00  0.8000E+01
    -33.078  0.0000E+00  0.8000E+01
    -32.891  0.0000E+00  0.8000E+01
    -32.705  0.0000E+00  0.8000E+01
    -32.518  0.0000E+00  0.8000E+01
    -32.331  0.0000E+00  0.8000E+01
    -32.144  0.0000E+00  0.8000E+01
    -31.957  0.0000E+00  0.8000E+01
    -31.771  0.0000E+00  0.8000E+01
    -31.584  0.0000E+00  0.8000E+01
    -31.397  0.0000E+00  0.8000E+01
    -31.210  0.0000E+00  0.8000E+01
    -31.023  0.0000E+00  0.8000E+01
    -30.837  0.0000E+00  0.8000E+01
    -30.650  0.0000E+00  0.8000E+01
    -30.463  0.0000E+00  0.8000E+01
    -30.276  0.0000E+00  0.8000E+01
    -30.089  0.0000E+00  0.8000E+01
    -29.903  0.0000E+00  0.8000E+01
    -29.716  0.0000E+00  0.8000E+01
    -29.529  0.0000E+00  0.8000E+01
    -29.342  0.0000E+00  0.8000E+01
    -29.155  0.0000E+00  0.8000E+01
    -28.969  0.0000E+00  0.8000E+01
    -28.782  0.0000E+00  0.8000E+01
    -28.595  0.0000E+00  0.8000E+01
    -28.408  0.0000E+00  0.8000E+01
    -28.222  0.0000E+00  0.8000E+01
    -28.035  0.0000E+00  0.8000E+01
    -27.848  0.0000E+00  0.8000E+01
    -27.661  0.0000E+00  0.8000E+01
    -27.474  0.0000E+00  0.8000E+01
    -27.288  0.0000E+00  0.8000E+01
    -27.101  0.0000E+00  0.8000E+01
    -26.914  0.0000E+00  0.8000E+01
    -26.727  0.0000E+00  0.8000E+01
    -26.540  0.0000E+00  0.8000E+01
    -26.354  0.0000E+00  0.8000E+01
    -26.167  0.0000E+00  0.8000E+01
    -25.980  0.0000E+00  0.8000E+01
    -25.793  0.0000E+00  0.8000E+01
    -25.606  0.0000E+00  0.8000E+01
    -25.420  0.0000E+00  0.8000E+01
    -25.233  0.0000E+00  0.8000E+01
    -25.046  0.0000E+00  0.8000E+01
    -24.859  0.0000E+00  0.8000E+01
    -24.672  0.0000E+00  0.8000E+01
    -24.486  0.0000E+00  0.8000E+01
    -24.299  0.0000E+00  0.8000E+01
    -24.112  0.0000E+00  0.8000E+01
    -23.925  0.0000E+00  0.8000E+01
    -23.738  0.0000E+00  0.8000E+01
    -23.552  0.0000E+00  0.8000E+01
    -23.365  0.0000E+00  0.8000E+01
    -23.178  0.0000E+00  0.8000E+01
    -22.991  0.0000E+00  0.8000E+01
    -22.805  0.0000E+00  0.8000E+01
    -22.618  0.0000E+00  0.8000E+01
    -22.431  0.0000E+00  0.8000E+01
    -22.244  0.0000E+00  0.8000E+01
    -22.057  0.0000E+00  0.8000E+01
    -21.871  0.0000E+00  0.8000E+01
    -21.684  0.0000E+00  0.8000E+01
    -21.497  0.0000E+00  0.8000E+01
    -21.310  0.1713E-07  0.8000E+01
    -21.123  0.5573E+01  0.9041E+01
    -20.937  0.1203E+03  0.3152E+02
    -20.750  0.2586E+01  0.3200E+02
    -20.563  0.0000E+00  0.3200E+02
    -20.376  0.0000E+00  0.3200E+02
    -20.189  0.0000E+00  0.3200E+02
    -20.003  0.0000E+00  0.3200E+02
    -19.816  0.0000E+00  0.3200E+02
    -19.629  0.0000E+00  0.3200E+02
    -19.442  0.0000E+00  0.3200E+02
    -19.255  0.0000E+00  0.3200E+02
    -19.069  0.0000E+00  0.3200E+02
    -18.882  0.0000E+00  0.3200E+02
    -18.695  0.0000E+00  0.3200E+02
    -18.508  0.0000E+00  0.3200E+02
    -18.321  0.0000E+00  0.3200E+02
    -18.135  0.0000E+00  0.3200E+02
    -17.948  0.0000E+00  0.3200E+02
    -17.761  0.0000E+00  0.3200E+02
    -17.574  0.0000E+00  0.3200E+02
    -17.388  0.0000E+00  0.3200E+02
    -17.201  0.0000E+00  0.3200E+02
    -17.014  0.0000E+00  0.3200E+02
    -16.827  0.0000E+00  0.3200E+02
    -16.640  0.0000E+00  0.3200E+02
    -16.454  0.0000E+00  0.3200E+02
    -16.267  0.0000E+00  0.3200E+02
    -16.080  0.0000E+00  0.3200E+02
    -15.893  0.0000E+00  0.3200E+02
    -15.706  0.0000E+00  0.3200E+02
    -15.520  0.0000E+00  0.3200E+02
    -15.333  0.0000E+00  0.3200E+02
    -15.146  0.0000E+00  0.3200E+02
    -14.959  0.0000E+00  0.3200E+02
    -14.772  0.0000E+00  0.3200E+02
    -14.586  0.0000E+00  0.3200E+02
    -14.399  0.0000E+00  0.3200E+02
    -14.212  0.0000E+00  0.3200E+02
    -14.025  0.0000E+00  0.3200E+02
    -13.838  0.0000E+00  0.3200E+02
    -13.652  0.0000E+00  0.3200E+02
    -13.465  0.0000E+00  0.3200E+02
    -13.278  0.0000E+00  0.3200E+02
    -13.091  0.0000E+00  0.3200E+02
    -12.904  0.0000E+00  0.3200E+02
    -12.718  0.0000E+00  0.3200E+02
    -12.531  0.0000E+00  0.3200E+02
    -12.344  0.0000E+00  0.3200E+02
    -12.157  0.0000E+00  0.3200E+02
    -11.971  0.0000E+00  0.3200E+02
    -11.784  0.0000E+00  0.3200E+02
    -11.597  0.0000E+00  0.3200E+02
    -11.410  0.0000E+00  0.3200E+02
    -11.223  0.0000E+00  0.3200E+02
    -11.037  0.0000E+00  0.3200E+02
    -10.850  0.0000E+00  0.3200E+02
    -10.663  0.0000E+00  0.3200E+02
    -10.476  0.0000E+00  0.3200E+02
    -10.289  0.0000E+00  0.3200E+02
    -10.103  0.0000E+00  0.3200E+02
     -9.916  0.0000E+00  0.3200E+02
     -9.729  0.0000E+00  0.3200E+02
     -9.542  0.0000E+00  0.3200E+02
     -9.355  0.0000E+00  0.3200E+02
     -9.169  0.0000E+00  0.3200E+02
     -8.982  0.0000E+00  0.3200E+02
     -8.795  0.0000E+00  0.3200E+02
     -8.608  0.0000E+00  0.3200E+02
     -8.421  0.0000E+00  0.3200E+02
     -8.235  0.0000E+00  0.3200E+02
     -8.048  0.0000E+00  0.3200E+02
     -7.861  0.0000E+00  0.3200E+02
     -7.674  0.0000E+00  0.3200E+02
     -7.487  0.0000E+00  0.3200E+02
     -7.301  0.0000E+00  0.3200E+02
     -7.114  0.0000E+00  0.3200E+02
     -6.927  0.0000E+00  0.3200E+02
     -6.740  0.0000E+00  0.3200E+02
     -6.554  0.0000E+00  0.3200E+02
     -6.367  0.0000E+00  0.3200E+02
     -6.180  0.0000E+00  0.3200E+02
     -5.993  0.0000E+00  0.3200E+02
     -5.806  0.0000E+00  0.3200E+02
     -5.620  0.0000E+00  0.3200E+02
     -5.433  0.0000E+00  0.3200E+02
     -5.246  0.0000E+00  0.3200E+02
     -5.059  0.0000E+00  0.3200E+02
     -4.872  0.0000E+00  0.3200E+02
     -4.686  0.0000E+00  0.3200E+02
     -4.499  0.0000E+00  0.3200E+02
     -4.312  0.0000E+00  0.3200E+02
     -4.125  0.0000E+00  0.3200E+02
     -3.938  0.0000E+00  0.3200E+02
     -3.752  0.0000E+00  0.3200E+02
     -3.565  0.0000E+00  0.3200E+02
     -3.378  0.0000E+00  0.3200E+02
     -3.191  0.0000E+00  0.3200E+02
     -3.004  0.0000E+00  0.3200E+02
     -2.818  0.0000E+00  0.3200E+02
     -2.631  0.0000E+00  0.3200E+02
     -2.444  0.0000E+00  0.3200E+02
     -2.257  0.3177E-09  0.3200E+02
     -2.070  0.8685E-02  0.3200E+02
     -1.884  0.2632E+00  0.3205E+02
     -1.697  0.3793E+00  0.3212E+02
     -1.510  0.9288E+00  0.3230E+02
     -1.323  0.4222E+00  0.3237E+02
     -1.137  0.1205E+01  0.3260E+02
     -0.950  0.8382E+00  0.3276E+02
     -0.763  0.1216E+01  0.3298E+02
     -0.576  0.1351E+01  0.3324E+02
     -0.389  0.1442E+01  0.3350E+02
     -0.203  0.1585E+01  0.3380E+02
     -0.016  0.1182E+01  0.3402E+02
      0.171  0.2255E+01  0.3444E+02
      0.358  0.2317E+01  0.3488E+02
      0.545  0.1763E+01  0.3520E+02
      0.731  0.2596E+01  0.3569E+02
      0.918  0.2382E+01  0.3613E+02
      1.105  0.3375E+01  0.3677E+02
      1.292  0.3343E+01  0.3739E+02
      1.479  0.2699E+01  0.3789E+02
      1.665  0.4513E+01  0.3874E+02
      1.852  0.3340E+01  0.3936E+02
      2.039  0.5838E+01  0.4045E+02
      2.226  0.3544E+01  0.4111E+02
      2.413  0.5563E+01  0.4215E+02
      2.599  0.8388E+01  0.4372E+02
      2.786  0.9979E+01  0.4558E+02
      2.973  0.9673E+01  0.4739E+02
      3.160  0.8298E+01  0.4894E+02
      3.347  0.7169E+01  0.5028E+02
      3.533  0.5711E+01  0.5135E+02
      3.720  0.6353E+01  0.5253E+02
      3.907  0.4397E+01  0.5335E+02
      4.094  0.5409E+01  0.5436E+02
      4.281  0.5046E+01  0.5531E+02
      4.467  0.1029E+02  0.5723E+02
      4.654  0.1021E+02  0.5914E+02
      4.841  0.1199E+02  0.6138E+02
      5.028  0.9386E+01  0.6313E+02
      5.214  0.7220E+01  0.6448E+02
      5.401  0.8551E+01  0.6608E+02
      5.588  0.7852E+01  0.6754E+02
      5.775  0.1013E+02  0.6943E+02
      5.962  0.1489E+02  0.7222E+02
      6.148  0.1621E+02  0.7524E+02
      6.335  0.1171E+02  0.7743E+02
      6.522  0.9436E+01  0.7919E+02
      6.709  0.2044E+01  0.7958E+02
      6.896  0.3979E+01  0.8032E+02
      7.082  0.5720E+01  0.8139E+02
      7.269  0.5066E+01  0.8233E+02
      7.456  0.4652E+01  0.8320E+02
      7.643  0.3925E+01  0.8394E+02
      7.830  0.4322E+01  0.8474E+02
      8.016  0.3832E+01  0.8546E+02
      8.203  0.3125E+01  0.8604E+02
      8.390  0.6370E+01  0.8723E+02
      8.577  0.2346E+01  0.8767E+02
      8.764  0.4968E+01  0.8860E+02
      8.950  0.5815E+01  0.8969E+02
      9.137  0.4556E+01  0.9054E+02
      9.324  0.3921E+01  0.9127E+02
      9.511  0.3197E+01  0.9187E+02
      9.698  0.5482E+01  0.9289E+02
      9.884  0.3157E+01  0.9348E+02
     10.071  0.3506E+01  0.9413E+02
     10.258  0.3959E+01  0.9487E+02
     10.445  0.4022E+00  0.9495E+02
     10.631  0.1822E+01  0.9529E+02
     10.818  0.2854E+01  0.9582E+02
     11.005  0.9506E+00  0.9600E+02
     11.192  0.6597E-04  0.9600E+02
     11.379  0.0000E+00  0.9600E+02
     11.565  0.0000E+00  0.9600E+02
     11.752  0.0000E+00  0.9600E+02
     11.939  0.0000E+00  0.9600E+02
     12.126  0.0000E+00  0.9600E+02
     12.313  0.0000E+00  0.9600E+02
     12.499  0.0000E+00  0.9600E+02
     12.686  0.0000E+00  0.9600E+02
     12.873  0.0000E+00  0.9600E+02
     13.060  0.0000E+00  0.9600E+02
     13.247  0.0000E+00  0.9600E+02
     13.433  0.0000E+00  0.9600E+02
