Ca                                      
           1
     5.525070    0.000000    0.000000
     0.000000    5.525070    0.000000
     0.000000    0.000000    5.525070
   Ca
     4
Direct configuration=     1
   0.00000000  0.00000000  0.00000000
   0.00000000  0.50000000  0.50000000
   0.50000000  0.00000000  0.50000000
   0.50000000  0.50000000  0.00000000
