H                                       
   1.00000000000000     
     4.007590    0.000000    0.000000
    -2.003795    3.470675    0.000000
     0.000000    0.000000    5.003070
   H 
     4
Direct
  0.333333  0.666667  0.174980
  0.666667  0.333333  0.825020
  0.666667  0.333333  0.674980
  0.333333  0.666667  0.325020
 
   36   36   48
 0.48944E-01 0.50625E-01 0.55650E-01 0.64255E-01 0.77368E-01 0.96508E-01 0.12331     0.15913     0.20475     0.25978    
 0.32244     0.39038     0.46187     0.53575     0.60950     0.67771     0.73302     0.76881     0.78114     0.76881    
 0.73302     0.67771     0.60950     0.53575     0.46187     0.39038     0.32244     0.25978     0.20475     0.15913    
 0.12331     0.96508E-01 0.77368E-01 0.64255E-01 0.55650E-01 0.50625E-01 0.50559E-01 0.50590E-01 0.53949E-01 0.60773E-01
 0.71770E-01 0.88226E-01 0.11161     0.14320     0.18397     0.23445     0.29449     0.36282     0.43721     0.51508    
 0.59371     0.66935     0.73591     0.78575     0.81232     0.81253     0.78671     0.73762     0.67030     0.59218    
 0.51135     0.43364     0.36142     0.29525     0.23597     0.18504     0.14355     0.11154     0.88124E-01 0.71779E-01
 0.60805E-01 0.53920E-01 0.55519E-01 0.53883E-01 0.55584E-01 0.60739E-01 0.70027E-01 0.84652E-01 0.10602     0.13533    
 0.17327     0.22023     0.27700     0.34476     0.42384     0.51232     0.60597     0.69929     0.78566     0.85679    
 0.90372     0.91996     0.90383     0.85796     0.78756     0.69989     0.60408     0.50937     0.42227     0.34534    
 0.27857     0.22136     0.17353     0.13510     0.10577     0.84601E-01 0.70090E-01 0.60739E-01 0.64187E-01 0.60771E-01
 0.60808E-01 0.64223E-01 0.71728E-01 0.84582E-01 0.10423     0.13201     0.16879     0.21487     0.27071     0.33823    
 0.42053     0.51928     0.63196     0.75149     0.86812     0.97074      1.0478      1.0889      1.0883      1.0468    
 0.97056     0.86892     0.75273     0.63331     0.52081     0.42194     0.33889     0.27041     0.21408     0.16812    
 0.13168     0.10419     0.84670E-01 0.71782E-01 0.77368E-01 0.71799E-01 0.70159E-01 0.71834E-01 0.77364E-01 0.88139E-01
 0.10571     0.13147     0.16664     0.21231     0.26945     0.33985     0.42711     0.53545     0.66615     0.81413    
 0.96780      1.1118      1.2302      1.3082      1.3352      1.3070      1.2282      1.1101     0.96779     0.81644    
 0.66962     0.53786     0.42711     0.33810     0.26762     0.21147     0.16664     0.13172     0.10590     0.88228E-01
 0.96544E-01 0.88124E-01 0.84616E-01 0.84687E-01 0.88213E-01 0.96525E-01 0.11157     0.13483     0.16733     0.21059    
 0.26714     0.34040     0.43458     0.55444     0.70319     0.87873      1.0708      1.2619      1.4311      1.5582    
  1.6267      1.6268      1.5579      1.4297      1.2600      1.0701     0.87960     0.70411     0.55375     0.43260    
 0.33889     0.26714     0.21147     0.16801     0.13506     0.11164     0.12356     0.11155     0.10564     0.10416    
 0.10597     0.11161     0.12343     0.14376     0.17345     0.21318     0.26593     0.33746     0.43476     0.56438    
 0.73068     0.93291      1.1624      1.4017      1.6273      1.8135      1.9368      1.9805      1.9383      1.8152    
  1.6278      1.4005      1.1604     0.93115     0.72916     0.56315     0.43463     0.33893     0.26788     0.21401    
 0.17314     0.14348     0.15965     0.14379     0.13481     0.13142     0.13195     0.13531     0.14324     0.15940    
 0.18577     0.22222     0.27042     0.33664     0.43040     0.56168     0.73827     0.96207      1.2253      1.5105    
  1.7934      2.0452      2.2354      2.3379      2.3383      2.2371      2.0482      1.7954      1.5097      1.2232    
 0.96093     0.73851     0.56263     0.43211     0.33866     0.27100     0.22084     0.18446     0.20475     0.18553    
 0.17340     0.16736     0.16664     0.16879     0.17319     0.18375     0.20477     0.23688     0.28033     0.34037    
 0.42711     0.55224     0.72727     0.95977      1.2464      1.5700      1.9052      2.2226      2.4879      2.6647    
  2.7254      2.6626      2.4879      2.2253      1.9067      1.5691      1.2464     0.96191     0.72891     0.55221    
 0.42711     0.34046     0.27870     0.23454     0.25805     0.23612     0.22197     0.21321     0.21062     0.21236    
 0.21491     0.21996     0.23365     0.25891     0.29530     0.34683     0.42413     0.53931     0.70407     0.93023    
  1.2227      1.5696      1.9451      2.3189      2.6573      2.9181      3.0586      3.0554      2.9132      2.6568    
  2.3203      1.9442      1.5689      1.2254     0.93288     0.70234     0.53609     0.42361     0.34708     0.29358    
 0.31904     0.29442     0.28027     0.27064     0.26605     0.26718     0.26958     0.27094     0.27693     0.29357    
 0.32074     0.35994     0.42221     0.52228     0.67138     0.88051      1.1605      1.5097      1.9064      2.3192    
  2.7156      3.0550      3.2858      3.3650      3.2807      3.0526      2.7173      2.3186      1.9033      1.5102    
  1.1641     0.87964     0.66622     0.52075     0.42553     0.36135     0.38746     0.35997     0.34767     0.34108    
 0.33690     0.33745     0.34037     0.34008     0.33896     0.34565     0.36285     0.38889     0.43137     0.50789    
 0.63338     0.81738      1.0709      1.4008      1.7951      2.2242      2.6552      3.0517      3.3638      3.5353    
  3.5331      3.3623      3.0556      2.6580      2.2208      1.7919      1.4034      1.0730     0.81356     0.63047    
 0.51228     0.43649     0.46187     0.43285     0.42397     0.42502     0.42711     0.43012     0.43450     0.43431    
 0.42711     0.42143     0.42561     0.43871     0.46187     0.50988     0.60237     0.75187     0.96780      1.2603    
  1.6279      2.0482      2.4879      2.9132      3.2806      3.5330      3.6215      3.5316      3.2841      2.9194    
  2.4879      2.0432      1.6275      1.2644     0.96779     0.74837     0.60421     0.51585     0.53873     0.51203    
 0.50934     0.52233     0.53847     0.55150     0.56140     0.56413     0.55372     0.53459     0.51930     0.51378    
 0.51729     0.53727     0.59219     0.69895     0.86810      1.1098      1.4297      1.8155      2.2382      2.6642    
  3.0562      3.3635      3.5316      3.5294      3.3620      3.0601      2.6671      2.2347      1.8122      1.4326    
  1.1131     0.86587     0.69691     0.59523     0.61303     0.59365     0.60231     0.63189     0.66968     0.70322    
 0.72740     0.73880     0.73080     0.70233     0.66445     0.63047     0.60590     0.59517     0.61127     0.67117    
 0.78749     0.97024      1.2279      1.5576      1.9384      2.3394      2.7271      3.0592      3.2842      3.3609    
  3.2789      3.0569      2.7289      2.3388      1.9350      1.5579      1.2317     0.97049     0.78390     0.67023    
 0.67951     0.67121     0.69749     0.74963     0.81589     0.88049     0.93111     0.96079     0.96307     0.93376    
 0.87871     0.81266     0.74924     0.69777     0.66937     0.67864     0.73839     0.85824      1.0468      1.3067    
  1.6260      1.9796      2.3376      2.6654      2.9194      3.0565      3.0532      2.9145      2.6650      2.3392    
  1.9787      1.6250      1.3088      1.0487     0.85616     0.73575     0.73302     0.73752     0.78579     0.86665    
 0.96780      1.0723      1.1621      1.2233      1.2464      1.2259      1.1639      1.0723     0.96780     0.86666    
 0.78396     0.73505     0.73302     0.78702     0.90416      1.0886      1.3352      1.6258      1.9349      2.2337    
  2.4879      2.6596      2.7190      2.6575      2.4879      2.2364      1.9365      1.6251      1.3352      1.0899    
 0.90396     0.78524     0.76825     0.78624     0.85734     0.97026      1.1113      1.2625      1.4022      1.5094    
  1.5680      1.5684      1.5103      1.4031      1.2642      1.1134     0.97079     0.85589     0.78492     0.76851    
 0.81256     0.92026      1.0896      1.3091      1.5582      1.8120      2.0432      2.2219      2.3198      2.3201    
  2.2235      2.0462      1.8140      1.5576      1.3076      1.0894     0.92052     0.81204     0.78063     0.81226    
 0.90410      1.0477      1.2297      1.4312      1.6281      1.7939      1.9047      1.9434      1.9035      1.7922    
  1.6274      1.4327      1.2320      1.0486     0.90365     0.81201     0.78088     0.81201     0.90365      1.0486    
  1.2320      1.4327      1.6274      1.7922      1.9035      1.9434      1.9047      1.7939      1.6281      1.4312    
  1.2297      1.0477     0.90410     0.81226     0.76825     0.81204     0.92052      1.0894      1.3076      1.5576    
  1.8140      2.0462      2.2235      2.3201      2.3198      2.2219      2.0432      1.8120      1.5582      1.3091    
  1.0896     0.92026     0.81256     0.76851     0.78492     0.85589     0.97079      1.1134      1.2642      1.4031    
  1.5103      1.5684      1.5680      1.5094      1.4022      1.2625      1.1113     0.97026     0.85734     0.78624    
 0.73302     0.78524     0.90396      1.0899      1.3352      1.6251      1.9365      2.2364      2.4879      2.6575    
  2.7190      2.6596      2.4879      2.2337      1.9349      1.6258      1.3352      1.0886     0.90416     0.78702    
 0.73302     0.73505     0.78396     0.86666     0.96780      1.0723      1.1639      1.2259      1.2464      1.2233    
  1.1621      1.0723     0.96780     0.86665     0.78579     0.73752     0.67951     0.73575     0.85616      1.0487    
  1.3088      1.6250      1.9787      2.3392      2.6650      2.9145      3.0532      3.0565      2.9194      2.6654    
  2.3376      1.9796      1.6260      1.3067      1.0468     0.85824     0.73839     0.67864     0.66937     0.69777    
 0.74924     0.81266     0.87871     0.93376     0.96307     0.96079     0.93111     0.88049     0.81589     0.74963    
 0.69749     0.67121     0.61303     0.67023     0.78390     0.97049      1.2317      1.5579      1.9350      2.3388    
  2.7289      3.0569      3.2789      3.3609      3.2842      3.0592      2.7271      2.3394      1.9384      1.5576    
  1.2279     0.97024     0.78749     0.67117     0.61127     0.59517     0.60590     0.63047     0.66445     0.70233    
 0.73080     0.73880     0.72740     0.70322     0.66968     0.63189     0.60231     0.59365     0.53873     0.59523    
 0.69691     0.86587      1.1131      1.4326      1.8122      2.2347      2.6671      3.0601      3.3620      3.5294    
  3.5316      3.3635      3.0562      2.6642      2.2382      1.8155      1.4297      1.1098     0.86810     0.69895    
 0.59219     0.53727     0.51729     0.51378     0.51930     0.53459     0.55372     0.56413     0.56140     0.55150    
 0.53847     0.52233     0.50934     0.51203     0.46187     0.51585     0.60421     0.74837     0.96779      1.2644    
  1.6275      2.0432      2.4879      2.9194      3.2841      3.5316      3.6215      3.5330      3.2806      2.9132    
  2.4879      2.0482      1.6279      1.2603     0.96780     0.75187     0.60237     0.50988     0.46187     0.43871    
 0.42561     0.42143     0.42711     0.43431     0.43450     0.43012     0.42711     0.42502     0.42397     0.43285    
 0.38746     0.43649     0.51228     0.63047     0.81356      1.0730      1.4034      1.7919      2.2208      2.6580    
  3.0556      3.3623      3.5331      3.5353      3.3638      3.0517      2.6552      2.2242      1.7951      1.4008    
  1.0709     0.81738     0.63338     0.50789     0.43137     0.38889     0.36285     0.34565     0.33896     0.34008    
 0.34037     0.33745     0.33690     0.34108     0.34767     0.35997     0.31904     0.36135     0.42553     0.52075    
 0.66622     0.87964      1.1641      1.5102      1.9033      2.3186      2.7173      3.0526      3.2807      3.3650    
  3.2858      3.0550      2.7156      2.3192      1.9064      1.5097      1.1605     0.88051     0.67138     0.52228    
 0.42221     0.35994     0.32074     0.29357     0.27693     0.27094     0.26958     0.26718     0.26605     0.27064    
 0.28027     0.29442     0.25805     0.29358     0.34708     0.42361     0.53609     0.70234     0.93288      1.2254    
  1.5689      1.9442      2.3203      2.6568      2.9132      3.0554      3.0586      2.9181      2.6573      2.3189    
  1.9451      1.5696      1.2227     0.93023     0.70407     0.53931     0.42413     0.34683     0.29530     0.25891    
 0.23365     0.21996     0.21491     0.21236     0.21062     0.21321     0.22197     0.23612     0.20475     0.23454    
 0.27870     0.34046     0.42711     0.55221     0.72891     0.96191      1.2464      1.5691      1.9067      2.2253    
  2.4879      2.6626      2.7254      2.6647      2.4879      2.2226      1.9052      1.5700      1.2464     0.95977    
 0.72727     0.55224     0.42711     0.34037     0.28033     0.23688     0.20477     0.18375     0.17319     0.16879    
 0.16664     0.16736     0.17340     0.18553     0.15965     0.18446     0.22084     0.27100     0.33866     0.43211    
 0.56263     0.73851     0.96093      1.2232      1.5097      1.7954      2.0482      2.2371      2.3383      2.3379    
  2.2354      2.0452      1.7934      1.5105      1.2253     0.96207     0.73827     0.56168     0.43040     0.33664    
 0.27042     0.22222     0.18577     0.15940     0.14324     0.13531     0.13195     0.13142     0.13481     0.14379    
 0.12356     0.14348     0.17314     0.21401     0.26788     0.33893     0.43463     0.56315     0.72916     0.93115    
  1.1604      1.4005      1.6278      1.8152      1.9383      1.9805      1.9368      1.8135      1.6273      1.4017    
  1.1624     0.93291     0.73068     0.56438     0.43476     0.33746     0.26593     0.21318     0.17345     0.14376    
 0.12343     0.11161     0.10597     0.10416     0.10564     0.11155     0.96544E-01 0.11164     0.13506     0.16801    
 0.21147     0.26714     0.33889     0.43260     0.55375     0.70411     0.87960      1.0701      1.2600      1.4297    
  1.5579      1.6268      1.6267      1.5582      1.4311      1.2619      1.0708     0.87873     0.70319     0.55444    
 0.43458     0.34040     0.26714     0.21059     0.16733     0.13483     0.11157     0.96525E-01 0.88213E-01 0.84687E-01
 0.84616E-01 0.88124E-01 0.77368E-01 0.88228E-01 0.10590     0.13172     0.16664     0.21147     0.26762     0.33810    
 0.42711     0.53786     0.66962     0.81644     0.96779      1.1101      1.2282      1.3070      1.3352      1.3082    
  1.2302      1.1118     0.96780     0.81413     0.66615     0.53545     0.42711     0.33985     0.26945     0.21231    
 0.16664     0.13147     0.10571     0.88139E-01 0.77364E-01 0.71834E-01 0.70159E-01 0.71799E-01 0.64187E-01 0.71782E-01
 0.84670E-01 0.10419     0.13168     0.16812     0.21408     0.27041     0.33889     0.42194     0.52081     0.63331    
 0.75273     0.86892     0.97056      1.0468      1.0883      1.0889      1.0478     0.97074     0.86812     0.75149    
 0.63196     0.51928     0.42053     0.33823     0.27071     0.21487     0.16879     0.13201     0.10423     0.84582E-01
 0.71728E-01 0.64223E-01 0.60808E-01 0.60771E-01 0.55519E-01 0.60739E-01 0.70090E-01 0.84601E-01 0.10577     0.13510    
 0.17353     0.22136     0.27857     0.34534     0.42227     0.50937     0.60408     0.69989     0.78756     0.85796    
 0.90383     0.91996     0.90372     0.85679     0.78566     0.69929     0.60597     0.51232     0.42384     0.34476    
 0.27700     0.22023     0.17327     0.13533     0.10602     0.84652E-01 0.70027E-01 0.60739E-01 0.55584E-01 0.53883E-01
 0.50559E-01 0.53920E-01 0.60805E-01 0.71779E-01 0.88124E-01 0.11154     0.14355     0.18504     0.23597     0.29525    
 0.36142     0.43364     0.51135     0.59218     0.67030     0.73762     0.78671     0.81253     0.81232     0.78575    
 0.73591     0.66935     0.59371     0.51508     0.43721     0.36282     0.29449     0.23445     0.18397     0.14320    
 0.11161     0.88226E-01 0.71770E-01 0.60773E-01 0.53949E-01 0.50590E-01 0.49550E-01 0.51243E-01 0.56367E-01 0.65137E-01
 0.78464E-01 0.97901E-01 0.12510     0.16146     0.20791     0.26435     0.32910     0.39975     0.47455     0.55242    
 0.63071     0.70342     0.76244     0.80060     0.81373     0.80056     0.76244     0.70367     0.63126     0.55294    
 0.47455     0.39922     0.32853     0.26409     0.20791     0.16150     0.12514     0.97944E-01 0.78470E-01 0.65101E-01
 0.56356E-01 0.51270E-01 0.51174E-01 0.51185E-01 0.54456E-01 0.60999E-01 0.71352E-01 0.86774E-01 0.10882     0.13883    
 0.17781     0.22639     0.28429     0.34972     0.41978     0.49162     0.56306     0.63124     0.69112     0.73590    
 0.75974     0.75992     0.73681     0.69284     0.63236     0.56172     0.48789     0.41593     0.34803     0.28499    
 0.22802     0.17897     0.13919     0.10877     0.86700E-01 0.71347E-01 0.61008E-01 0.54444E-01 0.56232E-01 0.54709E-01
 0.56287E-01 0.60970E-01 0.69175E-01 0.81933E-01 0.10069     0.12676     0.16090     0.20333     0.25438     0.31442    
 0.38278     0.45689     0.53283     0.60659     0.67393     0.72917     0.76561     0.77820     0.76573     0.73026    
 0.67558     0.60682     0.53063     0.45388     0.38144     0.31540     0.25628     0.20459     0.16114     0.12647    
 0.10041     0.81879E-01 0.69235E-01 0.60974E-01 0.65070E-01 0.62162E-01 0.62204E-01 0.65108E-01 0.71341E-01 0.81884E-01
 0.98069E-01 0.12137     0.15283     0.19246     0.23975     0.29520     0.36056     0.43672     0.52135     0.60898    
 0.69290     0.76609     0.82093     0.85020     0.84972     0.82010     0.76585     0.69335     0.60974     0.52254    
 0.43859     0.36254     0.29621     0.23944     0.19150     0.15203     0.12099     0.98006E-01 0.81971E-01 0.71405E-01
 0.78470E-01 0.74191E-01 0.72949E-01 0.74245E-01 0.78462E-01 0.86711E-01 0.10033     0.12072     0.14930     0.18696    
 0.23349     0.28856     0.35351     0.43123     0.52317     0.62613     0.73218     0.83107     0.91220     0.96576    
 0.98420     0.96468     0.91043     0.82952     0.73216     0.62835     0.52670     0.43382     0.35353     0.28655    
 0.23135     0.18597     0.14930     0.12099     0.10054     0.86824E-01 0.97943E-01 0.92063E-01 0.89729E-01 0.89813E-01
 0.92163E-01 0.97911E-01 0.10878     0.12614     0.15106     0.18488     0.22905     0.28459     0.35256     0.43519    
 0.53518     0.65248     0.78119     0.90976      1.0239      1.1097      1.1561      1.1561      1.1094      1.0226    
 0.90824     0.78080     0.65347     0.53595     0.43411     0.35011     0.28281     0.22908     0.18594     0.15188    
 0.12641     0.10887     0.12536     0.11758     0.11409     0.11337     0.11440     0.11765     0.12528     0.13949    
 0.16106     0.19041     0.22933     0.28112     0.34930     0.43694     0.54666     0.67906     0.82995     0.98866    
  1.1392      1.2638      1.3463      1.3756      1.3476      1.2653      1.1397     0.98775     0.82829     0.67726    
 0.54479     0.43538     0.34917     0.28287     0.23158     0.19141     0.16079     0.13916     0.16199     0.15235    
 0.14752     0.14610     0.14656     0.14795     0.15189     0.16186     0.17989     0.20565     0.23950     0.28487    
 0.34752     0.43363     0.54830     0.69353     0.86537      1.0531      1.2404      1.4074      1.5332      1.6006    
  1.6009      1.5347      1.4100      1.2421      1.0523     0.86330     0.69226     0.54852     0.43496     0.34974    
 0.28706     0.23996     0.20417     0.17852     0.20791     0.19711     0.19125     0.18900     0.18937     0.19018    
 0.19101     0.19551     0.20793     0.22910     0.25837     0.29796     0.35351     0.43231     0.54259     0.69098    
 0.87677      1.0890      1.3100      1.5189      1.6925      1.8068      1.8455      1.8051      1.6925      1.5212    
  1.3111      1.0882     0.87676     0.69307     0.54457     0.43281     0.35353     0.29753     0.25640     0.22682    
 0.26258     0.25174     0.24638     0.24389     0.24429     0.24575     0.24530     0.24460     0.24942     0.26300    
 0.28499     0.31711     0.36510     0.43554     0.53593     0.67619     0.86257      1.0885      1.3350      1.5798    
  1.7992      1.9659      2.0542      2.0515      1.9618      1.7987      1.5810      1.3343      1.0879     0.86517    
 0.67871     0.53444     0.43228     0.36390     0.31685     0.28357     0.32563     0.31604     0.31396     0.31388    
 0.31529     0.31811     0.31835     0.31423     0.31113     0.31503     0.32649     0.34630     0.38140     0.44032    
 0.52879     0.65457     0.82840      1.0522      1.3109      1.5800      1.8355      2.0508      2.1946      2.2426    
  2.1901      2.0488      1.8369      1.5795      1.3083      1.0528     0.83141     0.65353     0.52381     0.43850    
 0.38421     0.34800     0.39677     0.39026     0.39495     0.40248     0.40882     0.41462     0.41714     0.41165    
 0.40092     0.39350     0.39274     0.39755     0.41332     0.45212     0.52257     0.62946     0.78177     0.98809    
  1.2419      1.5203      1.7974      2.0480      2.2415      2.3457      2.3438      2.2402      2.0513      1.7998    
  1.5174      1.2392     0.99026     0.78338     0.62592     0.52012     0.45639     0.41841     0.47455     0.47475    
 0.49030     0.51228     0.53142     0.54551     0.55328     0.54904     0.53142     0.50947     0.49226     0.48027    
 0.47454     0.48614     0.52860     0.60871     0.73217     0.90855      1.1399      1.4100      1.6925      1.9618    
  2.1901      2.3438      2.3965      2.3425      2.1930      1.9671      1.6925      1.4057      1.1395     0.91202    
 0.73216     0.60598     0.53076     0.49177     0.55547     0.56828     0.60023     0.64400     0.68655     0.71932    
 0.73946     0.74175     0.72101     0.68291     0.64134     0.60450     0.57351     0.55466     0.56175     0.60575    
 0.69237     0.82915      1.0226      1.2655      1.5355      1.8065      2.0522      2.2413      2.3425      2.3406    
  2.2400      2.0555      1.8089      1.5325      1.2627      1.0252     0.83203     0.69066     0.60423     0.56435    
 0.63432     0.66619     0.72201     0.79538     0.87236     0.93771     0.98261      1.0009     0.98550     0.93666    
 0.86728     0.79369     0.72514     0.66799     0.63335     0.63342     0.67552     0.76546     0.91017      1.1092    
  1.3477      1.6019      1.8471      2.0548      2.1931      2.2390      2.1886      2.0527      1.8486      1.6014    
  1.3447      1.1095     0.91348     0.76576     0.67240     0.63232     0.70527     0.76047     0.84780     0.95920    
  1.0808      1.1930      1.2788      1.3270      1.3291      1.2813      1.1915      1.0776     0.95821     0.84757    
 0.75886     0.70477     0.69377     0.73059     0.82012     0.96448      1.1555      1.3749      1.6004      1.8075    
  1.9672      2.0520      2.0492      1.9630      1.8071      1.6017      1.3741      1.1547     0.96631     0.82172    
 0.72873     0.69128     0.76244     0.84190     0.96526      1.1221      1.2972      1.4688      1.6127      1.7090    
  1.7443      1.7117      1.6149      1.4692      1.2972      1.1216     0.96312     0.83951     0.76244     0.73716    
 0.76606     0.85000     0.98419      1.1553      1.3446      1.5317      1.6925      1.8012      1.8384      1.7994    
  1.6925      1.5340      1.3460      1.1547     0.98420     0.85109     0.76585     0.73557     0.80004     0.90211    
  1.0610      1.2662      1.5011      1.7419      1.9597      2.1252      2.2150      2.2153      2.1260      1.9609    
  1.7439      1.5032      1.2667      1.0595     0.90077     0.80018     0.75994     0.77847     0.85081     0.96647    
  1.1097      1.2625      1.4057      1.5183      1.5805      1.5808      1.5197      1.4083      1.2642      1.1092    
 0.96521     0.85057     0.77866     0.75949     0.81321     0.93433      1.1239      1.3741      1.6690      1.9842    
  2.2878      2.5431      2.7142      2.7741      2.7127      2.5411      2.2872      1.9860      1.6716      1.3752    
  1.1234     0.93405     0.81347     0.75948     0.76554     0.82165     0.91374      1.0252      1.1393      1.2394    
  1.3085      1.3336      1.3094      1.2408      1.1400      1.0239     0.91168     0.82084     0.76600     0.75970    
 0.79999     0.93410      1.1460      1.4321      1.7796      2.1665      2.5609      2.9210      3.1997      3.3532    
  3.3528      3.1978      2.9175      2.5585      2.1672      1.7813      1.4324      1.1456     0.93472     0.80039    
 0.73522     0.72839     0.76613     0.83242     0.91172     0.98993      1.0529      1.0877      1.0871      1.0520    
 0.98933     0.91049     0.83049     0.76551     0.72984     0.73654     0.76244     0.90105      1.1237      1.4327    
  1.8186      2.2643      2.7428      3.2119      3.6159      3.8946      3.9963      3.8971      3.6159      3.2085    
  2.7408      2.2651      1.8186      1.4312      1.1239     0.90309     0.76244     0.69037     0.67246     0.69165    
 0.73217     0.78241     0.83129     0.86589     0.87677     0.86308     0.82972     0.78300     0.73218     0.69113    
 0.67405     0.69302     0.70551     0.84007      1.0597      1.3752      1.7810      2.2642      2.8061      3.3715    
  3.9022      4.3243      4.5638      4.5676      4.3300      3.9026      3.3697      2.8072      2.2654      1.7785    
  1.3730      1.0621     0.84293     0.70415     0.63127     0.60531     0.60701     0.62479     0.65242     0.67979    
 0.69436     0.69180     0.67691     0.65457     0.62819     0.60674     0.60444     0.63343     0.63487     0.75957    
 0.96305      1.2664      1.6713      2.1669      2.7410      3.3711      4.0065      4.5679      4.9627      5.1095    
  4.9689      4.5707      4.0045      3.3718      2.7450      2.1665      1.6669      1.2662     0.96729     0.76039    
 0.63224     0.56434     0.53277     0.52006     0.52173     0.53448     0.54676     0.54873     0.54271     0.53525    
 0.52734     0.52126     0.52853     0.56302     0.55599     0.66801     0.84683      1.1210      1.5031      1.9859    
  2.5588      3.2099      3.9047      4.5716      5.1109      5.4190      5.4217      5.1129      4.5672      3.9013    
  3.2139      2.5627      1.9825      1.4993      1.1238     0.84955     0.66448     0.55375     0.49349     0.45814    
 0.43681     0.43058     0.43459     0.43671     0.43343     0.43174     0.43483     0.44032     0.45339     0.48808    
 0.47455     0.57228     0.72369     0.95746      1.2972      1.7442      2.2873      2.9175      3.6159      4.3300    
  4.9689      5.4217      5.5888      5.4235      4.9648      4.3226      3.6159      2.9234      2.2877      1.7392    
  1.2972     0.96189     0.72209     0.56571     0.47454     0.42105     0.38430     0.36133     0.35351     0.35232    
 0.34907     0.34728     0.35351     0.36586     0.38291     0.41459     0.39624     0.47832     0.60324     0.79369    
  1.0783      1.4698      1.9612      2.5408      3.1965      3.8950      4.5666      5.1115      5.4235      5.4260    
  5.1130      4.5620      3.8918      3.2006      2.5445      1.9579      1.4671      1.0826     0.79715     0.59846    
 0.47298     0.39849     0.34975     0.31511     0.29574     0.28874     0.28458     0.28108     0.28502     0.29856    
 0.31787     0.34631     0.32504     0.39142     0.49218     0.64261     0.86881      1.1923      1.6150      2.1261    
  2.7124      3.3514      3.9942      4.5632      4.9648      5.1144      4.9709      4.5659      3.9922      3.3521    
  2.7162      2.1256      1.6108      1.1930     0.87440     0.64394     0.48820     0.39023     0.32766     0.28353    
 0.25431     0.23992     0.23361     0.22911     0.22943     0.23966     0.25832     0.28426     0.26231     0.31508    
 0.39474     0.51134     0.68423     0.93671      1.2806      1.7114      2.2160      2.7752      3.3535      3.8937    
  4.3227      4.5660      4.5699      4.3286      3.8943      3.3517      2.7762      2.2170      1.7083      1.2777    
 0.93875     0.68759     0.51121     0.39391     0.31712     0.26364     0.22577     0.20313     0.19251     0.18703    
 0.18496     0.19045     0.20543     0.22845     0.20791     0.25018     0.31265     0.40221     0.53142     0.71971    
 0.98383      1.3280      1.7443      2.2162      2.7165      3.2018      3.6159      3.8993      4.0024      3.9019    
  3.6159      3.1986      2.7147      2.2173      1.7443      1.3257     0.98245     0.72026     0.53142     0.40160    
 0.31402     0.25271     0.20793     0.17762     0.16084     0.15284     0.14930     0.15108     0.16102     0.17969    
 0.16204     0.19607     0.24533     0.31426     0.41038     0.54711     0.74044      1.0005      1.3268      1.7086    
  2.1255      2.5449      2.9233      3.2127      3.3704      3.3700      3.2106      2.9197      2.5425      2.1263    
  1.7110      1.3279      1.0002     0.73980     0.54584     0.40849     0.31359     0.24669     0.19738     0.16165    
 0.13884     0.12672     0.12127     0.12064     0.12612     0.13951     0.12540     0.15206     0.19095     0.24455    
 0.31689     0.41588     0.55343     0.74108     0.98413      1.2785      1.6107      1.9577      2.2876      2.5623    
  2.7449      2.8082      2.7431      2.5602      2.2870      1.9592      1.6130      1.2803     0.98536     0.74205    
 0.55358     0.41463     0.31516     0.24385     0.19131     0.15232     0.12521     0.10884     0.10063     0.97977E-01
 0.10027     0.10878     0.97974E-01 0.11771     0.14773     0.18954     0.24504     0.31812     0.41587     0.54774    
 0.72156     0.93882      1.1923      1.4664      1.7390      1.9824      2.1669      2.2663      2.2662      2.1672    
  1.9842      1.7414      1.4675      1.1915     0.93770     0.72190     0.54937     0.41714     0.31809     0.24429    
 0.18896     0.14754     0.11764     0.97960E-01 0.86813E-01 0.81987E-01 0.81922E-01 0.86728E-01 0.78464E-01 0.92186E-01