H                                       
   1.00000000000000     
     4.007590    0.000000    0.000000
    -2.003795    3.470675    0.000000
     0.000000    0.000000    5.003070
   H 
     4
Direct
  0.333333  0.666667  0.174980
  0.666667  0.333333  0.825020
  0.666667  0.333333  0.674980
  0.333333  0.666667  0.325020
 
   36   36   48
 0.48943641658E-01 0.50625489265E-01 0.55650108431E-01 0.64255391678E-01 0.77367938300E-01
 0.96507716379E-01 0.12330572640E+00 0.15912969007E+00 0.20474833551E+00 0.25977878314E+00
 0.32244301585E+00 0.39037929384E+00 0.46187485325E+00 0.53575308173E+00 0.60949976591E+00
 0.67771246370E+00 0.73302157386E+00 0.76881038825E+00 0.78113831941E+00 0.76881038825E+00
 0.73302157386E+00 0.67771246370E+00 0.60949976591E+00 0.53575308173E+00 0.46187485325E+00
 0.39037929384E+00 0.32244301585E+00 0.25977878314E+00 0.20474833551E+00 0.15912969007E+00
 0.12330572640E+00 0.96507716379E-01 0.77367938300E-01 0.64255391677E-01 0.55650108431E-01
 0.50625489265E-01 0.50559384592E-01 0.50590203762E-01 0.53949166039E-01 0.60773499824E-01
 0.71770284692E-01 0.88226412621E-01 0.11161147842E+00 0.14320431092E+00 0.18396621573E+00
 0.23444961246E+00 0.29448605748E+00 0.36282034961E+00 0.43721292477E+00 0.51507636632E+00
 0.59371460142E+00 0.66934697715E+00 0.73591368482E+00 0.78575042490E+00 0.81232135902E+00
 0.81252574574E+00 0.78670701760E+00 0.73761555273E+00 0.67029607593E+00 0.59217866263E+00
 0.51135354154E+00 0.43364140158E+00 0.36142006621E+00 0.29524857355E+00 0.23597191610E+00
 0.18504489496E+00 0.14354977599E+00 0.11154082788E+00 0.88124372331E-01 0.71779414890E-01
 0.60805219718E-01 0.53919910883E-01 0.55518909620E-01 0.53883061366E-01 0.55584104821E-01
 0.60739233770E-01 0.70027378881E-01 0.84652455773E-01 0.10602425343E+00 0.13533290774E+00
 0.17326667658E+00 0.22023391407E+00 0.27700352251E+00 0.34475699126E+00 0.42384101119E+00
 0.51231830375E+00 0.60596630499E+00 0.69928619078E+00 0.78565971725E+00 0.85678706739E+00
 0.90371858474E+00 0.91996094401E+00 0.90383134832E+00 0.85795751373E+00 0.78756075727E+00
 0.69988905672E+00 0.60407786774E+00 0.50936812356E+00 0.42226656197E+00 0.34534285042E+00
 0.27856729560E+00 0.22135787043E+00 0.17352669553E+00 0.13509533217E+00 0.10577026062E+00
 0.84600788908E-01 0.70090469832E-01 0.60739115046E-01 0.64186619537E-01 0.60770832356E-01
 0.60808005911E-01 0.64223310597E-01 0.71727834339E-01 0.84582154595E-01 0.10422938242E+00
 0.13200597802E+00 0.16879197821E+00 0.21487054955E+00 0.27071132608E+00 0.33822889378E+00
 0.42052834188E+00 0.51928479387E+00 0.63195616450E+00 0.75149471335E+00 0.86811698882E+00
 0.97074390884E+00 0.10477549195E+01 0.10888660783E+01 0.10883130277E+01 0.10468043249E+01
 0.97055956294E+00 0.86892275814E+00 0.75272851340E+00 0.63331233227E+00 0.52081490582E+00
 0.42194165437E+00 0.33888845759E+00 0.27040510762E+00 0.21407968228E+00 0.16811882325E+00
 0.13168358150E+00 0.10419055720E+00 0.84669561048E-01 0.71782082358E-01 0.77367938300E-01
 0.71799060149E-01 0.70158577691E-01 0.71833935695E-01 0.77363522458E-01 0.88139041941E-01
 0.10571355381E+00 0.13146549092E+00 0.16664479505E+00 0.21231374235E+00 0.26944600233E+00
 0.33984835966E+00 0.42710643043E+00 0.53545324705E+00 0.66615119182E+00 0.81412621513E+00
 0.96780462583E+00 0.11118457672E+01 0.12301835348E+01 0.13082130089E+01 0.13351601237E+01
 0.13070120725E+01 0.12281752970E+01 0.11101086263E+01 0.96778778990E+00 0.81643537486E+00
 0.66961682126E+00 0.53785587183E+00 0.42711390875E+00 0.33809768176E+00 0.26762254906E+00
 0.21146766056E+00 0.16663986573E+00 0.13171502442E+00 0.10590145943E+00 0.88227806219E-01
 0.96543845761E-01 0.88124178566E-01 0.84616326391E-01 0.84687056118E-01 0.88212500538E-01
 0.96524952817E-01 0.11156890851E+00 0.13482544615E+00 0.16732747863E+00 0.21058759258E+00
 0.26714021477E+00 0.34039827440E+00 0.43458430169E+00 0.55444082027E+00 0.70318880235E+00
 0.87872529470E+00 0.10708199061E+01 0.12619467677E+01 0.14311472808E+01 0.15581963937E+01
 0.16266915049E+01 0.16267838349E+01 0.15578733010E+01 0.14296811700E+01 0.12600375697E+01
 0.10700933619E+01 0.87960055867E+00 0.70411090668E+00 0.55375303141E+00 0.43259600473E+00
 0.33889085012E+00 0.26714300611E+00 0.21146646073E+00 0.16801392173E+00 0.13505920279E+00
 0.11164306194E+00 0.12356220675E+00 0.11154537375E+00 0.10563657427E+00 0.10416061028E+00
 0.10597003417E+00 0.11160503789E+00 0.12342864128E+00 0.14376331934E+00 0.17345085624E+00
 0.21317899256E+00 0.26592827496E+00 0.33745520537E+00 0.43475696306E+00 0.56438372937E+00
 0.73067702476E+00 0.93291107577E+00 0.11623540688E+01 0.14016656918E+01 0.16272838591E+01
 0.18134597001E+01 0.19367700316E+01 0.19805374756E+01 0.19382681395E+01 0.18152200994E+01
 0.16277991743E+01 0.14004996657E+01 0.11604091917E+01 0.93114507332E+00 0.72916209342E+00
 0.56314798126E+00 0.43462541282E+00 0.33892697950E+00 0.26787902941E+00 0.21401091014E+00
 0.17313901637E+00 0.14348367132E+00 0.15965181558E+00 0.14379254110E+00 0.13481078223E+00
 0.13141508037E+00 0.13195028721E+00 0.13531144228E+00 0.14324119383E+00 0.15940247442E+00
 0.18577209340E+00 0.22221913033E+00 0.27042070191E+00 0.33664202236E+00 0.43040164347E+00
 0.56167621647E+00 0.73827312382E+00 0.96206632407E+00 0.12253104819E+01 0.15105180665E+01
 0.17933685291E+01 0.20451568183E+01 0.22354020479E+01 0.23379064207E+01 0.23382840653E+01
 0.22371375903E+01 0.20481702064E+01 0.17953524645E+01 0.15097273207E+01 0.12231602459E+01
 0.96093064626E+00 0.73851416006E+00 0.56262585575E+00 0.43211000860E+00 0.33865713649E+00
 0.27099600527E+00 0.22083574492E+00 0.18445666478E+00 0.20474833551E+00 0.18553436682E+00
 0.17339787539E+00 0.16735870392E+00 0.16664479505E+00 0.16879339567E+00 0.17319437589E+00
 0.18374792147E+00 0.20476821985E+00 0.23688188800E+00 0.28032720631E+00 0.34037008143E+00
 0.42710896705E+00 0.55224396781E+00 0.72726722067E+00 0.95976599625E+00 0.12463744495E+01
 0.15700392284E+01 0.19052315255E+01 0.22225843849E+01 0.24879375706E+01 0.26646732349E+01
 0.27253789521E+01 0.26625831565E+01 0.24879386333E+01 0.22252620828E+01 0.19066678663E+01
 0.15691185155E+01 0.12463735883E+01 0.96191056717E+00 0.72890561307E+00 0.55221485560E+00
 0.42711390875E+00 0.34045927616E+00 0.27869849441E+00 0.23453597435E+00 0.25804596936E+00
 0.23611632156E+00 0.22196672785E+00 0.21320650791E+00 0.21061825779E+00 0.21235653574E+00
 0.21491180634E+00 0.21996419105E+00 0.23364702780E+00 0.25890800909E+00 0.29530256350E+00
 0.34682834357E+00 0.42412819230E+00 0.53930805010E+00 0.70406539436E+00 0.93023141140E+00
 0.12226583338E+01 0.15696058863E+01 0.19450994465E+01 0.23188921998E+01 0.26572844346E+01
 0.29180770861E+01 0.30585901325E+01 0.30553705304E+01 0.29132383609E+01 0.26567966075E+01
 0.23203443743E+01 0.19442216605E+01 0.15688877481E+01 0.12254151852E+01 0.93287788709E+00
 0.70234196352E+00 0.53608572884E+00 0.42360569600E+00 0.34707566420E+00 0.29358186444E+00
 0.31904416476E+00 0.29441995281E+00 0.28027117478E+00 0.27064255394E+00 0.26604715124E+00
 0.26717634415E+00 0.26958360640E+00 0.27094282742E+00 0.27692835523E+00 0.29356974972E+00
 0.32073541720E+00 0.35993658674E+00 0.42221441192E+00 0.52227804276E+00 0.67137918199E+00
 0.88051415400E+00 0.11605363346E+01 0.15097116787E+01 0.19064123113E+01 0.23191957314E+01
 0.27155707781E+01 0.30549895612E+01 0.32858482162E+01 0.33650080570E+01 0.32806861469E+01
 0.30526352862E+01 0.27172753428E+01 0.23186115605E+01 0.19032690153E+01 0.15102494463E+01
 0.11640645231E+01 0.87963668805E+00 0.66621797017E+00 0.52074613368E+00 0.42553421425E+00
 0.36135396154E+00 0.38746432598E+00 0.35997148643E+00 0.34767195912E+00 0.34107508949E+00
 0.33689606259E+00 0.33744717716E+00 0.34037017323E+00 0.34007911573E+00 0.33895716000E+00
 0.34564618949E+00 0.36285155460E+00 0.38888849947E+00 0.43136610284E+00 0.50788621238E+00
 0.63338157451E+00 0.81737963878E+00 0.10708794402E+01 0.14007638005E+01 0.17950793347E+01
 0.22242254057E+01 0.26551580975E+01 0.30517389779E+01 0.33637782914E+01 0.35352690982E+01
 0.35330716283E+01 0.33623108044E+01 0.30555502540E+01 0.26579787616E+01 0.22208450685E+01
 0.17919153711E+01 0.14034146336E+01 0.10730444591E+01 0.81355773622E+00 0.63046613656E+00
 0.51228309142E+00 0.43649026476E+00 0.46187485325E+00 0.43285221149E+00 0.42397221000E+00
 0.42502393197E+00 0.42710643043E+00 0.43012135436E+00 0.43450048271E+00 0.43430633591E+00
 0.42710896706E+00 0.42143418812E+00 0.42561326301E+00 0.43870788866E+00 0.46187046602E+00
 0.50988476212E+00 0.60237089701E+00 0.75186585117E+00 0.96779761701E+00 0.12603029684E+01
 0.16279229719E+01 0.20481830359E+01 0.24879398640E+01 0.29132090855E+01 0.32806229537E+01
 0.35330376816E+01 0.36214893612E+01 0.35315597782E+01 0.32840849980E+01 0.29193979926E+01
 0.24879386333E+01 0.20432212629E+01 0.16275426940E+01 0.12644282583E+01 0.96778778990E+00
 0.74837046759E+00 0.60420906655E+00 0.51584646417E+00 0.53873361334E+00 0.51202973004E+00
 0.50933777215E+00 0.52233409762E+00 0.53847110787E+00 0.55149641804E+00 0.56140319776E+00
 0.56413462256E+00 0.55372245300E+00 0.53459470472E+00 0.51929751116E+00 0.51378171184E+00
 0.51729211168E+00 0.53726502623E+00 0.59219034766E+00 0.69894869128E+00 0.86810331065E+00
 0.11098259886E+01 0.14296818362E+01 0.18155046039E+01 0.22381682212E+01 0.26642368867E+01
 0.30562340896E+01 0.33635066831E+01 0.35315913952E+01 0.35293735987E+01 0.33620275254E+01
 0.30600838758E+01 0.26670657345E+01 0.22346791842E+01 0.18122395678E+01 0.14326255722E+01
 0.11130518286E+01 0.86587345440E+00 0.69690852512E+00 0.59522529891E+00 0.61302833798E+00
 0.59364849675E+00 0.60230653411E+00 0.63188739236E+00 0.66967976389E+00 0.70322493174E+00
 0.72740493305E+00 0.73879524933E+00 0.73079579273E+00 0.70233258058E+00 0.66445175884E+00
 0.63046660665E+00 0.60589946908E+00 0.59517087927E+00 0.61126908886E+00 0.67116964023E+00
 0.78749356674E+00 0.97023728201E+00 0.12279130731E+01 0.15576152165E+01 0.19384019438E+01
 0.23394465158E+01 0.27271414295E+01 0.30592146212E+01 0.32841515258E+01 0.33608633236E+01
 0.32789207931E+01 0.30568573187E+01 0.27289075242E+01 0.23388061908E+01 0.19349960477E+01
 0.15579094304E+01 0.12317038691E+01 0.97049079080E+00 0.78390098639E+00 0.67022997126E+00
 0.67951257178E+00 0.67121318990E+00 0.69748608270E+00 0.74962583312E+00 0.81588899399E+00
 0.88048927340E+00 0.93111096769E+00 0.96078834150E+00 0.96306815076E+00 0.93376433326E+00
 0.87871404592E+00 0.81266456284E+00 0.74923914130E+00 0.69776826776E+00 0.66936953215E+00
 0.67863824107E+00 0.73838514527E+00 0.85824158508E+00 0.10468175043E+01 0.13067337643E+01
 0.16260315652E+01 0.19796414279E+01 0.23376464078E+01 0.26654173103E+01 0.29194360115E+01
 0.30564540538E+01 0.30531894532E+01 0.29145441642E+01 0.26649712966E+01 0.23391844033E+01
 0.19787373675E+01 0.16250198562E+01 0.13088495098E+01 0.10486732051E+01 0.85615740564E+00
 0.73574933998E+00 0.73302157386E+00 0.73751660544E+00 0.78579091606E+00 0.86664894500E+00
 0.96780462583E+00 0.10723205927E+01 0.11620975885E+01 0.12232515404E+01 0.12463744495E+01
 0.12259279635E+01 0.11639351857E+01 0.10722575921E+01 0.96779761701E+00 0.86665959499E+00
 0.78396499467E+00 0.73504822123E+00 0.73301879203E+00 0.78701780355E+00 0.90415788360E+00
 0.10886322544E+01 0.13351605095E+01 0.16257682731E+01 0.19348733717E+01 0.22336508736E+01
 0.24879398640E+01 0.26596098813E+01 0.27189696292E+01 0.26574804324E+01 0.24879375706E+01
 0.22364167383E+01 0.19365135512E+01 0.16251185596E+01 0.13351601237E+01 0.10899186158E+01
 0.90396254713E+00 0.78523630632E+00 0.76825415212E+00 0.78624055636E+00 0.85734330352E+00
 0.97025644485E+00 0.11113268603E+01 0.12625391332E+01 0.14022219279E+01 0.15094397049E+01
 0.15679809458E+01 0.15684293086E+01 0.15102679148E+01 0.14031225322E+01 0.12641735502E+01
 0.11133627563E+01 0.97079351815E+00 0.85588524087E+00 0.78492475146E+00 0.76851158059E+00
 0.81256491827E+00 0.92026181503E+00 0.10896128342E+01 0.13090901085E+01 0.15581714526E+01
 0.18119678362E+01 0.20431999818E+01 0.22218666740E+01 0.23197519676E+01 0.23200687775E+01
 0.22235301952E+01 0.20462351799E+01 0.18140159362E+01 0.15576040282E+01 0.13076194436E+01
 0.10893535423E+01 0.92051718014E+00 0.81203561428E+00 0.78062831438E+00 0.81225525435E+00
 0.90409739096E+00 0.10476861473E+01 0.12296735298E+01 0.14311834101E+01 0.16280503444E+01
 0.17938906546E+01 0.19047215205E+01 0.19433666328E+01 0.19035234652E+01 0.17921643669E+01
 0.16274129668E+01 0.14326623678E+01 0.12319516502E+01 0.10486176123E+01 0.90364787857E+00
 0.81200868214E+00 0.78088444941E+00 0.81200868214E+00 0.90364787857E+00 0.10486176123E+01
 0.12319516502E+01 0.14326623678E+01 0.16274129668E+01 0.17921643669E+01 0.19035234652E+01
 0.19433666328E+01 0.19047215205E+01 0.17938906546E+01 0.16280503444E+01 0.14311834101E+01
 0.12296735298E+01 0.10476861473E+01 0.90409739096E+00 0.81225525435E+00 0.76825415212E+00
 0.81203561428E+00 0.92051718014E+00 0.10893535423E+01 0.13076194436E+01 0.15576040282E+01
 0.18140159362E+01 0.20462351799E+01 0.22235301952E+01 0.23200687775E+01 0.23197519676E+01
 0.22218666740E+01 0.20431999818E+01 0.18119678362E+01 0.15581714526E+01 0.13090901085E+01
 0.10896128342E+01 0.92026181503E+00 0.81256491827E+00 0.76851158059E+00 0.78492475146E+00
 0.85588524087E+00 0.97079351815E+00 0.11133627563E+01 0.12641735502E+01 0.14031225322E+01
 0.15102679148E+01 0.15684293086E+01 0.15679809458E+01 0.15094397049E+01 0.14022219279E+01
 0.12625391332E+01 0.11113268603E+01 0.97025644485E+00 0.85734330352E+00 0.78624055636E+00
 0.73302157386E+00 0.78523630632E+00 0.90396254713E+00 0.10899186158E+01 0.13351601237E+01
 0.16251185596E+01 0.19365135512E+01 0.22364167383E+01 0.24879375706E+01 0.26574804324E+01
 0.27189696292E+01 0.26596098813E+01 0.24879398640E+01 0.22336508736E+01 0.19348733717E+01
 0.16257682731E+01 0.13351605095E+01 0.10886322544E+01 0.90415788360E+00 0.78701780355E+00
 0.73301879203E+00 0.73504822123E+00 0.78396499467E+00 0.86665959499E+00 0.96779761701E+00
 0.10722575921E+01 0.11639351857E+01 0.12259279635E+01 0.12463744495E+01 0.12232515404E+01
 0.11620975885E+01 0.10723205927E+01 0.96780462583E+00 0.86664894501E+00 0.78579091606E+00
 0.73751660544E+00 0.67951257179E+00 0.73574933998E+00 0.85615740564E+00 0.10486732051E+01
 0.13088495098E+01 0.16250198562E+01 0.19787373675E+01 0.23391844033E+01 0.26649712966E+01
 0.29145441642E+01 0.30531894532E+01 0.30564540538E+01 0.29194360115E+01 0.26654173103E+01
 0.23376464078E+01 0.19796414279E+01 0.16260315652E+01 0.13067337643E+01 0.10468175043E+01
 0.85824158508E+00 0.73838514527E+00 0.67863824107E+00 0.66936953215E+00 0.69776826776E+00
 0.74923914130E+00 0.81266456284E+00 0.87871404592E+00 0.93376433326E+00 0.96306815076E+00
 0.96078834150E+00 0.93111096769E+00 0.88048927340E+00 0.81588899399E+00 0.74962583312E+00
 0.69748608270E+00 0.67121318990E+00 0.61302833798E+00 0.67022997126E+00 0.78390098639E+00
 0.97049079080E+00 0.12317038691E+01 0.15579094304E+01 0.19349960477E+01 0.23388061908E+01
 0.27289075242E+01 0.30568573187E+01 0.32789207931E+01 0.33608633236E+01 0.32841515258E+01
 0.30592146212E+01 0.27271414295E+01 0.23394465158E+01 0.19384019438E+01 0.15576152165E+01
 0.12279130731E+01 0.97023728201E+00 0.78749356674E+00 0.67116964023E+00 0.61126908886E+00
 0.59517087927E+00 0.60589946908E+00 0.63046660665E+00 0.66445175884E+00 0.70233258058E+00
 0.73079579273E+00 0.73879524933E+00 0.72740493305E+00 0.70322493174E+00 0.66967976389E+00
 0.63188739236E+00 0.60230653411E+00 0.59364849675E+00 0.53873361334E+00 0.59522529891E+00
 0.69690852512E+00 0.86587345440E+00 0.11130518286E+01 0.14326255722E+01 0.18122395678E+01
 0.22346791842E+01 0.26670657345E+01 0.30600838758E+01 0.33620275254E+01 0.35293735987E+01
 0.35315913952E+01 0.33635066831E+01 0.30562340896E+01 0.26642368867E+01 0.22381682212E+01
 0.18155046039E+01 0.14296818362E+01 0.11098259886E+01 0.86810331064E+00 0.69894869128E+00
 0.59219034766E+00 0.53726502623E+00 0.51729211168E+00 0.51378171184E+00 0.51929751116E+00
 0.53459470472E+00 0.55372245300E+00 0.56413462256E+00 0.56140319776E+00 0.55149641804E+00
 0.53847110787E+00 0.52233409762E+00 0.50933777215E+00 0.51202973004E+00 0.46187485325E+00
 0.51584646417E+00 0.60420906655E+00 0.74837046759E+00 0.96778778990E+00 0.12644282583E+01
 0.16275426940E+01 0.20432212629E+01 0.24879386333E+01 0.29193979926E+01 0.32840849980E+01
 0.35315597782E+01 0.36214893612E+01 0.35330376816E+01 0.32806229537E+01 0.29132090855E+01
 0.24879398640E+01 0.20481830359E+01 0.16279229719E+01 0.12603029684E+01 0.96779761701E+00
 0.75186585117E+00 0.60237089701E+00 0.50988476212E+00 0.46187046602E+00 0.43870788866E+00
 0.42561326301E+00 0.42143418812E+00 0.42710896705E+00 0.43430633591E+00 0.43450048271E+00
 0.43012135435E+00 0.42710643043E+00 0.42502393197E+00 0.42397221000E+00 0.43285221149E+00
 0.38746432598E+00 0.43649026476E+00 0.51228309142E+00 0.63046613656E+00 0.81355773622E+00
 0.10730444591E+01 0.14034146336E+01 0.17919153711E+01 0.22208450685E+01 0.26579787616E+01
 0.30555502540E+01 0.33623108044E+01 0.35330716283E+01 0.35352690982E+01 0.33637782914E+01
 0.30517389779E+01 0.26551580975E+01 0.22242254057E+01 0.17950793347E+01 0.14007638005E+01
 0.10708794402E+01 0.81737963878E+00 0.63338157451E+00 0.50788621238E+00 0.43136610284E+00
 0.38888849947E+00 0.36285155460E+00 0.34564618949E+00 0.33895716000E+00 0.34007911573E+00
 0.34037017323E+00 0.33744717716E+00 0.33689606259E+00 0.34107508949E+00 0.34767195912E+00
 0.35997148643E+00 0.31904416476E+00 0.36135396154E+00 0.42553421425E+00 0.52074613368E+00
 0.66621797017E+00 0.87963668805E+00 0.11640645231E+01 0.15102494463E+01 0.19032690153E+01
 0.23186115605E+01 0.27172753428E+01 0.30526352862E+01 0.32806861469E+01 0.33650080570E+01
 0.32858482162E+01 0.30549895612E+01 0.27155707781E+01 0.23191957314E+01 0.19064123113E+01
 0.15097116787E+01 0.11605363346E+01 0.88051415400E+00 0.67137918199E+00 0.52227804276E+00
 0.42221441192E+00 0.35993658674E+00 0.32073541720E+00 0.29356974972E+00 0.27692835523E+00
 0.27094282742E+00 0.26958360639E+00 0.26717634415E+00 0.26604715124E+00 0.27064255394E+00
 0.28027117478E+00 0.29441995280E+00 0.25804596936E+00 0.29358186444E+00 0.34707566420E+00
 0.42360569600E+00 0.53608572884E+00 0.70234196352E+00 0.93287788709E+00 0.12254151852E+01
 0.15688877481E+01 0.19442216605E+01 0.23203443743E+01 0.26567966075E+01 0.29132383609E+01
 0.30553705304E+01 0.30585901325E+01 0.29180770861E+01 0.26572844346E+01 0.23188921998E+01
 0.19450994465E+01 0.15696058863E+01 0.12226583338E+01 0.93023141140E+00 0.70406539436E+00
 0.53930805010E+00 0.42412819230E+00 0.34682834357E+00 0.29530256350E+00 0.25890800909E+00
 0.23364702780E+00 0.21996419104E+00 0.21491180634E+00 0.21235653574E+00 0.21061825779E+00
 0.21320650791E+00 0.22196672785E+00 0.23611632156E+00 0.20474833551E+00 0.23453597435E+00
 0.27869849441E+00 0.34045927616E+00 0.42711390875E+00 0.55221485560E+00 0.72890561307E+00
 0.96191056717E+00 0.12463735883E+01 0.15691185155E+01 0.19066678663E+01 0.22252620828E+01
 0.24879386333E+01 0.26625831565E+01 0.27253789521E+01 0.26646732349E+01 0.24879375706E+01
 0.22225843849E+01 0.19052315255E+01 0.15700392284E+01 0.12463744495E+01 0.95976599625E+00
 0.72726722067E+00 0.55224396782E+00 0.42710896706E+00 0.34037008143E+00 0.28032720631E+00
 0.23688188800E+00 0.20476821985E+00 0.18374792147E+00 0.17319437589E+00 0.16879339567E+00
 0.16664479505E+00 0.16735870392E+00 0.17339787539E+00 0.18553436682E+00 0.15965181558E+00
 0.18445666478E+00 0.22083574492E+00 0.27099600527E+00 0.33865713649E+00 0.43211000860E+00
 0.56262585575E+00 0.73851416006E+00 0.96093064626E+00 0.12231602459E+01 0.15097273207E+01
 0.17953524645E+01 0.20481702064E+01 0.22371375903E+01 0.23382840653E+01 0.23379064207E+01
 0.22354020479E+01 0.20451568183E+01 0.17933685291E+01 0.15105180665E+01 0.12253104819E+01
 0.96206632407E+00 0.73827312382E+00 0.56167621647E+00 0.43040164347E+00 0.33664202236E+00
 0.27042070191E+00 0.22221913033E+00 0.18577209340E+00 0.15940247442E+00 0.14324119383E+00
 0.13531144228E+00 0.13195028721E+00 0.13141508036E+00 0.13481078223E+00 0.14379254110E+00
 0.12356220675E+00 0.14348367132E+00 0.17313901637E+00 0.21401091014E+00 0.26787902941E+00
 0.33892697950E+00 0.43462541282E+00 0.56314798126E+00 0.72916209342E+00 0.93114507332E+00
 0.11604091917E+01 0.14004996657E+01 0.16277991743E+01 0.18152200994E+01 0.19382681395E+01
 0.19805374756E+01 0.19367700316E+01 0.18134597001E+01 0.16272838591E+01 0.14016656918E+01
 0.11623540688E+01 0.93291107577E+00 0.73067702477E+00 0.56438372937E+00 0.43475696306E+00
 0.33745520537E+00 0.26592827496E+00 0.21317899256E+00 0.17345085624E+00 0.14376331934E+00
 0.12342864128E+00 0.11160503789E+00 0.10597003417E+00 0.10416061028E+00 0.10563657427E+00
 0.11154537375E+00 0.96543845761E-01 0.11164306194E+00 0.13505920279E+00 0.16801392173E+00
 0.21146646073E+00 0.26714300611E+00 0.33889085012E+00 0.43259600472E+00 0.55375303141E+00
 0.70411090668E+00 0.87960055867E+00 0.10700933619E+01 0.12600375697E+01 0.14296811700E+01
 0.15578733010E+01 0.16267838349E+01 0.16266915049E+01 0.15581963937E+01 0.14311472808E+01
 0.12619467677E+01 0.10708199061E+01 0.87872529470E+00 0.70318880236E+00 0.55444082027E+00
 0.43458430169E+00 0.34039827440E+00 0.26714021477E+00 0.21058759258E+00 0.16732747863E+00
 0.13482544615E+00 0.11156890851E+00 0.96524952817E-01 0.88212500538E-01 0.84687056118E-01
 0.84616326391E-01 0.88124178566E-01 0.77367938300E-01 0.88227806219E-01 0.10590145943E+00
 0.13171502442E+00 0.16663986573E+00 0.21146766056E+00 0.26762254906E+00 0.33809768176E+00
 0.42711390875E+00 0.53785587183E+00 0.66961682126E+00 0.81643537486E+00 0.96778778990E+00
 0.11101086263E+01 0.12281752970E+01 0.13070120725E+01 0.13351601237E+01 0.13082130089E+01
 0.12301835348E+01 0.11118457672E+01 0.96780462583E+00 0.81412621513E+00 0.66615119183E+00
 0.53545324705E+00 0.42710643043E+00 0.33984835966E+00 0.26944600233E+00 0.21231374235E+00
 0.16664479505E+00 0.13146549092E+00 0.10571355382E+00 0.88139041941E-01 0.77363522458E-01
 0.71833935695E-01 0.70158577691E-01 0.71799060149E-01 0.64186619537E-01 0.71782082358E-01
 0.84669561048E-01 0.10419055720E+00 0.13168358150E+00 0.16811882325E+00 0.21407968228E+00
 0.27040510762E+00 0.33888845759E+00 0.42194165437E+00 0.52081490582E+00 0.63331233227E+00
 0.75272851341E+00 0.86892275814E+00 0.97055956294E+00 0.10468043249E+01 0.10883130277E+01
 0.10888660783E+01 0.10477549195E+01 0.97074390884E+00 0.86811698882E+00 0.75149471334E+00
 0.63195616450E+00 0.51928479387E+00 0.42052834188E+00 0.33822889378E+00 0.27071132608E+00
 0.21487054955E+00 0.16879197821E+00 0.13200597802E+00 0.10422938242E+00 0.84582154595E-01
 0.71727834339E-01 0.64223310597E-01 0.60808005911E-01 0.60770832356E-01 0.55518909620E-01
 0.60739115046E-01 0.70090469832E-01 0.84600788908E-01 0.10577026062E+00 0.13509533217E+00
 0.17352669553E+00 0.22135787043E+00 0.27856729560E+00 0.34534285042E+00 0.42226656197E+00
 0.50936812356E+00 0.60407786774E+00 0.69988905672E+00 0.78756075727E+00 0.85795751373E+00
 0.90383134832E+00 0.91996094401E+00 0.90371858474E+00 0.85678706739E+00 0.78565971725E+00
 0.69928619078E+00 0.60596630499E+00 0.51231830375E+00 0.42384101119E+00 0.34475699126E+00
 0.27700352251E+00 0.22023391407E+00 0.17326667658E+00 0.13533290774E+00 0.10602425343E+00
 0.84652455773E-01 0.70027378881E-01 0.60739233770E-01 0.55584104821E-01 0.53883061366E-01
 0.50559384592E-01 0.53919910883E-01 0.60805219718E-01 0.71779414890E-01 0.88124372331E-01
 0.11154082788E+00 0.14354977599E+00 0.18504489496E+00 0.23597191610E+00 0.29524857354E+00
 0.36142006621E+00 0.43364140158E+00 0.51135354154E+00 0.59217866263E+00 0.67029607593E+00
 0.73761555273E+00 0.78670701760E+00 0.81252574574E+00 0.81232135902E+00 0.78575042490E+00
 0.73591368482E+00 0.66934697715E+00 0.59371460142E+00 0.51507636632E+00 0.43721292477E+00
 0.36282034961E+00 0.29448605748E+00 0.23444961246E+00 0.18396621573E+00 0.14320431092E+00
 0.11161147842E+00 0.88226412621E-01 0.71770284692E-01 0.60773499824E-01 0.53949166039E-01
 0.50590203762E-01 0.49550053064E-01 0.51243221306E-01 0.56366503763E-01 0.65136731982E-01
 0.78464008514E-01 0.97901465838E-01 0.12510021263E+00 0.16145685865E+00 0.20791090396E+00
 0.26434676951E+00 0.32910474323E+00 0.39974924573E+00 0.47454867202E+00 0.55241787755E+00
 0.63070518870E+00 0.70342087574E+00 0.76243663558E+00 0.80060200740E+00 0.81372986826E+00
 0.80056297831E+00 0.76244414697E+00 0.70367390557E+00 0.63126494123E+00 0.55293592397E+00
 0.47455134506E+00 0.39922498866E+00 0.32852753731E+00 0.26408717325E+00 0.20790707642E+00
 0.16150084072E+00 0.12513716713E+00 0.97943962320E-01 0.78469960376E-01 0.65100570682E-01
 0.56356053127E-01 0.51269620167E-01 0.51173992297E-01 0.51184595197E-01 0.54455714149E-01
 0.60998980913E-01 0.71351884285E-01 0.86773586308E-01 0.10881923592E+00 0.13882825190E+00
 0.17781121557E+00 0.22639360759E+00 0.28429126409E+00 0.34972463018E+00 0.41977576854E+00
 0.49162265772E+00 0.56305875164E+00 0.63124447594E+00 0.69111801125E+00 0.73589689047E+00
 0.75973589224E+00 0.75991884378E+00 0.73681139924E+00 0.69284175035E+00 0.63235667412E+00
 0.56172353102E+00 0.48789450615E+00 0.41593111234E+00 0.34803222012E+00 0.28498612416E+00
 0.22801987972E+00 0.17897388486E+00 0.13919403417E+00 0.10877419815E+00 0.86699726521E-01
 0.71347226690E-01 0.61008222386E-01 0.54444044865E-01 0.56232074874E-01 0.54708878141E-01
 0.56287237658E-01 0.60970461512E-01 0.69175444343E-01 0.81933069621E-01 0.10068771989E+00
 0.12676335480E+00 0.16089510231E+00 0.20333046104E+00 0.25438097194E+00 0.31441578971E+00
 0.38278423449E+00 0.45689373581E+00 0.53282653478E+00 0.60658560108E+00 0.67392850046E+00
 0.72916984637E+00 0.76560574977E+00 0.77819968956E+00 0.76572599272E+00 0.73025776573E+00
 0.67557971659E+00 0.60682319490E+00 0.53063241233E+00 0.45388061096E+00 0.38144226841E+00
 0.31539713316E+00 0.25628004147E+00 0.20459381980E+00 0.16113749351E+00 0.12647389453E+00
 0.10041343945E+00 0.81879085400E-01 0.69235354180E-01 0.60973897059E-01 0.65069796723E-01
 0.62162485365E-01 0.62204482594E-01 0.65107953179E-01 0.71341441137E-01 0.81884039213E-01
 0.98069478371E-01 0.12137208904E+00 0.15283117473E+00 0.19245758336E+00 0.23975217089E+00
 0.29519923388E+00 0.36055567799E+00 0.43672099704E+00 0.52135404280E+00 0.60898404894E+00
 0.69290355032E+00 0.76608602773E+00 0.82092822742E+00 0.85020203738E+00 0.84972026708E+00
 0.82009822902E+00 0.76584889270E+00 0.69334505695E+00 0.60973528807E+00 0.52253848963E+00
 0.43859161927E+00 0.36253678480E+00 0.29620806943E+00 0.23944223469E+00 0.19150498048E+00
 0.15203294536E+00 0.12099117340E+00 0.98006281850E-01 0.81971161902E-01 0.71404977866E-01
 0.78469960376E-01 0.74190622889E-01 0.72948818650E-01 0.74244904631E-01 0.78461823934E-01
 0.86711219427E-01 0.10033192151E+00 0.12071972389E+00 0.14930340443E+00 0.18696201648E+00
 0.23349331625E+00 0.28856089674E+00 0.35350546887E+00 0.43123327399E+00 0.52317075982E+00
 0.62612570000E+00 0.73218449185E+00 0.83106867719E+00 0.91220183459E+00 0.96575676212E+00
 0.98419779437E+00 0.96468465270E+00 0.91043073154E+00 0.82952320923E+00 0.73216447518E+00
 0.62834707205E+00 0.52670052353E+00 0.43382106043E+00 0.35352957470E+00 0.28654599302E+00
 0.23135148822E+00 0.18597174030E+00 0.14930102132E+00 0.12099306825E+00 0.10053741771E+00
 0.86824233498E-01 0.97942759490E-01 0.92063477346E-01 0.89729223989E-01 0.89812854063E-01
 0.92163370952E-01 0.97910845466E-01 0.10877593703E+00 0.12613607946E+00 0.15105797487E+00
 0.18487834994E+00 0.22905078315E+00 0.28458833573E+00 0.35255709688E+00 0.43518922564E+00
 0.53518494893E+00 0.65247675226E+00 0.78118984718E+00 0.90976084628E+00 0.10238832059E+01
 0.11097219974E+01 0.11560707641E+01 0.11561341728E+01 0.11094213077E+01 0.10226443927E+01
 0.90823773757E+00 0.78080228609E+00 0.65347488053E+00 0.53595220645E+00 0.43410593356E+00
 0.35010627282E+00 0.28280692544E+00 0.22908066360E+00 0.18594165836E+00 0.15188076914E+00
 0.12641379482E+00 0.10886862319E+00 0.12536182275E+00 0.11758283499E+00 0.11409156833E+00
 0.11337382994E+00 0.11440174828E+00 0.11765153943E+00 0.12528405745E+00 0.13948507455E+00
 0.16106397811E+00 0.19040973379E+00 0.22932779695E+00 0.28112278451E+00 0.34929614854E+00
 0.43694172405E+00 0.54665893984E+00 0.67905936998E+00 0.82994792335E+00 0.98865905254E+00
 0.11392363333E+01 0.12637772034E+01 0.13462659660E+01 0.13756334382E+01 0.13475603731E+01
 0.12652986077E+01 0.11397237431E+01 0.98775167014E+00 0.82828971637E+00 0.67726292425E+00
 0.54479060611E+00 0.43538483415E+00 0.34916853452E+00 0.28286702515E+00 0.23157614384E+00
 0.19141290398E+00 0.16078885964E+00 0.13915970885E+00 0.16198615980E+00 0.15235383584E+00
 0.14751958411E+00 0.14609901035E+00 0.14655923577E+00 0.14794834348E+00 0.15189158872E+00
 0.16186409219E+00 0.17988820807E+00 0.20565342292E+00 0.23949675614E+00 0.28486616481E+00
 0.34752471427E+00 0.43362732042E+00 0.54830495934E+00 0.69352686832E+00 0.86536885463E+00
 0.10530850830E+01 0.12404080087E+01 0.14074030368E+01 0.15331689892E+01 0.16005994476E+01
 0.16009346771E+01 0.15346658071E+01 0.14099774386E+01 0.12421006007E+01 0.10523428763E+01
 0.86329878342E+00 0.69226401917E+00 0.54851883850E+00 0.43496081761E+00 0.34974235599E+00
 0.28706019121E+00 0.23995832773E+00 0.20416980326E+00 0.17851554300E+00 0.20790707642E+00
 0.19710593458E+00 0.19124626701E+00 0.18899545899E+00 0.18936593460E+00 0.19018288427E+00
 0.19101230070E+00 0.19550574869E+00 0.20792578594E+00 0.22909951664E+00 0.25836961801E+00
 0.29796164246E+00 0.35350917928E+00 0.43231110308E+00 0.54259206949E+00 0.69097905234E+00
 0.87676523641E+00 0.10890092835E+01 0.13099650199E+01 0.15189289056E+01 0.16924889902E+01
 0.18068425013E+01 0.18455413066E+01 0.18050773795E+01 0.16924853885E+01 0.15211833338E+01
 0.13111492125E+01 0.10881630137E+01 0.87676301555E+00 0.69307269577E+00 0.54456595049E+00
 0.43281314072E+00 0.35352957470E+00 0.29753283906E+00 0.25640401972E+00 0.22682151192E+00
 0.26257547966E+00 0.25174296752E+00 0.24637961271E+00 0.24388703768E+00 0.24429160977E+00