   4   4   0   0
  0.1739698E+02  0.4007590E-09  0.4007590E-09  0.5003070E-09  0.5000000E-15
  1.000000000000000E-004
  CAR 
 H                                       
     45.87208612    -12.91382143  301     -8.57836075      1.00000000
    -12.914  0.0000E+00  0.0000E+00
    -12.718  0.0000E+00  0.0000E+00
    -12.522  0.0000E+00  0.0000E+00
    -12.326  0.0000E+00  0.0000E+00
    -12.130  0.0000E+00  0.0000E+00
    -11.934  0.0000E+00  0.0000E+00
    -11.738  0.0000E+00  0.0000E+00
    -11.542  0.0000E+00  0.0000E+00
    -11.346  0.0000E+00  0.0000E+00
    -11.150  0.0000E+00  0.0000E+00
    -10.954  0.0000E+00  0.0000E+00
    -10.758  0.0000E+00  0.0000E+00
    -10.562  0.0000E+00  0.0000E+00
    -10.366  0.4246E-05  0.8320E-06
    -10.170  0.1489E+00  0.2918E-01
     -9.975  0.9639E+00  0.2181E+00
     -9.779  0.1667E+01  0.5446E+00
     -9.583  0.3043E+01  0.1141E+01
     -9.387  0.4721E+01  0.2066E+01
     -9.191  0.5883E+01  0.3219E+01
     -8.995  0.3552E+01  0.3915E+01
     -8.799  0.4348E+00  0.4000E+01
     -8.603  0.2604E-05  0.4000E+01
     -8.407  0.0000E+00  0.4000E+01
     -8.211  0.0000E+00  0.4000E+01
     -8.015  0.0000E+00  0.4000E+01
     -7.819  0.0000E+00  0.4000E+01
     -7.623  0.0000E+00  0.4000E+01
     -7.427  0.0000E+00  0.4000E+01
     -7.231  0.0000E+00  0.4000E+01
     -7.035  0.0000E+00  0.4000E+01
     -6.839  0.0000E+00  0.4000E+01
     -6.643  0.0000E+00  0.4000E+01
     -6.447  0.0000E+00  0.4000E+01
     -6.251  0.0000E+00  0.4000E+01
     -6.055  0.0000E+00  0.4000E+01
     -5.860  0.0000E+00  0.4000E+01
     -5.664  0.0000E+00  0.4000E+01
     -5.468  0.0000E+00  0.4000E+01
     -5.272  0.0000E+00  0.4000E+01
     -5.076  0.0000E+00  0.4000E+01
     -4.880  0.0000E+00  0.4000E+01
     -4.684  0.0000E+00  0.4000E+01
     -4.488  0.0000E+00  0.4000E+01
     -4.292  0.0000E+00  0.4000E+01
     -4.096  0.0000E+00  0.4000E+01
     -3.900  0.0000E+00  0.4000E+01
     -3.704  0.0000E+00  0.4000E+01
     -3.508  0.0000E+00  0.4000E+01
     -3.312  0.0000E+00  0.4000E+01
     -3.116  0.0000E+00  0.4000E+01
     -2.920  0.0000E+00  0.4000E+01
     -2.724  0.0000E+00  0.4000E+01
     -2.528  0.0000E+00  0.4000E+01
     -2.332  0.0000E+00  0.4000E+01
     -2.136  0.0000E+00  0.4000E+01
     -1.940  0.0000E+00  0.4000E+01
     -1.744  0.0000E+00  0.4000E+01
     -1.549  0.0000E+00  0.4000E+01
     -1.353  0.0000E+00  0.4000E+01
     -1.157  0.0000E+00  0.4000E+01
     -0.961  0.0000E+00  0.4000E+01
     -0.765  0.0000E+00  0.4000E+01
     -0.569  0.0000E+00  0.4000E+01
     -0.373  0.0000E+00  0.4000E+01
     -0.177  0.0000E+00  0.4000E+01
      0.019  0.0000E+00  0.4000E+01
      0.215  0.0000E+00  0.4000E+01
      0.411  0.1215E-07  0.4000E+01
      0.607  0.3411E-01  0.4007E+01
      0.803  0.1122E+01  0.4227E+01
      0.999  0.4359E+01  0.5081E+01
      1.195  0.4177E+01  0.5899E+01
      1.391  0.3122E+01  0.6511E+01
      1.587  0.1792E+01  0.6862E+01
      1.783  0.2163E+01  0.7286E+01
      1.979  0.1378E+01  0.7556E+01
      2.175  0.6145E+00  0.7677E+01
      2.371  0.8539E+00  0.7844E+01
      2.566  0.1157E+01  0.8071E+01
      2.762  0.3029E+00  0.8130E+01
      2.958  0.2549E+00  0.8180E+01
      3.154  0.1589E+01  0.8491E+01
      3.350  0.4396E+00  0.8577E+01
      3.546  0.1413E+01  0.8854E+01
      3.742  0.7961E+00  0.9010E+01
      3.938  0.9199E+00  0.9190E+01
      4.134  0.1484E+01  0.9481E+01
      4.330  0.1513E+01  0.9778E+01
      4.526  0.8979E+00  0.9954E+01
      4.722  0.1428E+01  0.1023E+02
      4.918  0.1635E+01  0.1055E+02
      5.114  0.5913E+00  0.1067E+02
      5.310  0.2547E+01  0.1117E+02
      5.506  0.2083E+01  0.1158E+02
      5.702  0.9495E+00  0.1176E+02
      5.898  0.1531E+01  0.1206E+02
      6.094  0.1850E+01  0.1243E+02
      6.290  0.1415E+01  0.1270E+02
      6.486  0.2292E+01  0.1315E+02
      6.681  0.1435E+01  0.1343E+02
      6.877  0.2059E+01  0.1384E+02
      7.073  0.1568E+01  0.1414E+02
      7.269  0.1065E+01  0.1435E+02
      7.465  0.2420E+01  0.1483E+02
      7.661  0.2346E+01  0.1529E+02
      7.857  0.1617E+01  0.1560E+02
      8.053  0.1489E+01  0.1590E+02
      8.249  0.1463E+01  0.1618E+02
      8.445  0.1892E+01  0.1655E+02
      8.641  0.9917E+00  0.1675E+02
      8.837  0.1275E+01  0.1700E+02
      9.033  0.1848E+01  0.1736E+02
      9.229  0.2616E+01  0.1787E+02
      9.425  0.2147E+01  0.1829E+02
      9.621  0.1689E+01  0.1862E+02
      9.817  0.2873E+01  0.1919E+02
     10.013  0.9356E+00  0.1937E+02
     10.209  0.3505E+00  0.1944E+02
     10.405  0.8543E+00  0.1961E+02
     10.601  0.2519E+01  0.2010E+02
     10.796  0.1752E+01  0.2044E+02
     10.992  0.2372E+01  0.2091E+02
     11.188  0.1007E+01  0.2110E+02
     11.384  0.2244E+01  0.2154E+02
     11.580  0.2153E+01  0.2197E+02
     11.776  0.2865E+01  0.2253E+02
     11.972  0.1400E+01  0.2280E+02
     12.168  0.2332E+01  0.2326E+02
     12.364  0.5523E+00  0.2337E+02
     12.560  0.7226E+00  0.2351E+02
     12.756  0.1570E+01  0.2382E+02
     12.952  0.1847E+01  0.2418E+02
     13.148  0.1860E+01  0.2454E+02
     13.344  0.2085E+01  0.2495E+02
     13.540  0.2566E+01  0.2545E+02
     13.736  0.3271E+01  0.2609E+02
     13.932  0.1460E+01  0.2638E+02
     14.128  0.2587E+01  0.2689E+02
     14.324  0.2106E+01  0.2730E+02
     14.520  0.1637E+01  0.2762E+02
     14.716  0.2341E+01  0.2808E+02
     14.912  0.2068E+01  0.2849E+02
     15.107  0.2026E+01  0.2888E+02
     15.303  0.1300E+01  0.2914E+02
     15.499  0.1923E+01  0.2951E+02
     15.695  0.2775E+01  0.3006E+02
     15.891  0.2261E+01  0.3050E+02
     16.087  0.1294E+01  0.3075E+02
     16.283  0.2635E+01  0.3127E+02
     16.479  0.2199E+01  0.3170E+02
     16.675  0.2301E+01  0.3215E+02
     16.871  0.2308E+01  0.3260E+02
     17.067  0.2689E+01  0.3313E+02
     17.263  0.1963E+01  0.3352E+02
     17.459  0.1426E+01  0.3380E+02
     17.655  0.3207E+01  0.3442E+02
     17.851  0.2482E+01  0.3491E+02
     18.047  0.1619E+01  0.3523E+02
     18.243  0.2409E+01  0.3570E+02
     18.439  0.2393E+01  0.3617E+02
     18.635  0.1536E+01  0.3647E+02
     18.831  0.1975E+01  0.3686E+02
     19.027  0.1133E+01  0.3708E+02
     19.222  0.2515E+01  0.3757E+02
     19.418  0.3301E+01  0.3822E+02
     19.614  0.2588E+01  0.3873E+02
     19.810  0.2534E+01  0.3922E+02
     20.006  0.3029E+01  0.3982E+02
     20.202  0.2490E+01  0.4030E+02
     20.398  0.1353E+01  0.4057E+02
     20.594  0.1829E+01  0.4093E+02
     20.790  0.2688E+01  0.4145E+02
     20.986  0.2847E+01  0.4201E+02
     21.182  0.2496E+01  0.4250E+02
     21.378  0.1242E+01  0.4274E+02
     21.574  0.2253E+01  0.4319E+02
     21.770  0.2289E+01  0.4363E+02
     21.966  0.4141E+01  0.4445E+02
     22.162  0.2220E+01  0.4488E+02
     22.358  0.1613E+01  0.4520E+02
     22.554  0.2906E+01  0.4577E+02
     22.750  0.2521E+01  0.4626E+02
     22.946  0.2321E+01  0.4671E+02
     23.142  0.2089E+01  0.4712E+02
     23.337  0.2032E+01  0.4752E+02
     23.533  0.2315E+01  0.4798E+02
     23.729  0.3767E+01  0.4871E+02
     23.925  0.3195E+01  0.4934E+02
     24.121  0.1918E+01  0.4972E+02
     24.317  0.2440E+01  0.5019E+02
     24.513  0.1639E+01  0.5052E+02
     24.709  0.2575E+01  0.5102E+02
     24.905  0.1415E+01  0.5130E+02
     25.101  0.3431E+01  0.5197E+02
     25.297  0.2940E+01  0.5255E+02
     25.493  0.2903E+01  0.5311E+02
     25.689  0.2913E+01  0.5369E+02
     25.885  0.3183E+01  0.5431E+02
     26.081  0.3077E+01  0.5491E+02
     26.277  0.2811E+01  0.5546E+02
     26.473  0.2179E+01  0.5589E+02
     26.669  0.2304E+01  0.5634E+02
     26.865  0.2711E+01  0.5687E+02
     27.061  0.1337E+01  0.5713E+02
     27.257  0.2621E+01  0.5765E+02
     27.453  0.3358E+01  0.5831E+02
     27.648  0.2026E+01  0.5870E+02
     27.844  0.2667E+01  0.5923E+02
     28.040  0.1657E+01  0.5955E+02
     28.236  0.3451E+01  0.6023E+02
     28.432  0.3497E+01  0.6091E+02
     28.628  0.2971E+01  0.6149E+02
     28.824  0.2372E+01  0.6196E+02
     29.020  0.3024E+01  0.6255E+02
     29.216  0.2803E+01  0.6310E+02
     29.412  0.2471E+01  0.6358E+02
     29.608  0.3463E+01  0.6426E+02
     29.804  0.2508E+01  0.6475E+02
     30.000  0.2437E+01  0.6523E+02
     30.196  0.2663E+01  0.6575E+02
     30.392  0.1788E+01  0.6610E+02
     30.588  0.3146E+01  0.6672E+02
     30.784  0.2913E+01  0.6729E+02
     30.980  0.3923E+01  0.6806E+02
     31.176  0.2366E+01  0.6852E+02
     31.372  0.1722E+01  0.6886E+02
     31.568  0.3216E+01  0.6949E+02
     31.763  0.3519E+01  0.7018E+02
     31.959  0.2180E+01  0.7061E+02
     32.155  0.3503E+01  0.7129E+02
     32.351  0.3192E+01  0.7192E+02
     32.547  0.3362E+01  0.7258E+02
     32.743  0.1683E+01  0.7291E+02
     32.939  0.2251E+01  0.7335E+02
     33.135  0.3192E+01  0.7398E+02
     33.331  0.4258E+01  0.7481E+02
     33.527  0.3193E+01  0.7544E+02
     33.723  0.1814E+01  0.7579E+02
     33.919  0.3652E+01  0.7651E+02
     34.115  0.2444E+01  0.7699E+02
     34.311  0.2604E+01  0.7750E+02
     34.507  0.2539E+01  0.7799E+02
     34.703  0.2562E+01  0.7850E+02
     34.899  0.3021E+01  0.7909E+02
     35.095  0.4034E+01  0.7988E+02
     35.291  0.2226E+01  0.8031E+02
     35.487  0.2870E+01  0.8088E+02
     35.683  0.3486E+01  0.8156E+02
     35.878  0.4685E+01  0.8248E+02
     36.074  0.1996E+01  0.8287E+02
     36.270  0.2415E+01  0.8334E+02
     36.466  0.3561E+01  0.8404E+02
     36.662  0.2480E+01  0.8453E+02
     36.858  0.3301E+01  0.8517E+02
     37.054  0.3058E+01  0.8577E+02
     37.250  0.3505E+01  0.8646E+02
     37.446  0.2218E+01  0.8689E+02
     37.642  0.3129E+01  0.8751E+02
     37.838  0.4245E+01  0.8834E+02
     38.034  0.2687E+01  0.8886E+02
     38.230  0.2149E+01  0.8929E+02
     38.426  0.2955E+01  0.8986E+02
     38.622  0.2685E+01  0.9039E+02
     38.818  0.2769E+01  0.9093E+02
     39.014  0.4044E+01  0.9173E+02
     39.210  0.3944E+01  0.9250E+02
     39.406  0.2340E+01  0.9296E+02
     39.602  0.2277E+01  0.9340E+02
     39.798  0.2154E+01  0.9383E+02
     39.993  0.2588E+01  0.9433E+02
     40.189  0.2241E+01  0.9477E+02
     40.385  0.1767E+01  0.9512E+02
     40.581  0.1630E+01  0.9544E+02
     40.777  0.1102E+01  0.9565E+02
     40.973  0.5421E+00  0.9576E+02
     41.169  0.3489E+00  0.9583E+02
     41.365  0.2860E-02  0.9583E+02
     41.561  0.6003E+00  0.9595E+02
     41.757  0.1173E+00  0.9597E+02
     41.953  0.0000E+00  0.9597E+02
     42.149  0.0000E+00  0.9597E+02
     42.345  0.2326E-05  0.9597E+02
     42.541  0.3805E-01  0.9598E+02
     42.737  0.3738E-01  0.9598E+02
     42.933  0.4305E-02  0.9598E+02
     43.129  0.1761E-02  0.9598E+02
     43.325  0.7796E-01  0.9600E+02
     43.521  0.1658E-04  0.9600E+02
     43.717  0.0000E+00  0.9600E+02
     43.913  0.0000E+00  0.9600E+02
     44.109  0.0000E+00  0.9600E+02
     44.304  0.0000E+00  0.9600E+02
     44.500  0.0000E+00  0.9600E+02
     44.696  0.0000E+00  0.9600E+02
     44.892  0.0000E+00  0.9600E+02
     45.088  0.0000E+00  0.9600E+02
     45.284  0.0000E+00  0.9600E+02
     45.480  0.0000E+00  0.9600E+02
     45.676  0.0000E+00  0.9600E+02
     45.872  0.0000E+00  0.9600E+02
