H                                       
           1
     4.007590    0.000000    0.000000
    -2.003795    3.470675    0.000000
     0.000000    0.000000    5.003070
   H 
     4
Direct configuration=     1
   0.33333333  0.66666667  0.17498000
   0.66666667  0.33333333  0.82502000
   0.66666667  0.33333333  0.67498000
   0.33333333  0.66666667  0.32502000
