Xe                                      
   1.00000000000000     
     7.054820    0.000000    0.000000
     0.000000    7.054820    0.000000
     0.000000    0.000000    7.054820
   Xe
     4
Direct
  0.000000  0.000000  0.000000
  0.000000  0.500000  0.500000
  0.500000  0.000000  0.500000
  0.500000  0.500000  0.000000
 
   48   48   48
 -.28487782509E+03 -.21740408335E+03 -.48920375118E+02 0.14154370844E+03 0.27880047416E+03
 0.32828412817E+03 0.29986069146E+03 0.22811282782E+03 0.15036639339E+03 0.91991252453E+02
 0.54810178691E+02 0.32391382383E+02 0.19059330577E+02 0.11070106824E+02 0.64169631059E+01
 0.38625029162E+01 0.23862689542E+01 0.13986469893E+01 0.82448500695E+00 0.63030520335E+00
 0.54545672161E+00 0.39025044991E+00 0.30060361597E+00 0.38600507821E+00 0.46646709238E+00
 0.38600507821E+00 0.30060361597E+00 0.39025044991E+00 0.54545672161E+00 0.63030520335E+00
 0.82448500695E+00 0.13986469893E+01 0.23862689542E+01 0.38625029162E+01 0.64169631059E+01
 0.11070106824E+02 0.19059330577E+02 0.32391382383E+02 0.54810178691E+02 0.91991252453E+02
 0.15036639339E+03 0.22811282782E+03 0.29986069146E+03 0.32828412817E+03 0.27880047416E+03
 0.14154370844E+03 -.48920375118E+02 -.21740408335E+03 -.21740408335E+03 -.15589996688E+03
 -.27891089613E+01 0.16886800889E+03 0.28976581619E+03 0.32848659680E+03 0.29501799686E+03
 0.22237534138E+03 0.14601588884E+03 0.89440776779E+02 0.53397223979E+02 0.31619699705E+02
 0.18638803400E+02 0.10848459232E+02 0.63034128125E+01 0.37992116533E+01 0.23492321618E+01
 0.13822648646E+01 0.81667906076E+00 0.61355761882E+00 0.51440490812E+00 0.34938201054E+00
 0.24765265060E+00 0.31514070383E+00 0.38600507821E+00 0.31514070383E+00 0.24765265060E+00
 0.34938201054E+00 0.51440490812E+00 0.61355761882E+00 0.81667906076E+00 0.13822648646E+01
 0.23492321618E+01 0.37992116533E+01 0.63034128125E+01 0.10848459232E+02 0.18638803400E+02
 0.31619699705E+02 0.53397223979E+02 0.89440776779E+02 0.14601588884E+03 0.22237534138E+03
 0.29501799686E+03 0.32848659680E+03 0.28976581619E+03 0.16886800889E+03 -.27891089613E+01
 -.15589996688E+03 -.48920375118E+02 -.27891089613E+01 0.11077295214E+03 0.23416734503E+03
 0.31332270519E+03 0.32496954481E+03 0.27938907782E+03 0.20547464840E+03 0.13372055928E+03
 0.82255930282E+02 0.49405351132E+02 0.29430738250E+02 0.17441535935E+02 0.10214594922E+02
 0.59771363239E+01 0.36181741293E+01 0.22454618927E+01 0.13401543365E+01 0.80648705018E+00
 0.59404058819E+00 0.47826403715E+00 0.31400825571E+00 0.20735368561E+00 0.24765265060E+00
 0.30060361597E+00 0.24765265060E+00 0.20735368561E+00 0.31400825571E+00 0.47826403715E+00
 0.59404058819E+00 0.80648705018E+00 0.13401543365E+01 0.22454618927E+01 0.36181741293E+01
 0.59771363239E+01 0.10214594922E+02 0.17441535935E+02 0.29430738250E+02 0.49405351132E+02
 0.82255930282E+02 0.13372055928E+03 0.20547464840E+03 0.27938907782E+03 0.32496954481E+03
 0.31332270519E+03 0.23416734503E+03 0.11077295214E+03 -.27891089613E+01 0.14154370844E+03
 0.16886800889E+03 0.23416734503E+03 0.29904147300E+03 0.32832861941E+03 0.30885207652E+03
 0.25117090070E+03 0.17883964374E+03 0.11563641951E+03 0.71689881748E+02 0.43497191175E+02
 0.26164325789E+02 0.15642056279E+02 0.92538764337E+01 0.54783853439E+01 0.33438696997E+01
 0.20936317136E+01 0.12855378881E+01 0.81150240533E+00 0.61134994309E+00 0.50781588812E+00
 0.38593151122E+00 0.31400825571E+00 0.34938201054E+00 0.39025044991E+00 0.34938201054E+00
 0.31400825571E+00 0.38593151122E+00 0.50781588812E+00 0.61134994309E+00 0.81150240533E+00
 0.12855378881E+01 0.20936317136E+01 0.33438696997E+01 0.54783853439E+01 0.92538764337E+01
 0.15642056279E+02 0.26164325789E+02 0.43497191175E+02 0.71689881748E+02 0.11563641951E+03
 0.17883964374E+03 0.25117090070E+03 0.30885207652E+03 0.32832861941E+03 0.29904147300E+03
 0.23416734503E+03 0.16886800889E+03 0.27880047416E+03 0.28976581619E+03 0.31332270519E+03
 0.32832861941E+03 0.31660546584E+03 0.27397327987E+03 0.21100494420E+03 0.14594960834E+03
 0.94677966106E+02 0.59403546838E+02 0.36552111384E+02 0.22276844433E+02 0.13478425223E+02
 0.80858441784E+01 0.48660100661E+01 0.30120890079E+01 0.19187699551E+01 0.12297596869E+01
 0.83111047894E+00 0.65688053995E+00 0.57763029211E+00 0.50781588812E+00 0.47826403715E+00
 0.51440490812E+00 0.54545672161E+00 0.51440490812E+00 0.47826403715E+00 0.50781588812E+00
 0.57763029211E+00 0.65688053995E+00 0.83111047894E+00 0.12297596869E+01 0.19187699551E+01
 0.30120890079E+01 0.48660100661E+01 0.80858441784E+01 0.13478425223E+02 0.22276844433E+02
 0.36552111384E+02 0.59403546838E+02 0.94677966106E+02 0.14594960834E+03 0.21100494420E+03
 0.27397327987E+03 0.31660546584E+03 0.32832861941E+03 0.31332270519E+03 0.28976581619E+03
 0.32828412817E+03 0.32848659680E+03 0.32496954481E+03 0.30885207652E+03 0.27397327987E+03
 0.22233962269E+03 0.16402078983E+03 0.11232127467E+03 0.73721873604E+02 0.47010768372E+02
 0.29434270217E+02 0.18228117928E+02 0.11197332679E+02 0.68399776760E+01 0.42084640887E+01
 0.26659064557E+01 0.17518036489E+01 0.11910096391E+01 0.87098722339E+00 0.72335065004E+00
 0.65688053995E+00 0.61134994309E+00 0.59404058819E+00 0.61355761882E+00 0.63030520335E+00
 0.61355761882E+00 0.59404058819E+00 0.61134994309E+00 0.65688053995E+00 0.72335065004E+00
 0.87098722339E+00 0.11910096391E+01 0.17518036489E+01 0.26659064557E+01 0.42084640887E+01
 0.68399776760E+01 0.11197332679E+02 0.18228117928E+02 0.29434270217E+02 0.47010768372E+02
 0.73721873604E+02 0.11232127467E+03 0.16402078983E+03 0.22233962269E+03 0.27397327987E+03
 0.30885207652E+03 0.32496954481E+03 0.32848659680E+03 0.29986069146E+03 0.29501799686E+03
 0.27938907782E+03 0.25117090070E+03 0.21100494420E+03 0.16402078983E+03 0.11897722497E+03
 0.82300598067E+02 0.54931431982E+02 0.35725746718E+02 0.22817347407E+02 0.14394325721E+02
 0.90103010559E+01 0.56350187287E+01 0.35751196812E+01 0.23521878628E+01 0.16306358567E+01
 0.12053992422E+01 0.97405622061E+00 0.87098722339E+00 0.83111047894E+00 0.81150240533E+00
 0.80648705018E+00 0.81667906076E+00 0.82448500695E+00 0.81667906076E+00 0.80648705018E+00
 0.81150240533E+00 0.83111047894E+00 0.87098722339E+00 0.97405622061E+00 0.12053992422E+01
 0.16306358567E+01 0.23521878628E+01 0.35751196812E+01 0.56350187287E+01 0.90103010559E+01
 0.14394325721E+02 0.22817347407E+02 0.35725746718E+02 0.54931431982E+02 0.82300598067E+02
 0.11897722497E+03 0.16402078983E+03 0.21100494420E+03 0.25117090070E+03 0.27938907782E+03
 0.29501799686E+03 0.22811282782E+03 0.22237534138E+03 0.20547464840E+03 0.17883964374E+03
 0.14594960834E+03 0.11232127467E+03 0.82300598067E+02 0.57897273038E+02 0.39445704016E+02
 0.26222183320E+02 0.17112168179E+02 0.11027200239E+02 0.70703929195E+01 0.45659060520E+01
 0.30291947461E+01 0.21183198733E+01 0.15983064504E+01 0.13221375691E+01 0.12053992422E+01
 0.11910096391E+01 0.12297596869E+01 0.12855378881E+01 0.13401543365E+01 0.13822648646E+01
 0.13986469893E+01 0.13822648646E+01 0.13401543365E+01 0.12855378881E+01 0.12297596869E+01
 0.11910096391E+01 0.12053992422E+01 0.13221375691E+01 0.15983064504E+01 0.21183198733E+01
 0.30291947461E+01 0.45659060520E+01 0.70703929195E+01 0.11027200239E+02 0.17112168179E+02
 0.26222183320E+02 0.39445704016E+02 0.57897273038E+02 0.82300598067E+02 0.11232127467E+03
 0.14594960834E+03 0.17883964374E+03 0.20547464840E+03 0.22237534138E+03 0.15036639339E+03
 0.14601588884E+03 0.13372055928E+03 0.11563641951E+03 0.94677966106E+02 0.73721873604E+02
 0.54931431982E+02 0.39445704016E+02 0.27485048076E+02 0.18694529071E+02 0.12486527744E+02
 0.82548650743E+01 0.54682130187E+01 0.36989975030E+01 0.26240444145E+01 0.20115079905E+01
 0.17034849284E+01 0.15983064504E+01 0.16306358567E+01 0.17518036489E+01 0.19187699551E+01
 0.20936317136E+01 0.22454618927E+01 0.23492321618E+01 0.23862689542E+01 0.23492321618E+01
 0.22454618927E+01 0.20936317136E+01 0.19187699551E+01 0.17518036489E+01 0.16306358567E+01
 0.15983064504E+01 0.17034849284E+01 0.20115079905E+01 0.26240444145E+01 0.36989975030E+01
 0.54682130187E+01 0.82548650743E+01 0.12486527744E+02 0.18694529071E+02 0.27485048076E+02
 0.39445704016E+02 0.54931431982E+02 0.73721873604E+02 0.94677966106E+02 0.11563641951E+03
 0.13372055928E+03 0.14601588884E+03 0.91991252453E+02 0.89440776779E+02 0.82255930282E+02
 0.71689881748E+02 0.59403546838E+02 0.47010768372E+02 0.35725746718E+02 0.26222183320E+02
 0.18694529071E+02 0.13022427898E+02 0.89325054607E+01 0.61066926179E+01 0.42408871128E+01
 0.30747987766E+01 0.24048932519E+01 0.20840382161E+01 0.20115079905E+01 0.21183198733E+01
 0.23521878628E+01 0.26659064557E+01 0.30120890079E+01 0.33438696997E+01 0.36181741293E+01
 0.37992116533E+01 0.38625029162E+01 0.37992116533E+01 0.36181741293E+01 0.33438696997E+01
 0.30120890079E+01 0.26659064557E+01 0.23521878628E+01 0.21183198733E+01 0.20115079905E+01
 0.20840382161E+01 0.24048932519E+01 0.30747987766E+01 0.42408871128E+01 0.61066926179E+01
 0.89325054607E+01 0.13022427898E+02 0.18694529071E+02 0.26222183320E+02 0.35725746718E+02
 0.47010768372E+02 0.59403546838E+02 0.71689881748E+02 0.82255930282E+02 0.89440776779E+02
 0.54810178691E+02 0.53397223979E+02 0.49405351132E+02 0.43497191175E+02 0.36552111384E+02
 0.29434270217E+02 0.22817347407E+02 0.17112168179E+02 0.12486527744E+02 0.89325054607E+01
 0.63385187470E+01 0.45458186546E+01 0.33879816257E+01 0.27169643581E+01 0.24167728418E+01
 0.24048932519E+01 0.26240444145E+01 0.30291947461E+01 0.35751196812E+01 0.42084640887E+01
 0.48660100661E+01 0.54783853439E+01 0.59771363239E+01 0.63034128125E+01 0.64169631059E+01
 0.63034128125E+01 0.59771363239E+01 0.54783853439E+01 0.48660100661E+01 0.42084640887E+01
 0.35751196812E+01 0.30291947461E+01 0.26240444145E+01 0.24048932519E+01 0.24167728418E+01
 0.27169643581E+01 0.33879816257E+01 0.45458186546E+01 0.63385187470E+01 0.89325054607E+01
 0.12486527744E+02 0.17112168179E+02 0.22817347407E+02 0.29434270217E+02 0.36552111384E+02
 0.43497191175E+02 0.49405351132E+02 0.53397223979E+02 0.32391382383E+02 0.31619699705E+02
 0.29430738250E+02 0.26164325789E+02 0.22276844433E+02 0.18228117928E+02 0.14394325721E+02
 0.11027200239E+02 0.82548650743E+01 0.61066926179E+01 0.45458186546E+01 0.35004188690E+01
 0.28901648426E+01 0.26454479503E+01 0.27169643581E+01 0.30747987766E+01 0.36989975030E+01
 0.45659060520E+01 0.56350187287E+01 0.68399776760E+01 0.80858441784E+01 0.92538764337E+01
 0.10214594922E+02 0.10848459232E+02 0.11070106824E+02 0.10848459232E+02 0.10214594922E+02
 0.92538764337E+01 0.80858441784E+01 0.68399776760E+01 0.56350187287E+01 0.45659060520E+01
 0.36989975030E+01 0.30747987766E+01 0.27169643581E+01 0.26454479503E+01 0.28901648426E+01
 0.35004188690E+01 0.45458186546E+01 0.61066926179E+01 0.82548650743E+01 0.11027200239E+02
 0.14394325721E+02 0.18228117928E+02 0.22276844433E+02 0.26164325789E+02 0.29430738250E+02
 0.31619699705E+02 0.19059330577E+02 0.18638803400E+02 0.17441535935E+02 0.15642056279E+02
 0.13478425223E+02 0.11197332679E+02 0.90103010559E+01 0.70703929195E+01 0.54682130187E+01
 0.42408871128E+01 0.33879816257E+01 0.28901648426E+01 0.27270301717E+01 0.28901648426E+01
 0.33879816257E+01 0.42408871128E+01 0.54682130187E+01 0.70703929195E+01 0.90103010559E+01
 0.11197332679E+02 0.13478425223E+02 0.15642056279E+02 0.17441535935E+02 0.18638803400E+02
 0.19059330577E+02 0.18638803400E+02 0.17441535935E+02 0.15642056279E+02 0.13478425223E+02
 0.11197332679E+02 0.90103010559E+01 0.70703929195E+01 0.54682130187E+01 0.42408871128E+01
 0.33879816257E+01 0.28901648426E+01 0.27270301717E+01 0.28901648426E+01 0.33879816257E+01
 0.42408871128E+01 0.54682130187E+01 0.70703929195E+01 0.90103010559E+01 0.11197332679E+02
 0.13478425223E+02 0.15642056279E+02 0.17441535935E+02 0.18638803400E+02 0.11070106824E+02
 0.10848459232E+02 0.10214594922E+02 0.92538764337E+01 0.80858441784E+01 0.68399776760E+01
 0.56350187287E+01 0.45659060520E+01 0.36989975030E+01 0.30747987766E+01 0.27169643581E+01
 0.26454479503E+01 0.28901648426E+01 0.35004188690E+01 0.45458186546E+01 0.61066926179E+01
 0.82548650743E+01 0.11027200239E+02 0.14394325721E+02 0.18228117928E+02 0.22276844433E+02
 0.26164325789E+02 0.29430738250E+02 0.31619699705E+02 0.32391382383E+02 0.31619699705E+02
 0.29430738250E+02 0.26164325789E+02 0.22276844433E+02 0.18228117928E+02 0.14394325721E+02
 0.11027200239E+02 0.82548650743E+01 0.61066926179E+01 0.45458186546E+01 0.35004188690E+01
 0.28901648426E+01 0.26454479503E+01 0.27169643581E+01 0.30747987766E+01 0.36989975030E+01
 0.45659060520E+01 0.56350187287E+01 0.68399776760E+01 0.80858441784E+01 0.92538764337E+01
 0.10214594922E+02 0.10848459232E+02 0.64169631059E+01 0.63034128125E+01 0.59771363239E+01
 0.54783853439E+01 0.48660100661E+01 0.42084640887E+01 0.35751196812E+01 0.30291947461E+01
 0.26240444145E+01 0.24048932519E+01 0.24167728418E+01 0.27169643581E+01 0.33879816257E+01
 0.45458186546E+01 0.63385187470E+01 0.89325054607E+01 0.12486527744E+02 0.17112168179E+02
 0.22817347407E+02 0.29434270217E+02 0.36552111384E+02 0.43497191175E+02 0.49405351132E+02
 0.53397223979E+02 0.54810178691E+02 0.53397223979E+02 0.49405351132E+02 0.43497191175E+02
 0.36552111384E+02 0.29434270217E+02 0.22817347407E+02 0.17112168179E+02 0.12486527744E+02
 0.89325054607E+01 0.63385187470E+01 0.45458186546E+01 0.33879816257E+01 0.27169643581E+01
 0.24167728418E+01 0.24048932519E+01 0.26240444145E+01 0.30291947461E+01 0.35751196812E+01
 0.42084640887E+01 0.48660100661E+01 0.54783853439E+01 0.59771363239E+01 0.63034128125E+01
 0.38625029162E+01 0.37992116533E+01 0.36181741293E+01 0.33438696997E+01 0.30120890079E+01
 0.26659064557E+01 0.23521878628E+01 0.21183198733E+01 0.20115079905E+01 0.20840382161E+01
 0.24048932519E+01 0.30747987766E+01 0.42408871128E+01 0.61066926179E+01 0.89325054607E+01
 0.13022427898E+02 0.18694529071E+02 0.26222183320E+02 0.35725746718E+02 0.47010768372E+02
 0.59403546838E+02 0.71689881748E+02 0.82255930282E+02 0.89440776779E+02 0.91991252453E+02
 0.89440776779E+02 0.82255930282E+02 0.71689881748E+02 0.59403546838E+02 0.47010768372E+02
 0.35725746718E+02 0.26222183320E+02 0.18694529071E+02 0.13022427898E+02 0.89325054607E+01
 0.61066926179E+01 0.42408871128E+01 0.30747987766E+01 0.24048932519E+01 0.20840382161E+01
 0.20115079905E+01 0.21183198733E+01 0.23521878628E+01 0.26659064557E+01 0.30120890079E+01
 0.33438696997E+01 0.36181741293E+01 0.37992116533E+01 0.23862689542E+01 0.23492321618E+01
 0.22454618927E+01 0.20936317136E+01 0.19187699551E+01 0.17518036489E+01 0.16306358567E+01
 0.15983064504E+01 0.17034849284E+01 0.20115079905E+01 0.26240444145E+01 0.36989975030E+01
 0.54682130187E+01 0.82548650743E+01 0.12486527744E+02 0.18694529071E+02 0.27485048076E+02
 0.39445704016E+02 0.54931431982E+02 0.73721873604E+02 0.94677966106E+02 0.11563641951E+03
 0.13372055928E+03 0.14601588884E+03 0.15036639339E+03 0.14601588884E+03 0.13372055928E+03
 0.11563641951E+03 0.94677966106E+02 0.73721873604E+02 0.54931431982E+02 0.39445704016E+02
 0.27485048076E+02 0.18694529071E+02 0.12486527744E+02 0.82548650743E+01 0.54682130187E+01
 0.36989975030E+01 0.26240444145E+01 0.20115079905E+01 0.17034849284E+01 0.15983064504E+01
 0.16306358567E+01 0.17518036489E+01 0.19187699551E+01 0.20936317136E+01 0.22454618927E+01
 0.23492321618E+01 0.13986469893E+01 0.13822648646E+01 0.13401543365E+01 0.12855378881E+01
 0.12297596869E+01 0.11910096391E+01 0.12053992422E+01 0.13221375691E+01 0.15983064504E+01
 0.21183198733E+01 0.30291947461E+01 0.45659060520E+01 0.70703929195E+01 0.11027200239E+02
 0.17112168179E+02 0.26222183320E+02 0.39445704016E+02 0.57897273038E+02 0.82300598067E+02
 0.11232127467E+03 0.14594960834E+03 0.17883964374E+03 0.20547464840E+03 0.22237534138E+03
 0.22811282782E+03 0.22237534138E+03 0.20547464840E+03 0.17883964374E+03 0.14594960834E+03
 0.11232127467E+03 0.82300598067E+02 0.57897273038E+02 0.39445704016E+02 0.26222183320E+02
 0.17112168179E+02 0.11027200239E+02 0.70703929195E+01 0.45659060520E+01 0.30291947461E+01
 0.21183198733E+01 0.15983064504E+01 0.13221375691E+01 0.12053992422E+01 0.11910096391E+01
 0.12297596869E+01 0.12855378881E+01 0.13401543365E+01 0.13822648646E+01 0.82448500695E+00
 0.81667906076E+00 0.80648705018E+00 0.81150240533E+00 0.83111047894E+00 0.87098722339E+00
 0.97405622061E+00 0.12053992422E+01 0.16306358567E+01 0.23521878628E+01 0.35751196812E+01
 0.56350187287E+01 0.90103010559E+01 0.14394325721E+02 0.22817347407E+02 0.35725746718E+02
 0.54931431982E+02 0.82300598067E+02 0.11897722497E+03 0.16402078983E+03 0.21100494420E+03
 0.25117090070E+03 0.27938907782E+03 0.29501799686E+03 0.29986069146E+03 0.29501799686E+03
 0.27938907782E+03 0.25117090070E+03 0.21100494420E+03 0.16402078983E+03 0.11897722497E+03
 0.82300598067E+02 0.54931431982E+02 0.35725746718E+02 0.22817347407E+02 0.14394325721E+02
 0.90103010559E+01 0.56350187287E+01 0.35751196812E+01 0.23521878628E+01 0.16306358567E+01
 0.12053992422E+01 0.97405622061E+00 0.87098722339E+00 0.83111047894E+00 0.81150240533E+00
 0.80648705018E+00 0.81667906076E+00 0.63030520335E+00 0.61355761882E+00 0.59404058819E+00
 0.61134994309E+00 0.65688053995E+00 0.72335065004E+00 0.87098722339E+00 0.11910096391E+01
 0.17518036489E+01 0.26659064557E+01 0.42084640887E+01 0.68399776760E+01 0.11197332679E+02
 0.18228117928E+02 0.29434270217E+02 0.47010768372E+02 0.73721873604E+02 0.11232127467E+03
 0.16402078983E+03 0.22233962269E+03 0.27397327987E+03 0.30885207652E+03 0.32496954481E+03
 0.32848659680E+03 0.32828412817E+03 0.32848659680E+03 0.32496954481E+03 0.30885207652E+03
 0.27397327987E+03 0.22233962269E+03 0.16402078983E+03 0.11232127467E+03 0.73721873604E+02
 0.47010768372E+02 0.29434270217E+02 0.18228117928E+02 0.11197332679E+02 0.68399776760E+01
 0.42084640887E+01 0.26659064557E+01 0.17518036489E+01 0.11910096391E+01 0.87098722339E+00
 0.72335065004E+00 0.65688053995E+00 0.61134994309E+00 0.59404058819E+00 0.61355761882E+00
 0.54545672161E+00 0.51440490812E+00 0.47826403715E+00 0.50781588812E+00 0.57763029211E+00
 0.65688053995E+00 0.83111047894E+00 0.12297596869E+01 0.19187699551E+01 0.30120890079E+01
 0.48660100661E+01 0.80858441784E+01 0.13478425223E+02 0.22276844433E+02 0.36552111384E+02
 0.59403546838E+02 0.94677966106E+02 0.14594960834E+03 0.21100494420E+03 0.27397327987E+03
 0.31660546584E+03 0.32832861941E+03 0.31332270519E+03 0.28976581619E+03 0.27880047416E+03
 0.28976581619E+03 0.31332270519E+03 0.32832861941E+03 0.31660546584E+03 0.27397327987E+03
 0.21100494420E+03 0.14594960834E+03 0.94677966106E+02 0.59403546838E+02 0.36552111384E+02
 0.22276844433E+02 0.13478425223E+02 0.80858441784E+01 0.48660100661E+01 0.30120890079E+01
 0.19187699551E+01 0.12297596869E+01 0.83111047894E+00 0.65688053995E+00 0.57763029211E+00
 0.50781588812E+00 0.47826403715E+00 0.51440490812E+00 0.39025044991E+00 0.34938201054E+00
 0.31400825571E+00 0.38593151122E+00 0.50781588812E+00 0.61134994309E+00 0.81150240533E+00
 0.12855378881E+01 0.20936317136E+01 0.33438696997E+01 0.54783853439E+01 0.92538764337E+01
 0.15642056279E+02 0.26164325789E+02 0.43497191175E+02 0.71689881748E+02 0.11563641951E+03
 0.17883964374E+03 0.25117090070E+03 0.30885207652E+03 0.32832861941E+03 0.29904147300E+03
 0.23416734503E+03 0.16886800889E+03 0.14154370844E+03 0.16886800889E+03 0.23416734503E+03
 0.29904147300E+03 0.32832861941E+03 0.30885207652E+03 0.25117090070E+03 0.17883964374E+03
 0.11563641951E+03 0.71689881748E+02 0.43497191175E+02 0.26164325789E+02 0.15642056279E+02
 0.92538764337E+01 0.54783853439E+01 0.33438696997E+01 0.20936317136E+01 0.12855378881E+01
 0.81150240533E+00 0.61134994309E+00 0.50781588812E+00 0.38593151122E+00 0.31400825571E+00
 0.34938201054E+00 0.30060361597E+00 0.24765265060E+00 0.20735368561E+00 0.31400825571E+00
 0.47826403715E+00 0.59404058819E+00 0.80648705018E+00 0.13401543365E+01 0.22454618927E+01
 0.36181741293E+01 0.59771363239E+01 0.10214594922E+02 0.17441535935E+02 0.29430738250E+02
 0.49405351132E+02 0.82255930282E+02 0.13372055928E+03 0.20547464840E+03 0.27938907782E+03
 0.32496954481E+03 0.31332270519E+03 0.23416734503E+03 0.11077295214E+03 -.27891089613E+01
 -.48920375118E+02 -.27891089613E+01 0.11077295214E+03 0.23416734503E+03 0.31332270519E+03
 0.32496954481E+03 0.27938907782E+03 0.20547464840E+03 0.13372055928E+03 0.82255930282E+02
 0.49405351132E+02 0.29430738250E+02 0.17441535935E+02 0.10214594922E+02 0.59771363239E+01
 0.36181741293E+01 0.22454618927E+01 0.13401543365E+01 0.80648705018E+00 0.59404058819E+00
 0.47826403715E+00 0.31400825571E+00 0.20735368561E+00 0.24765265060E+00 0.38600507821E+00
 0.31514070383E+00 0.24765265060E+00 0.34938201054E+00 0.51440490812E+00 0.61355761882E+00
 0.81667906076E+00 0.13822648646E+01 0.23492321618E+01 0.37992116533E+01 0.63034128125E+01
 0.10848459232E+02 0.18638803400E+02 0.31619699705E+02 0.53397223979E+02 0.89440776779E+02
 0.14601588884E+03 0.22237534138E+03 0.29501799686E+03 0.32848659680E+03 0.28976581619E+03
 0.16886800889E+03 -.27891089613E+01 -.15589996688E+03 -.21740408335E+03 -.15589996688E+03
 -.27891089613E+01 0.16886800889E+03 0.28976581619E+03 0.32848659680E+03 0.29501799686E+03
 0.22237534138E+03 0.14601588884E+03 0.89440776779E+02 0.53397223979E+02 0.31619699705E+02
 0.18638803400E+02 0.10848459232E+02 0.63034128125E+01 0.37992116533E+01 0.23492321618E+01
 0.13822648646E+01 0.81667906076E+00 0.61355761882E+00 0.51440490812E+00 0.34938201054E+00
 0.24765265060E+00 0.31514070383E+00 0.46646709238E+00 0.38600507821E+00 0.30060361597E+00
 0.39025044991E+00 0.54545672161E+00 0.63030520335E+00 0.82448500695E+00 0.13986469893E+01
 0.23862689542E+01 0.38625029162E+01 0.64169631059E+01 0.11070106824E+02 0.19059330577E+02
 0.32391382383E+02 0.54810178691E+02 0.91991252453E+02 0.15036639339E+03 0.22811282782E+03
 0.29986069146E+03 0.32828412817E+03 0.27880047416E+03 0.14154370844E+03 -.48920375118E+02
 -.21740408335E+03 -.28487782509E+03 -.21740408335E+03 -.48920375118E+02 0.14154370844E+03
 0.27880047416E+03 0.32828412817E+03 0.29986069146E+03 0.22811282782E+03 0.15036639339E+03
 0.91991252453E+02 0.54810178691E+02 0.32391382383E+02 0.19059330577E+02 0.11070106824E+02
 0.64169631059E+01 0.38625029162E+01 0.23862689542E+01 0.13986469893E+01 0.82448500695E+00
 0.63030520335E+00 0.54545672161E+00 0.39025044991E+00 0.30060361597E+00 0.38600507821E+00
 0.38600507821E+00 0.31514070383E+00 0.24765265060E+00 0.34938201054E+00 0.51440490812E+00
 0.61355761882E+00 0.81667906076E+00 0.13822648646E+01 0.23492321618E+01 0.37992116533E+01
 0.63034128125E+01 0.10848459232E+02 0.18638803400E+02 0.31619699705E+02 0.53397223979E+02
 0.89440776779E+02 0.14601588884E+03 0.22237534138E+03 0.29501799686E+03 0.32848659680E+03
 0.28976581619E+03 0.16886800889E+03 -.27891089613E+01 -.15589996688E+03 -.21740408335E+03
 -.15589996688E+03 -.27891089613E+01 0.16886800889E+03 0.28976581619E+03 0.32848659680E+03
 0.29501799686E+03 0.22237534138E+03 0.14601588884E+03 0.89440776779E+02 0.53397223979E+02
 0.31619699705E+02 0.18638803400E+02 0.10848459232E+02 0.63034128125E+01 0.37992116533E+01
 0.23492321618E+01 0.13822648646E+01 0.81667906076E+00 0.61355761882E+00 0.51440490812E+00
 0.34938201054E+00 0.24765265060E+00 0.31514070383E+00 0.30060361597E+00 0.24765265060E+00
 0.20735368561E+00 0.31400825571E+00 0.47826403715E+00 0.59404058819E+00 0.80648705018E+00
 0.13401543365E+01 0.22454618927E+01 0.36181741293E+01 0.59771363239E+01 0.10214594922E+02
 0.17441535935E+02 0.29430738250E+02 0.49405351132E+02 0.82255930282E+02 0.13372055928E+03
 0.20547464840E+03 0.27938907782E+03 0.32496954481E+03 0.31332270519E+03 0.23416734503E+03
 0.11077295214E+03 -.27891089613E+01 -.48920375118E+02 -.27891089613E+01 0.11077295214E+03
 0.23416734503E+03 0.31332270519E+03 0.32496954481E+03 0.27938907782E+03 0.20547464840E+03
 0.13372055928E+03 0.82255930282E+02 0.49405351132E+02 0.29430738250E+02 0.17441535935E+02
 0.10214594922E+02 0.59771363239E+01 0.36181741293E+01 0.22454618927E+01 0.13401543365E+01
 0.80648705018E+00 0.59404058819E+00 0.47826403715E+00 0.31400825571E+00 0.20735368561E+00
 0.24765265060E+00 0.39025044991E+00 0.34938201054E+00 0.31400825571E+00 0.38593151122E+00
 0.50781588812E+00 0.61134994309E+00 0.81150240533E+00 0.12855378881E+01 0.20936317136E+01
 0.33438696997E+01 0.54783853439E+01 0.92538764337E+01 0.15642056279E+02 0.26164325789E+02
 0.43497191175E+02 0.71689881748E+02 0.11563641951E+03 0.17883964374E+03 0.25117090070E+03
 0.30885207652E+03 0.32832861941E+03 0.29904147300E+03 0.23416734503E+03 0.16886800889E+03
 0.14154370844E+03 0.16886800889E+03 0.23416734503E+03 0.29904147300E+03 0.32832861941E+03
 0.30885207652E+03 0.25117090070E+03 0.17883964374E+03 0.11563641951E+03 0.71689881748E+02
 0.43497191175E+02 0.26164325789E+02 0.15642056279E+02 0.92538764337E+01 0.54783853439E+01
 0.33438696997E+01 0.20936317136E+01 0.12855378881E+01 0.81150240533E+00 0.61134994309E+00
 0.50781588812E+00 0.38593151122E+00 0.31400825571E+00 0.34938201054E+00 0.54545672161E+00
 0.51440490812E+00 0.47826403715E+00 0.50781588812E+00 0.57763029211E+00 0.65688053995E+00
 0.83111047894E+00 0.12297596869E+01 0.19187699551E+01 0.30120890079E+01 0.48660100661E+01
 0.80858441784E+01 0.13478425223E+02 0.22276844433E+02 0.36552111384E+02 0.59403546838E+02
 0.94677966106E+02 0.14594960834E+03 0.21100494420E+03 0.27397327987E+03 0.31660546584E+03
 0.32832861941E+03 0.31332270519E+03 0.28976581619E+03 0.27880047416E+03 0.28976581619E+03
 0.31332270519E+03 0.32832861941E+03 0.31660546584E+03 0.27397327987E+03 0.21100494420E+03
 0.14594960834E+03 0.94677966106E+02 0.59403546838E+02 0.36552111384E+02 0.22276844433E+02
 0.13478425223E+02 0.80858441784E+01 0.48660100661E+01 0.30120890079E+01 0.19187699551E+01
 0.12297596869E+01 0.83111047894E+00 0.65688053995E+00 0.57763029211E+00 0.50781588812E+00
 0.47826403715E+00 0.51440490812E+00 0.63030520335E+00 0.61355761882E+00 0.59404058819E+00
 0.61134994309E+00 0.65688053995E+00 0.72335065004E+00 0.87098722339E+00 0.11910096391E+01
 0.17518036489E+01 0.26659064557E+01 0.42084640887E+01 0.68399776760E+01 0.11197332679E+02
 0.18228117928E+02 0.29434270217E+02 0.47010768372E+02 0.73721873604E+02 0.11232127467E+03
 0.16402078983E+03 0.22233962269E+03 0.27397327987E+03 0.30885207652E+03 0.32496954481E+03
 0.32848659680E+03 0.32828412817E+03 0.32848659680E+03 0.32496954481E+03 0.30885207652E+03
 0.27397327987E+03 0.22233962269E+03 0.16402078983E+03 0.11232127467E+03 0.73721873604E+02
 0.47010768372E+02 0.29434270217E+02 0.18228117928E+02 0.11197332679E+02 0.68399776760E+01
 0.42084640887E+01 0.26659064557E+01 0.17518036489E+01 0.11910096391E+01 0.87098722339E+00
 0.72335065004E+00 0.65688053995E+00 0.61134994309E+00 0.59404058819E+00 0.61355761882E+00
 0.82448500695E+00 0.81667906076E+00 0.80648705018E+00 0.81150240533E+00 0.83111047894E+00
 0.87098722339E+00 0.97405622061E+00 0.12053992422E+01 0.16306358567E+01 0.23521878628E+01
 0.35751196812E+01 0.56350187287E+01 0.90103010559E+01 0.14394325721E+02 0.22817347407E+02
 0.35725746718E+02 0.54931431982E+02 0.82300598067E+02 0.11897722497E+03 0.16402078983E+03
 0.21100494420E+03 0.25117090070E+03 0.27938907782E+03 0.29501799686E+03 0.29986069146E+03
 0.29501799686E+03 0.27938907782E+03 0.25117090070E+03 0.21100494420E+03 0.16402078983E+03
 0.11897722497E+03 0.82300598067E+02 0.54931431982E+02 0.35725746718E+02 0.22817347407E+02
 0.14394325721E+02 0.90103010559E+01 0.56350187287E+01 0.35751196812E+01 0.23521878628E+01
 0.16306358567E+01 0.12053992422E+01 0.97405622061E+00 0.87098722339E+00 0.83111047894E+00
 0.81150240533E+00 0.80648705018E+00 0.81667906076E+00 0.13986469893E+01 0.13822648646E+01
 0.13401543365E+01 0.12855378881E+01 0.12297596869E+01 0.11910096391E+01 0.12053992422E+01
 0.13221375691E+01 0.15983064504E+01 0.21183198733E+01 0.30291947461E+01 0.45659060520E+01
 0.70703929195E+01 0.11027200239E+02 0.17112168179E+02 0.26222183320E+02 0.39445704016E+02
 0.57897273038E+02 0.82300598067E+02 0.11232127467E+03 0.14594960834E+03 0.17883964374E+03
 0.20547464840E+03 0.22237534138E+03 0.22811282782E+03 0.22237534138E+03 0.20547464840E+03
 0.17883964374E+03 0.14594960834E+03 0.11232127467E+03 0.82300598067E+02 0.57897273038E+02
 0.39445704016E+02 0.26222183320E+02 0.17112168179E+02 0.11027200239E+02 0.70703929195E+01
 0.45659060520E+01 0.30291947461E+01 0.21183198733E+01 0.15983064504E+01 0.13221375691E+01
 0.12053992422E+01 0.11910096391E+01 0.12297596869E+01 0.12855378881E+01 0.13401543365E+01
 0.13822648646E+01 0.23862689542E+01 0.23492321618E+01 0.22454618927E+01 0.20936317136E+01
 0.19187699551E+01 0.17518036489E+01 0.16306358567E+01 0.15983064504E+01 0.17034849284E+01
 0.20115079905E+01 0.26240444145E+01 0.36989975030E+01 0.54682130187E+01 0.82548650743E+01
 0.12486527744E+02 0.18694529071E+02 0.27485048076E+02 0.39445704016E+02 0.54931431982E+02
 0.73721873604E+02 0.94677966106E+02 0.11563641951E+03 0.13372055928E+03 0.14601588884E+03
 0.15036639339E+03 0.14601588884E+03 0.13372055928E+03 0.11563641951E+03 0.94677966106E+02
 0.73721873604E+02 0.54931431982E+02 0.39445704016E+02 0.27485048076E+02 0.18694529071E+02
 0.12486527744E+02 0.82548650743E+01 0.54682130187E+01 0.36989975030E+01 0.26240444145E+01
 0.20115079905E+01 0.17034849284E+01 0.15983064504E+01 0.16306358567E+01 0.17518036489E+01
 0.19187699551E+01 0.20936317136E+01 0.22454618927E+01 0.23492321618E+01 0.38625029162E+01
 0.37992116533E+01 0.36181741293E+01 0.33438696997E+01 0.30120890079E+01 0.26659064557E+01
 0.23521878628E+01 0.21183198733E+01 0.20115079905E+01 0.20840382161E+01 0.24048932519E+01
 0.30747987766E+01 0.42408871128E+01 0.61066926179E+01 0.89325054607E+01 0.13022427898E+02
 0.18694529071E+02 0.26222183320E+02 0.35725746718E+02 0.47010768372E+02 0.59403546838E+02
 0.71689881748E+02 0.82255930282E+02 0.89440776779E+02 0.91991252453E+02 0.89440776779E+02
 0.82255930282E+02 0.71689881748E+02 0.59403546838E+02 0.47010768372E+02 0.35725746718E+02
 0.26222183320E+02 0.18694529071E+02 0.13022427898E+02 0.89325054607E+01 0.61066926179E+01
 0.42408871128E+01 0.30747987766E+01 0.24048932519E+01 0.20840382161E+01 0.20115079905E+01