   4   4   0   0
  0.8778045E+02  0.7054820E-09  0.7054820E-09  0.7054820E-09  0.5000000E-15
  1.000000000000000E-004
  CAR 
 Xe                                      
     10.40776987    -20.24302525  301     -6.75028981      1.00000000
    -20.243  0.0000E+00  0.0000E+00
    -20.141  0.0000E+00  0.0000E+00
    -20.039  0.0000E+00  0.0000E+00
    -19.937  0.0000E+00  0.0000E+00
    -19.834  0.0000E+00  0.0000E+00
    -19.732  0.0000E+00  0.0000E+00
    -19.630  0.0000E+00  0.0000E+00
    -19.528  0.0000E+00  0.0000E+00
    -19.426  0.0000E+00  0.0000E+00
    -19.324  0.0000E+00  0.0000E+00
    -19.221  0.0000E+00  0.0000E+00
    -19.119  0.7190E-14  0.7346E-15
    -19.017  0.1287E-05  0.1315E-06
    -18.915  0.1304E+00  0.1332E-01
    -18.813  0.2793E+02  0.2867E+01
    -18.710  0.4953E+02  0.7927E+01
    -18.608  0.7138E+00  0.8000E+01
    -18.506  0.9174E-05  0.8000E+01
    -18.404  0.4354E-13  0.8000E+01
    -18.302  0.0000E+00  0.8000E+01
    -18.200  0.0000E+00  0.8000E+01
    -18.097  0.0000E+00  0.8000E+01
    -17.995  0.0000E+00  0.8000E+01
    -17.893  0.0000E+00  0.8000E+01
    -17.791  0.0000E+00  0.8000E+01
    -17.689  0.0000E+00  0.8000E+01
    -17.587  0.0000E+00  0.8000E+01
    -17.484  0.0000E+00  0.8000E+01
    -17.382  0.0000E+00  0.8000E+01
    -17.280  0.0000E+00  0.8000E+01
    -17.178  0.0000E+00  0.8000E+01
    -17.076  0.0000E+00  0.8000E+01
    -16.974  0.0000E+00  0.8000E+01
    -16.871  0.0000E+00  0.8000E+01
    -16.769  0.0000E+00  0.8000E+01
    -16.667  0.0000E+00  0.8000E+01
    -16.565  0.0000E+00  0.8000E+01
    -16.463  0.0000E+00  0.8000E+01
    -16.361  0.0000E+00  0.8000E+01
    -16.258  0.0000E+00  0.8000E+01
    -16.156  0.0000E+00  0.8000E+01
    -16.054  0.0000E+00  0.8000E+01
    -15.952  0.0000E+00  0.8000E+01
    -15.850  0.0000E+00  0.8000E+01
    -15.748  0.0000E+00  0.8000E+01
    -15.645  0.0000E+00  0.8000E+01
    -15.543  0.0000E+00  0.8000E+01
    -15.441  0.0000E+00  0.8000E+01
    -15.339  0.0000E+00  0.8000E+01
    -15.237  0.0000E+00  0.8000E+01
    -15.135  0.0000E+00  0.8000E+01
    -15.032  0.0000E+00  0.8000E+01
    -14.930  0.0000E+00  0.8000E+01
    -14.828  0.0000E+00  0.8000E+01
    -14.726  0.0000E+00  0.8000E+01
    -14.624  0.0000E+00  0.8000E+01
    -14.522  0.0000E+00  0.8000E+01
    -14.419  0.0000E+00  0.8000E+01
    -14.317  0.0000E+00  0.8000E+01
    -14.215  0.0000E+00  0.8000E+01
    -14.113  0.0000E+00  0.8000E+01
    -14.011  0.0000E+00  0.8000E+01
    -13.909  0.0000E+00  0.8000E+01
    -13.806  0.0000E+00  0.8000E+01
    -13.704  0.0000E+00  0.8000E+01
    -13.602  0.0000E+00  0.8000E+01
    -13.500  0.0000E+00  0.8000E+01
    -13.398  0.0000E+00  0.8000E+01
    -13.296  0.0000E+00  0.8000E+01
    -13.193  0.0000E+00  0.8000E+01
    -13.091  0.0000E+00  0.8000E+01
    -12.989  0.0000E+00  0.8000E+01
    -12.887  0.0000E+00  0.8000E+01
    -12.785  0.0000E+00  0.8000E+01
    -12.682  0.0000E+00  0.8000E+01
    -12.580  0.0000E+00  0.8000E+01
    -12.478  0.0000E+00  0.8000E+01
    -12.376  0.0000E+00  0.8000E+01
    -12.274  0.0000E+00  0.8000E+01
    -12.172  0.0000E+00  0.8000E+01
    -12.069  0.0000E+00  0.8000E+01
    -11.967  0.0000E+00  0.8000E+01
    -11.865  0.0000E+00  0.8000E+01
    -11.763  0.0000E+00  0.8000E+01
    -11.661  0.0000E+00  0.8000E+01
    -11.559  0.0000E+00  0.8000E+01
    -11.456  0.0000E+00  0.8000E+01
    -11.354  0.0000E+00  0.8000E+01
    -11.252  0.0000E+00  0.8000E+01
    -11.150  0.0000E+00  0.8000E+01
    -11.048  0.0000E+00  0.8000E+01
    -10.946  0.0000E+00  0.8000E+01
    -10.843  0.0000E+00  0.8000E+01
    -10.741  0.0000E+00  0.8000E+01
    -10.639  0.0000E+00  0.8000E+01
    -10.537  0.0000E+00  0.8000E+01
    -10.435  0.0000E+00  0.8000E+01
    -10.333  0.0000E+00  0.8000E+01
    -10.230  0.0000E+00  0.8000E+01
    -10.128  0.0000E+00  0.8000E+01
    -10.026  0.0000E+00  0.8000E+01
     -9.924  0.0000E+00  0.8000E+01
     -9.822  0.0000E+00  0.8000E+01
     -9.720  0.0000E+00  0.8000E+01
     -9.617  0.0000E+00  0.8000E+01
     -9.515  0.0000E+00  0.8000E+01
     -9.413  0.0000E+00  0.8000E+01
     -9.311  0.0000E+00  0.8000E+01
     -9.209  0.0000E+00  0.8000E+01
     -9.107  0.0000E+00  0.8000E+01
     -9.004  0.0000E+00  0.8000E+01
     -8.902  0.0000E+00  0.8000E+01
     -8.800  0.0000E+00  0.8000E+01
     -8.698  0.0000E+00  0.8000E+01
     -8.596  0.0000E+00  0.8000E+01
     -8.494  0.0000E+00  0.8000E+01
     -8.391  0.0000E+00  0.8000E+01
     -8.289  0.0000E+00  0.8000E+01
     -8.187  0.0000E+00  0.8000E+01
     -8.085  0.0000E+00  0.8000E+01
     -7.983  0.0000E+00  0.8000E+01
     -7.881  0.4865E-09  0.8000E+01
     -7.778  0.6899E-03  0.8000E+01
     -7.676  0.9496E+00  0.8097E+01
     -7.574  0.1817E+02  0.9953E+01
     -7.472  0.3904E+02  0.1394E+02
     -7.370  0.2157E+02  0.1615E+02
     -7.268  0.3074E+02  0.1929E+02
     -7.165  0.5750E+02  0.2516E+02
     -7.063  0.5586E+02  0.3087E+02
     -6.961  0.1102E+02  0.3199E+02
     -6.859  0.6611E-01  0.3200E+02
     -6.757  0.7282E-06  0.3200E+02
     -6.655  0.3842E-14  0.3200E+02
     -6.552  0.0000E+00  0.3200E+02
     -6.450  0.0000E+00  0.3200E+02
     -6.348  0.0000E+00  0.3200E+02
     -6.246  0.0000E+00  0.3200E+02
     -6.144  0.0000E+00  0.3200E+02
     -6.041  0.0000E+00  0.3200E+02
     -5.939  0.0000E+00  0.3200E+02
     -5.837  0.0000E+00  0.3200E+02
     -5.735  0.0000E+00  0.3200E+02
     -5.633  0.0000E+00  0.3200E+02
     -5.531  0.0000E+00  0.3200E+02
     -5.428  0.0000E+00  0.3200E+02
     -5.326  0.0000E+00  0.3200E+02
     -5.224  0.0000E+00  0.3200E+02
     -5.122  0.0000E+00  0.3200E+02
     -5.020  0.0000E+00  0.3200E+02
     -4.918  0.0000E+00  0.3200E+02
     -4.815  0.0000E+00  0.3200E+02
     -4.713  0.0000E+00  0.3200E+02
     -4.611  0.0000E+00  0.3200E+02
     -4.509  0.0000E+00  0.3200E+02
     -4.407  0.0000E+00  0.3200E+02
     -4.305  0.0000E+00  0.3200E+02
     -4.202  0.0000E+00  0.3200E+02
     -4.100  0.0000E+00  0.3200E+02
     -3.998  0.0000E+00  0.3200E+02
     -3.896  0.0000E+00  0.3200E+02
     -3.794  0.0000E+00  0.3200E+02
     -3.692  0.0000E+00  0.3200E+02
     -3.589  0.0000E+00  0.3200E+02
     -3.487  0.0000E+00  0.3200E+02
     -3.385  0.0000E+00  0.3200E+02
     -3.283  0.0000E+00  0.3200E+02
     -3.181  0.0000E+00  0.3200E+02
     -3.079  0.0000E+00  0.3200E+02
     -2.976  0.0000E+00  0.3200E+02
     -2.874  0.0000E+00  0.3200E+02
     -2.772  0.0000E+00  0.3200E+02
     -2.670  0.0000E+00  0.3200E+02
     -2.568  0.0000E+00  0.3200E+02
     -2.466  0.0000E+00  0.3200E+02
     -2.363  0.0000E+00  0.3200E+02
     -2.261  0.0000E+00  0.3200E+02
     -2.159  0.0000E+00  0.3200E+02
     -2.057  0.0000E+00  0.3200E+02
     -1.955  0.0000E+00  0.3200E+02
     -1.853  0.0000E+00  0.3200E+02
     -1.750  0.0000E+00  0.3200E+02
     -1.648  0.0000E+00  0.3200E+02
     -1.546  0.0000E+00  0.3200E+02
     -1.444  0.0000E+00  0.3200E+02
     -1.342  0.0000E+00  0.3200E+02
     -1.240  0.0000E+00  0.3200E+02
     -1.137  0.0000E+00  0.3200E+02
     -1.035  0.1271E-10  0.3200E+02
     -0.933  0.1214E-04  0.3200E+02
     -0.831  0.1182E-01  0.3200E+02
     -0.729  0.1792E+00  0.3202E+02
     -0.627  0.3513E+00  0.3206E+02
     -0.524  0.4593E+00  0.3210E+02
     -0.422  0.6678E+00  0.3217E+02
     -0.320  0.7255E+00  0.3224E+02
     -0.218  0.7228E+00  0.3232E+02
     -0.116  0.1106E+01  0.3243E+02
     -0.014  0.1041E+01  0.3254E+02
      0.089  0.1196E+01  0.3266E+02
      0.191  0.1501E+01  0.3281E+02
      0.293  0.1380E+01  0.3295E+02
      0.395  0.1860E+01  0.3314E+02
      0.497  0.1830E+01  0.3333E+02
      0.600  0.2340E+01  0.3357E+02
      0.702  0.2275E+01  0.3380E+02
      0.804  0.3515E+01  0.3416E+02
      0.906  0.3527E+01  0.3452E+02
      1.008  0.5731E+01  0.3511E+02
      1.110  0.6855E+01  0.3581E+02
      1.213  0.5647E+01  0.3639E+02
      1.315  0.7298E+01  0.3713E+02
      1.417  0.4704E+01  0.3761E+02
      1.519  0.6954E+01  0.3832E+02
      1.621  0.4292E+01  0.3876E+02
      1.723  0.5897E+01  0.3936E+02
      1.826  0.4117E+01  0.3978E+02
      1.928  0.3204E+01  0.4011E+02
      2.030  0.4853E+01  0.4061E+02
      2.132  0.1020E+02  0.4165E+02
      2.234  0.1239E+02  0.4292E+02
      2.336  0.1029E+02  0.4397E+02
      2.439  0.9068E+01  0.4489E+02
      2.541  0.8574E+01  0.4577E+02
      2.643  0.1014E+02  0.4681E+02
      2.745  0.1142E+02  0.4797E+02
      2.847  0.1098E+02  0.4909E+02
      2.949  0.1304E+02  0.5043E+02
      3.052  0.1346E+02  0.5180E+02
      3.154  0.8945E+01  0.5272E+02
      3.256  0.7855E+01  0.5352E+02
      3.358  0.5833E+01  0.5411E+02
      3.460  0.5127E+01  0.5464E+02
      3.562  0.5148E+01  0.5516E+02
      3.665  0.4828E+01  0.5566E+02
      3.767  0.6452E+01  0.5632E+02
      3.869  0.8976E+01  0.5723E+02
      3.971  0.1016E+02  0.5827E+02
      4.073  0.9921E+01  0.5928E+02
      4.175  0.1131E+02  0.6044E+02
      4.278  0.9339E+01  0.6139E+02
      4.380  0.7690E+01  0.6218E+02
      4.482  0.5396E+01  0.6273E+02
      4.584  0.5340E+01  0.6328E+02
      4.686  0.5733E+01  0.6386E+02
      4.788  0.5927E+01  0.6447E+02
      4.891  0.4033E+01  0.6488E+02
      4.993  0.4381E+01  0.6533E+02
      5.095  0.3835E+01  0.6572E+02
      5.197  0.5905E+01  0.6632E+02
      5.299  0.6170E+01  0.6695E+02
      5.401  0.6971E+01  0.6767E+02
      5.504  0.1034E+02  0.6872E+02
      5.606  0.1155E+02  0.6990E+02
      5.708  0.8061E+01  0.7073E+02
      5.810  0.7815E+01  0.7152E+02
      5.912  0.6621E+01  0.7220E+02
      6.014  0.5856E+01  0.7280E+02
      6.117  0.6447E+01  0.7346E+02
      6.219  0.6166E+01  0.7409E+02
      6.321  0.7708E+01  0.7487E+02
      6.423  0.5472E+01  0.7543E+02
      6.525  0.8961E+01  0.7635E+02
      6.628  0.9219E+01  0.7729E+02
      6.730  0.8988E+01  0.7821E+02
      6.832  0.1092E+02  0.7933E+02
      6.934  0.1224E+02  0.8058E+02
      7.036  0.1041E+02  0.8164E+02
      7.138  0.1010E+02  0.8267E+02
      7.241  0.1351E+02  0.8405E+02
      7.343  0.1191E+02  0.8527E+02
      7.445  0.9810E+01  0.8627E+02
      7.547  0.1029E+02  0.8732E+02
      7.649  0.9701E+01  0.8831E+02
      7.751  0.6099E+01  0.8893E+02
      7.854  0.4895E+01  0.8943E+02
      7.956  0.8339E+01  0.9029E+02
      8.058  0.8966E+01  0.9120E+02
      8.160  0.6049E+01  0.9182E+02
      8.262  0.4898E+01  0.9232E+02
      8.364  0.6464E+01  0.9298E+02
      8.467  0.7979E+01  0.9380E+02
      8.569  0.6462E+01  0.9446E+02
      8.671  0.5829E+01  0.9505E+02
      8.773  0.2693E+01  0.9533E+02
      8.875  0.3460E+01  0.9568E+02
      8.977  0.2673E+01  0.9595E+02
      9.080  0.4365E+00  0.9600E+02
      9.182  0.9264E-02  0.9600E+02
      9.284  0.2976E-06  0.9600E+02
      9.386  0.3320E-14  0.9600E+02
      9.488  0.0000E+00  0.9600E+02
      9.590  0.0000E+00  0.9600E+02
      9.693  0.0000E+00  0.9600E+02
      9.795  0.0000E+00  0.9600E+02
      9.897  0.0000E+00  0.9600E+02
      9.999  0.0000E+00  0.9600E+02
     10.101  0.0000E+00  0.9600E+02
     10.203  0.0000E+00  0.9600E+02
     10.306  0.0000E+00  0.9600E+02
     10.408  0.0000E+00  0.9600E+02
