 DBCSR| CPU Multiplication driver                                           BLAS (U)
 DBCSR| Multrec recursion limit                                              512 (U)
 DBCSR| Multiplication stack size                                           1000 (D)
 DBCSR| Maximum elements for images                                    UNLIMITED (U)
 DBCSR| Multiplicative factor virtual images                                   1 (U)
 DBCSR| Use multiplication densification                                       T (D)
 DBCSR| Multiplication size stacks                                             3 (U)
 DBCSR| Use memory pool for CPU allocation                                     F (U)
 DBCSR| Number of 3D layers                                               SINGLE (U)
 DBCSR| Use MPI memory allocation                                              F (U)
 DBCSR| Use RMA algorithm                                                      F (U)
 DBCSR| Use Communication thread                                               T (U)
 DBCSR| Communication thread load                                             45 (D)
 DBCSR| MPI: My process id                                                     0
 DBCSR| MPI: Number of processes                                               8
 DBCSR| OMP: Current number of threads                                        12
 DBCSR| OMP: Max number of threads                                            12
 DBCSR| Split modifier for TAS multiplication algorithm                  1.0E+00 (U)


  **** **** ******  **  PROGRAM STARTED AT               2025-08-04 14:49:19.105
 ***** ** ***  *** **   PROGRAM STARTED ON                          i04r01c03s11
 **    ****   ******    PROGRAM STARTED BY                               di38fab
 ***** **    ** ** **   PROGRAM PROCESS ID                               3326229
  **** **  *******  **  PROGRAM STARTED IN /hppfs/scratch/04/di38fab/09_GTH/Delt
                                           a_Set/Se/aug-SZV-MOLOPT-GTH-tier-2/8x
                                           8x8

 CP2K| version string:                 CP2K version 2025.1 (Development Version)
 CP2K| source code revision number:                                  git:3130539
 CP2K| cp2kflags: omp libint fftw3 libxc parallel scalapack max_contr=4         
 CP2K| is freely available from                            https://www.cp2k.org/
 CP2K| Program compiled at                         Tue Jun  3 16:14:32 CEST 2025
 CP2K| Program compiled on                                               login01
 CP2K| Program compiled for                                        Supermuc-foss
 CP2K| Data directory path                  /hppfs/work/pn36zo/di38fab/cp2k/data
 CP2K| Input file name                                                    GW.inp

 GLOBAL| Force Environment number                                              1
 GLOBAL| Basis set file name            /hppfs/scratch/04/di38fab/09_GTH/BASIS_A
 GLOBAL| Potential file name            /hppfs/work/pn36zo/di38fab/cp2k/data/GTH
 GLOBAL| MM Potential file name                                     MM_POTENTIAL
 GLOBAL| Coordinate file name                                             Se.cif
 GLOBAL| Method name                                                        CP2K
 GLOBAL| Project name                                                       WSe2
 GLOBAL| Run type                                                         ENERGY
 GLOBAL| FFT library                                                       FFTW3
 GLOBAL| Diagonalization library                                       ScaLAPACK
 GLOBAL| Cholesky decomposition library                                ScaLAPACK
 GLOBAL| DGEMM library                                                      BLAS
 GLOBAL| Orthonormality check for eigenvectors                          DISABLED
 GLOBAL| Matrix multiplication library                                 ScaLAPACK
 GLOBAL| All-to-all communication in single precision                          F
 GLOBAL| FFTs using library dependent lengths                                  F
 GLOBAL| Grid backend                                                       AUTO
 GLOBAL| Global print level                                               MEDIUM
 GLOBAL| MPI I/O enabled                                                       T
 GLOBAL| Total number of message passing processes                             8
 GLOBAL| Number of threads for this process                                   12
 GLOBAL| This output is from process                                           0
 GLOBAL| OpenMP stack size per thread (OMP_STACKSIZE)                    default
 GLOBAL| CPU model name             Intel(R) Xeon(R) Platinum 8174 CPU @ 3.10GHz

 MEMORY| system memory details [Kb]
 MEMORY|                        rank 0           min           max       average
 MEMORY| MemTotal             98436660      98436660      98436896      98436778
 MEMORY| MemFree              84133480      84133480      84449728      84291604
 MEMORY| Buffers                     0             0             0             0
 MEMORY| Cached                2439636       2439636       2440392       2440014
 MEMORY| Slab                  1300328       1285296       1300328       1292812
 MEMORY| SReclaimable           285896        283980        285896        284938
 MEMORY| MemLikelyFree        86859012      86859012      87174100      87016556


 *** Fundamental physical constants (SI units) ***

 *** Literature: B. J. Mohr and B. N. Taylor,
 ***             CODATA recommended values of the fundamental physical
 ***             constants: 2006, Web Version 5.1
 ***             http://physics.nist.gov/constants

 Speed of light in vacuum [m/s]                             2.99792458000000E+08
 Magnetic constant or permeability of vacuum [N/A**2]       1.25663706143592E-06
 Electric constant or permittivity of vacuum [F/m]          8.85418781762039E-12
 Planck constant (h) [J*s]                                  6.62606896000000E-34
 Planck constant (h-bar) [J*s]                              1.05457162825177E-34
 Elementary charge [C]                                      1.60217648700000E-19
 Electron mass [kg]                                         9.10938215000000E-31
 Electron g factor [ ]                                     -2.00231930436220E+00
 Proton mass [kg]                                           1.67262163700000E-27
 Fine-structure constant                                    7.29735253760000E-03
 Rydberg constant [1/m]                                     1.09737315685270E+07
 Avogadro constant [1/mol]                                  6.02214179000000E+23
 Boltzmann constant [J/K]                                   1.38065040000000E-23
 Atomic mass unit [kg]                                      1.66053878200000E-27
 Bohr radius [m]                                            5.29177208590000E-11

 *** Conversion factors ***

 [u] -> [a.u.]                                              1.82288848426455E+03
 [Angstrom] -> [Bohr] = [a.u.]                              1.88972613288564E+00
 [a.u.] = [Bohr] -> [Angstrom]                              5.29177208590000E-01
 [a.u.] -> [s]                                              2.41888432650478E-17
 [a.u.] -> [fs]                                             2.41888432650478E-02
 [a.u.] -> [J]                                              4.35974393937059E-18
 [a.u.] -> [N]                                              8.23872205491840E-08
 [a.u.] -> [K]                                              3.15774647902944E+05
 [a.u.] -> [kJ/mol]                                         2.62549961709828E+03
 [a.u.] -> [kcal/mol]                                       6.27509468713739E+02
 [a.u.] -> [Pa]                                             2.94210107994716E+13
 [a.u.] -> [bar]                                            2.94210107994716E+08
 [a.u.] -> [atm]                                            2.90362800883016E+08
 [a.u.] -> [eV]                                             2.72113838565563E+01
 [a.u.] -> [Hz]                                             6.57968392072181E+15
 [a.u.] -> [1/cm] (wave numbers)                            2.19474631370540E+05
 [a.u./Bohr**2] -> [1/cm]                                   5.14048714338585E+03
 

 CELL_TOP| Volume [angstrom^3]:                                        89.530529
 CELL_TOP| Vector a [angstrom     4.525     0.000     0.000   |a| =     4.524640
 CELL_TOP| Vector b [angstrom    -2.262     3.918     0.000   |b| =     4.524640
 CELL_TOP| Vector c [angstrom     0.000     0.000     5.050   |c| =     5.049780
 CELL_TOP| Angle (b,c), alpha [degree]:                                90.000000
 CELL_TOP| Angle (a,c), beta  [degree]:                                90.000000
 CELL_TOP| Angle (a,b), gamma [degree]:                               120.000000
 CELL_TOP| Numerically orthorhombic:                                          NO
 CELL_TOP| Periodicity                                                       XYZ

 CELL_CIF| Volume [angstrom^3]:                                        89.530529
 CELL_CIF| Vector a [angstrom     4.525     0.000     0.000   |a| =     4.524640
 CELL_CIF| Vector b [angstrom    -2.262     3.918     0.000   |b| =     4.524640
 CELL_CIF| Vector c [angstrom     0.000     0.000     5.050   |c| =     5.049780
 CELL_CIF| Angle (b,c), alpha [degree]:                                90.000000
 CELL_CIF| Angle (a,c), beta  [degree]:                                90.000000
 CELL_CIF| Angle (a,b), gamma [degree]:                               120.000000
 CELL_CIF| Numerically orthorhombic:                                          NO
 CELL_CIF| Periodicity                                                       XYZ

 GENERATE|  Preliminary Number of Bonds generated:                             0
 GENERATE|  Achieved consistency in connectivity generation.

 CELL| Volume [angstrom^3]:                                            89.530529
 CELL| Vector a [angstrom]:       4.525     0.000     0.000   |a| =     4.524640
 CELL| Vector b [angstrom]:      -2.262     3.918     0.000   |b| =     4.524640
 CELL| Vector c [angstrom]:       0.000     0.000     5.050   |c| =     5.049780
 CELL| Angle (b,c), alpha [degree]:                                    90.000000
 CELL| Angle (a,c), beta  [degree]:                                    90.000000
 CELL| Angle (a,b), gamma [degree]:                                   120.000000
 CELL| Numerically orthorhombic:                                              NO
 CELL| Periodicity                                                           XYZ

 CELL_REF| Volume [angstrom^3]:                                        89.530529
 CELL_REF| Vector a [angstrom     4.525     0.000     0.000   |a| =     4.524640
 CELL_REF| Vector b [angstrom    -2.262     3.918     0.000   |b| =     4.524640
 CELL_REF| Vector c [angstrom     0.000     0.000     5.050   |c| =     5.049780
 CELL_REF| Angle (b,c), alpha [degree]:                                90.000000
 CELL_REF| Angle (a,c), beta  [degree]:                                90.000000
 CELL_REF| Angle (a,b), gamma [degree]:                               120.000000
 CELL_REF| Numerically orthorhombic:                                          NO
 CELL_REF| Periodicity                                                       XYZ

 *** WARNING in cryssym.F:180 :: Symmetry library SPGLIB not available ***


 *******************************************************************************
                                    Kpoints
 *******************************************************************************
 BRILLOUIN| K-point scheme                                        Monkhorst-Pack
 BRILLOUIN| K-Point grid                                             8    8    8
 BRILLOUIN| Accuracy in Symmetry determination                      0.100000E-05
 BRILLOUIN| K-Point point group symmetrization                               OFF
 BRILLOUIN| Wavefunction type                                            COMPLEX
 BRILLOUIN| List of Kpoints [2 Pi/Bohr]                                      256
 BRILLOUIN| Number           Weight            X              Y              Z
 BRILLOUIN|     1           0.00391       -0.43750       -0.43750       -0.43750
 BRILLOUIN|     2           0.00391       -0.43750       -0.43750       -0.31250
 BRILLOUIN|     3           0.00391       -0.43750       -0.43750       -0.18750
 BRILLOUIN|     4           0.00391       -0.43750       -0.43750       -0.06250
 BRILLOUIN|     5           0.00391       -0.43750       -0.43750        0.06250
 BRILLOUIN|     6           0.00391       -0.43750       -0.43750        0.18750
 BRILLOUIN|     7           0.00391       -0.43750       -0.43750        0.31250
 BRILLOUIN|     8           0.00391       -0.43750       -0.43750        0.43750
 BRILLOUIN|     9           0.00391       -0.43750       -0.31250       -0.43750
 BRILLOUIN|    10           0.00391       -0.43750       -0.31250       -0.31250
 BRILLOUIN|    11           0.00391       -0.43750       -0.31250       -0.18750
 BRILLOUIN|    12           0.00391       -0.43750       -0.31250       -0.06250
 BRILLOUIN|    13           0.00391       -0.43750       -0.31250        0.06250
 BRILLOUIN|    14           0.00391       -0.43750       -0.31250        0.18750
 BRILLOUIN|    15           0.00391       -0.43750       -0.31250        0.31250
 BRILLOUIN|    16           0.00391       -0.43750       -0.31250        0.43750
 BRILLOUIN|    17           0.00391       -0.43750       -0.18750       -0.43750
 BRILLOUIN|    18           0.00391       -0.43750       -0.18750       -0.31250
 BRILLOUIN|    19           0.00391       -0.43750       -0.18750       -0.18750
 BRILLOUIN|    20           0.00391       -0.43750       -0.18750       -0.06250
 BRILLOUIN|    21           0.00391       -0.43750       -0.18750        0.06250
 BRILLOUIN|    22           0.00391       -0.43750       -0.18750        0.18750
 BRILLOUIN|    23           0.00391       -0.43750       -0.18750        0.31250
 BRILLOUIN|    24           0.00391       -0.43750       -0.18750        0.43750
 BRILLOUIN|    25           0.00391       -0.43750       -0.06250       -0.43750
 BRILLOUIN|    26           0.00391       -0.43750       -0.06250       -0.31250
 BRILLOUIN|    27           0.00391       -0.43750       -0.06250       -0.18750
 BRILLOUIN|    28           0.00391       -0.43750       -0.06250       -0.06250
 BRILLOUIN|    29           0.00391       -0.43750       -0.06250        0.06250
 BRILLOUIN|    30           0.00391       -0.43750       -0.06250        0.18750
 BRILLOUIN|    31           0.00391       -0.43750       -0.06250        0.31250
 BRILLOUIN|    32           0.00391       -0.43750       -0.06250        0.43750
 BRILLOUIN|    33           0.00391       -0.43750        0.06250       -0.43750
 BRILLOUIN|    34           0.00391       -0.43750        0.06250       -0.31250
 BRILLOUIN|    35           0.00391       -0.43750        0.06250       -0.18750
 BRILLOUIN|    36           0.00391       -0.43750        0.06250       -0.06250
 BRILLOUIN|    37           0.00391       -0.43750        0.06250        0.06250
 BRILLOUIN|    38           0.00391       -0.43750        0.06250        0.18750
 BRILLOUIN|    39           0.00391       -0.43750        0.06250        0.31250
 BRILLOUIN|    40           0.00391       -0.43750        0.06250        0.43750
 BRILLOUIN|    41           0.00391       -0.43750        0.18750       -0.43750
 BRILLOUIN|    42           0.00391       -0.43750        0.18750       -0.31250
 BRILLOUIN|    43           0.00391       -0.43750        0.18750       -0.18750
 BRILLOUIN|    44           0.00391       -0.43750        0.18750       -0.06250
 BRILLOUIN|    45           0.00391       -0.43750        0.18750        0.06250
 BRILLOUIN|    46           0.00391       -0.43750        0.18750        0.18750
 BRILLOUIN|    47           0.00391       -0.43750        0.18750        0.31250
 BRILLOUIN|    48           0.00391       -0.43750        0.18750        0.43750
 BRILLOUIN|    49           0.00391       -0.43750        0.31250       -0.43750
 BRILLOUIN|    50           0.00391       -0.43750        0.31250       -0.31250
 BRILLOUIN|    51           0.00391       -0.43750        0.31250       -0.18750
 BRILLOUIN|    52           0.00391       -0.43750        0.31250       -0.06250
 BRILLOUIN|    53           0.00391       -0.43750        0.31250        0.06250
 BRILLOUIN|    54           0.00391       -0.43750        0.31250        0.18750
 BRILLOUIN|    55           0.00391       -0.43750        0.31250        0.31250
 BRILLOUIN|    56           0.00391       -0.43750        0.31250        0.43750
 BRILLOUIN|    57           0.00391       -0.43750        0.43750       -0.43750
 BRILLOUIN|    58           0.00391       -0.43750        0.43750       -0.31250
 BRILLOUIN|    59           0.00391       -0.43750        0.43750       -0.18750
 BRILLOUIN|    60           0.00391       -0.43750        0.43750       -0.06250
 BRILLOUIN|    61           0.00391       -0.43750        0.43750        0.06250
 BRILLOUIN|    62           0.00391       -0.43750        0.43750        0.18750
 BRILLOUIN|    63           0.00391       -0.43750        0.43750        0.31250
 BRILLOUIN|    64           0.00391       -0.43750        0.43750        0.43750
 BRILLOUIN|    65           0.00391       -0.31250       -0.43750       -0.43750
 BRILLOUIN|    66           0.00391       -0.31250       -0.43750       -0.31250
 BRILLOUIN|    67           0.00391       -0.31250       -0.43750       -0.18750
 BRILLOUIN|    68           0.00391       -0.31250       -0.43750       -0.06250
 BRILLOUIN|    69           0.00391       -0.31250       -0.43750        0.06250
 BRILLOUIN|    70           0.00391       -0.31250       -0.43750        0.18750
 BRILLOUIN|    71           0.00391       -0.31250       -0.43750        0.31250
 BRILLOUIN|    72           0.00391       -0.31250       -0.43750        0.43750
 BRILLOUIN|    73           0.00391       -0.31250       -0.31250       -0.43750
 BRILLOUIN|    74           0.00391       -0.31250       -0.31250       -0.31250
 BRILLOUIN|    75           0.00391       -0.31250       -0.31250       -0.18750
 BRILLOUIN|    76           0.00391       -0.31250       -0.31250       -0.06250
 BRILLOUIN|    77           0.00391       -0.31250       -0.31250        0.06250
 BRILLOUIN|    78           0.00391       -0.31250       -0.31250        0.18750
 BRILLOUIN|    79           0.00391       -0.31250       -0.31250        0.31250
 BRILLOUIN|    80           0.00391       -0.31250       -0.31250        0.43750
 BRILLOUIN|    81           0.00391       -0.31250       -0.18750       -0.43750
 BRILLOUIN|    82           0.00391       -0.31250       -0.18750       -0.31250
 BRILLOUIN|    83           0.00391       -0.31250       -0.18750       -0.18750
 BRILLOUIN|    84           0.00391       -0.31250       -0.18750       -0.06250
 BRILLOUIN|    85           0.00391       -0.31250       -0.18750        0.06250
 BRILLOUIN|    86           0.00391       -0.31250       -0.18750        0.18750
 BRILLOUIN|    87           0.00391       -0.31250       -0.18750        0.31250
 BRILLOUIN|    88           0.00391       -0.31250       -0.18750        0.43750
 BRILLOUIN|    89           0.00391       -0.31250       -0.06250       -0.43750
 BRILLOUIN|    90           0.00391       -0.31250       -0.06250       -0.31250
 BRILLOUIN|    91           0.00391       -0.31250       -0.06250       -0.18750
 BRILLOUIN|    92           0.00391       -0.31250       -0.06250       -0.06250
 BRILLOUIN|    93           0.00391       -0.31250       -0.06250        0.06250
 BRILLOUIN|    94           0.00391       -0.31250       -0.06250        0.18750
 BRILLOUIN|    95           0.00391       -0.31250       -0.06250        0.31250
 BRILLOUIN|    96           0.00391       -0.31250       -0.06250        0.43750
 BRILLOUIN|    97           0.00391       -0.31250        0.06250       -0.43750
 BRILLOUIN|    98           0.00391       -0.31250        0.06250       -0.31250
 BRILLOUIN|    99           0.00391       -0.31250        0.06250       -0.18750
 BRILLOUIN|   100           0.00391       -0.31250        0.06250       -0.06250
 BRILLOUIN|   101           0.00391       -0.31250        0.06250        0.06250
 BRILLOUIN|   102           0.00391       -0.31250        0.06250        0.18750
 BRILLOUIN|   103           0.00391       -0.31250        0.06250        0.31250
 BRILLOUIN|   104           0.00391       -0.31250        0.06250        0.43750
 BRILLOUIN|   105           0.00391       -0.31250        0.18750       -0.43750
 BRILLOUIN|   106           0.00391       -0.31250        0.18750       -0.31250
 BRILLOUIN|   107           0.00391       -0.31250        0.18750       -0.18750
 BRILLOUIN|   108           0.00391       -0.31250        0.18750       -0.06250
 BRILLOUIN|   109           0.00391       -0.31250        0.18750        0.06250
 BRILLOUIN|   110           0.00391       -0.31250        0.18750        0.18750
 BRILLOUIN|   111           0.00391       -0.31250        0.18750        0.31250
 BRILLOUIN|   112           0.00391       -0.31250        0.18750        0.43750
 BRILLOUIN|   113           0.00391       -0.31250        0.31250       -0.43750
 BRILLOUIN|   114           0.00391       -0.31250        0.31250       -0.31250
 BRILLOUIN|   115           0.00391       -0.31250        0.31250       -0.18750
 BRILLOUIN|   116           0.00391       -0.31250        0.31250       -0.06250
 BRILLOUIN|   117           0.00391       -0.31250        0.31250        0.06250
 BRILLOUIN|   118           0.00391       -0.31250        0.31250        0.18750
 BRILLOUIN|   119           0.00391       -0.31250        0.31250        0.31250
 BRILLOUIN|   120           0.00391       -0.31250        0.31250        0.43750
 BRILLOUIN|   121           0.00391       -0.31250        0.43750       -0.43750
 BRILLOUIN|   122           0.00391       -0.31250        0.43750       -0.31250
 BRILLOUIN|   123           0.00391       -0.31250        0.43750       -0.18750
 BRILLOUIN|   124           0.00391       -0.31250        0.43750       -0.06250
 BRILLOUIN|   125           0.00391       -0.31250        0.43750        0.06250
 BRILLOUIN|   126           0.00391       -0.31250        0.43750        0.18750
 BRILLOUIN|   127           0.00391       -0.31250        0.43750        0.31250
 BRILLOUIN|   128           0.00391       -0.31250        0.43750        0.43750
 BRILLOUIN|   129           0.00391       -0.18750       -0.43750       -0.43750
 BRILLOUIN|   130           0.00391       -0.18750       -0.43750       -0.31250
 BRILLOUIN|   131           0.00391       -0.18750       -0.43750       -0.18750
 BRILLOUIN|   132           0.00391       -0.18750       -0.43750       -0.06250
 BRILLOUIN|   133           0.00391       -0.18750       -0.43750        0.06250
 BRILLOUIN|   134           0.00391       -0.18750       -0.43750        0.18750
 BRILLOUIN|   135           0.00391       -0.18750       -0.43750        0.31250
 BRILLOUIN|   136           0.00391       -0.18750       -0.43750        0.43750
 BRILLOUIN|   137           0.00391       -0.18750       -0.31250       -0.43750
 BRILLOUIN|   138           0.00391       -0.18750       -0.31250       -0.31250
 BRILLOUIN|   139           0.00391       -0.18750       -0.31250       -0.18750
 BRILLOUIN|   140           0.00391       -0.18750       -0.31250       -0.06250
 BRILLOUIN|   141           0.00391       -0.18750       -0.31250        0.06250
 BRILLOUIN|   142           0.00391       -0.18750       -0.31250        0.18750
 BRILLOUIN|   143           0.00391       -0.18750       -0.31250        0.31250
 BRILLOUIN|   144           0.00391       -0.18750       -0.31250        0.43750
 BRILLOUIN|   145           0.00391       -0.18750       -0.18750       -0.43750
 BRILLOUIN|   146           0.00391       -0.18750       -0.18750       -0.31250
 BRILLOUIN|   147           0.00391       -0.18750       -0.18750       -0.18750
 BRILLOUIN|   148           0.00391       -0.18750       -0.18750       -0.06250
 BRILLOUIN|   149           0.00391       -0.18750       -0.18750        0.06250
 BRILLOUIN|   150           0.00391       -0.18750       -0.18750        0.18750
 BRILLOUIN|   151           0.00391       -0.18750       -0.18750        0.31250
 BRILLOUIN|   152           0.00391       -0.18750       -0.18750        0.43750
 BRILLOUIN|   153           0.00391       -0.18750       -0.06250       -0.43750
 BRILLOUIN|   154           0.00391       -0.18750       -0.06250       -0.31250
 BRILLOUIN|   155           0.00391       -0.18750       -0.06250       -0.18750
 BRILLOUIN|   156           0.00391       -0.18750       -0.06250       -0.06250
 BRILLOUIN|   157           0.00391       -0.18750       -0.06250        0.06250
 BRILLOUIN|   158           0.00391       -0.18750       -0.06250        0.18750
 BRILLOUIN|   159           0.00391       -0.18750       -0.06250        0.31250
 BRILLOUIN|   160           0.00391       -0.18750       -0.06250        0.43750
 BRILLOUIN|   161           0.00391       -0.18750        0.06250       -0.43750
 BRILLOUIN|   162           0.00391       -0.18750        0.06250       -0.31250
 BRILLOUIN|   163           0.00391       -0.18750        0.06250       -0.18750
 BRILLOUIN|   164           0.00391       -0.18750        0.06250       -0.06250
 BRILLOUIN|   165           0.00391       -0.18750        0.06250        0.06250
 BRILLOUIN|   166           0.00391       -0.18750        0.06250        0.18750
 BRILLOUIN|   167           0.00391       -0.18750        0.06250        0.31250
 BRILLOUIN|   168           0.00391       -0.18750        0.06250        0.43750
 BRILLOUIN|   169           0.00391       -0.18750        0.18750       -0.43750
 BRILLOUIN|   170           0.00391       -0.18750        0.18750       -0.31250
 BRILLOUIN|   171           0.00391       -0.18750        0.18750       -0.18750
 BRILLOUIN|   172           0.00391       -0.18750        0.18750       -0.06250
 BRILLOUIN|   173           0.00391       -0.18750        0.18750        0.06250
 BRILLOUIN|   174           0.00391       -0.18750        0.18750        0.18750
 BRILLOUIN|   175           0.00391       -0.18750        0.18750        0.31250
 BRILLOUIN|   176           0.00391       -0.18750        0.18750        0.43750
 BRILLOUIN|   177           0.00391       -0.18750        0.31250       -0.43750
 BRILLOUIN|   178           0.00391       -0.18750        0.31250       -0.31250
 BRILLOUIN|   179           0.00391       -0.18750        0.31250       -0.18750
 BRILLOUIN|   180           0.00391       -0.18750        0.31250       -0.06250
 BRILLOUIN|   181           0.00391       -0.18750        0.31250        0.06250
 BRILLOUIN|   182           0.00391       -0.18750        0.31250        0.18750
 BRILLOUIN|   183           0.00391       -0.18750        0.31250        0.31250
 BRILLOUIN|   184           0.00391       -0.18750        0.31250        0.43750
 BRILLOUIN|   185           0.00391       -0.18750        0.43750       -0.43750
 BRILLOUIN|   186           0.00391       -0.18750        0.43750       -0.31250
 BRILLOUIN|   187           0.00391       -0.18750        0.43750       -0.18750
 BRILLOUIN|   188           0.00391       -0.18750        0.43750       -0.06250
 BRILLOUIN|   189           0.00391       -0.18750        0.43750        0.06250
 BRILLOUIN|   190           0.00391       -0.18750        0.43750        0.18750
 BRILLOUIN|   191           0.00391       -0.18750        0.43750        0.31250
 BRILLOUIN|   192           0.00391       -0.18750        0.43750        0.43750
 BRILLOUIN|   193           0.00391       -0.06250       -0.43750       -0.43750
 BRILLOUIN|   194           0.00391       -0.06250       -0.43750       -0.31250
 BRILLOUIN|   195           0.00391       -0.06250       -0.43750       -0.18750
 BRILLOUIN|   196           0.00391       -0.06250       -0.43750       -0.06250
 BRILLOUIN|   197           0.00391       -0.06250       -0.43750        0.06250
 BRILLOUIN|   198           0.00391       -0.06250       -0.43750        0.18750
 BRILLOUIN|   199           0.00391       -0.06250       -0.43750        0.31250
 BRILLOUIN|   200           0.00391       -0.06250       -0.43750        0.43750
 BRILLOUIN|   201           0.00391       -0.06250       -0.31250       -0.43750
 BRILLOUIN|   202           0.00391       -0.06250       -0.31250       -0.31250
 BRILLOUIN|   203           0.00391       -0.06250       -0.31250       -0.18750
 BRILLOUIN|   204           0.00391       -0.06250       -0.31250       -0.06250
 BRILLOUIN|   205           0.00391       -0.06250       -0.31250        0.06250
 BRILLOUIN|   206           0.00391       -0.06250       -0.31250        0.18750
 BRILLOUIN|   207           0.00391       -0.06250       -0.31250        0.31250
 BRILLOUIN|   208           0.00391       -0.06250       -0.31250        0.43750
 BRILLOUIN|   209           0.00391       -0.06250       -0.18750       -0.43750
 BRILLOUIN|   210           0.00391       -0.06250       -0.18750       -0.31250
 BRILLOUIN|   211           0.00391       -0.06250       -0.18750       -0.18750
 BRILLOUIN|   212           0.00391       -0.06250       -0.18750       -0.06250
 BRILLOUIN|   213           0.00391       -0.06250       -0.18750        0.06250
 BRILLOUIN|   214           0.00391       -0.06250       -0.18750        0.18750
 BRILLOUIN|   215           0.00391       -0.06250       -0.18750        0.31250
 BRILLOUIN|   216           0.00391       -0.06250       -0.18750        0.43750
 BRILLOUIN|   217           0.00391       -0.06250       -0.06250       -0.43750
 BRILLOUIN|   218           0.00391       -0.06250       -0.06250       -0.31250
 BRILLOUIN|   219           0.00391       -0.06250       -0.06250       -0.18750
 BRILLOUIN|   220           0.00391       -0.06250       -0.06250       -0.06250
 BRILLOUIN|   221           0.00391       -0.06250       -0.06250        0.06250
 BRILLOUIN|   222           0.00391       -0.06250       -0.06250        0.18750
 BRILLOUIN|   223           0.00391       -0.06250       -0.06250        0.31250
 BRILLOUIN|   224           0.00391       -0.06250       -0.06250        0.43750
 BRILLOUIN|   225           0.00391       -0.06250        0.06250       -0.43750
 BRILLOUIN|   226           0.00391       -0.06250        0.06250       -0.31250
 BRILLOUIN|   227           0.00391       -0.06250        0.06250       -0.18750
 BRILLOUIN|   228           0.00391       -0.06250        0.06250       -0.06250
 BRILLOUIN|   229           0.00391       -0.06250        0.06250        0.06250
 BRILLOUIN|   230           0.00391       -0.06250        0.06250        0.18750
 BRILLOUIN|   231           0.00391       -0.06250        0.06250        0.31250
 BRILLOUIN|   232           0.00391       -0.06250        0.06250        0.43750
 BRILLOUIN|   233           0.00391       -0.06250        0.18750       -0.43750
 BRILLOUIN|   234           0.00391       -0.06250        0.18750       -0.31250
 BRILLOUIN|   235           0.00391       -0.06250        0.18750       -0.18750
 BRILLOUIN|   236           0.00391       -0.06250        0.18750       -0.06250
 BRILLOUIN|   237           0.00391       -0.06250        0.18750        0.06250
 BRILLOUIN|   238           0.00391       -0.06250        0.18750        0.18750
 BRILLOUIN|   239           0.00391       -0.06250        0.18750        0.31250
 BRILLOUIN|   240           0.00391       -0.06250        0.18750        0.43750
 BRILLOUIN|   241           0.00391       -0.06250        0.31250       -0.43750
 BRILLOUIN|   242           0.00391       -0.06250        0.31250       -0.31250
 BRILLOUIN|   243           0.00391       -0.06250        0.31250       -0.18750
 BRILLOUIN|   244           0.00391       -0.06250        0.31250       -0.06250
 BRILLOUIN|   245           0.00391       -0.06250        0.31250        0.06250
 BRILLOUIN|   246           0.00391       -0.06250        0.31250        0.18750
 BRILLOUIN|   247           0.00391       -0.06250        0.31250        0.31250
 BRILLOUIN|   248           0.00391       -0.06250        0.31250        0.43750
 BRILLOUIN|   249           0.00391       -0.06250        0.43750       -0.43750
 BRILLOUIN|   250           0.00391       -0.06250        0.43750       -0.31250
 BRILLOUIN|   251           0.00391       -0.06250        0.43750       -0.18750
 BRILLOUIN|   252           0.00391       -0.06250        0.43750       -0.06250
 BRILLOUIN|   253           0.00391       -0.06250        0.43750        0.06250
 BRILLOUIN|   254           0.00391       -0.06250        0.43750        0.18750
 BRILLOUIN|   255           0.00391       -0.06250        0.43750        0.31250
 BRILLOUIN|   256           0.00391       -0.06250        0.43750        0.43750
 *******************************************************************************

 *******************************************************************************
 *******************************************************************************
 **                                                                           **
 **     #####                         ##              ##                      **
 **    ##   ##            ##          ##              ##                      **
 **   ##     ##                       ##            ######                    **
 **   ##     ##  ##   ##  ##   #####  ##  ##   ####   ##    #####    #####    **
 **   ##     ##  ##   ##  ##  ##      ## ##   ##      ##   ##   ##  ##   ##   **
 **   ##  ## ##  ##   ##  ##  ##      ####     ###    ##   ######   ######    **
 **    ##  ###   ##   ##  ##  ##      ## ##      ##   ##   ##       ##        **
 **     #######   #####   ##   #####  ##  ##  ####    ##    #####   ##        **
 **           ##                                                    ##        **
 **                                                                           **
 **                                                ... make the atoms dance   **
 **                                                                           **
 **            Copyright (C) by CP2K developers group (2000-2025)             **
 **                      J. Chem. Phys. 152, 194103 (2020)                    **
 **                                                                           **
 *******************************************************************************

 DFT| Spin restricted Kohn-Sham (RKS) calculation                            RKS
 DFT| Multiplicity                                                             1
 DFT| Number of spin states                                                    1
 DFT| Charge                                                                   0
 DFT| Self-interaction correction (SIC)                                       NO
 DFT| Cutoffs: density                                              1.000000E-10
 DFT|          gradient                                             1.000000E-10
 DFT|          tau                                                  1.000000E-10
 DFT|          cutoff_smoothing_range                               0.000000E+00
 DFT| XC density smoothing                                                  NONE
 DFT| XC derivatives                                                          PW

 FUNCTIONAL| PBE:
 FUNCTIONAL| J.P.Perdew, K.Burke, M.Ernzerhof, Phys. Rev. Letter, vol. 77, n 18,
 FUNCTIONAL|  pp. 3865-3868, (1996) {spin unpolarized}                          


 QS| Method:                                                                 GPW
 QS| Density plane wave grid type                        NON-SPHERICAL FULLSPACE
 QS| Number of grid levels:                                                    4
 QS| Density cutoff [a.u.]:                                                500.0
 QS| Multi grid cutoff [a.u.]: 1) grid level                               500.0
 QS|                           2) grid level                               166.7
 QS|                           3) grid level                                55.6
 QS|                           4) grid level                                18.5
 QS| Grid level progression factor:                                          3.0
 QS| Relative density cutoff [a.u.]:                                        50.0
 QS| Interaction thresholds: eps_pgf_orb:                                1.0E-16
 QS|                         eps_filter_matrix:                          0.0E+00
 QS|                         eps_core_charge:                            1.0E-18
 QS|                         eps_rho_gspace:                             1.0E-16
 QS|                         eps_rho_rspace:                             1.0E-16
 QS|                         eps_gvg_rspace:                             1.0E-08
 QS|                         eps_ppl:                                    1.0E-02
 QS|                         eps_ppnl:                                   1.0E-10


 ATOMIC KIND INFORMATION

  1. Atomic kind: Se                                    Number of atoms:       3

     Orbital Basis Set                                 aug-SZV-MOLOPT-GTH-tier-2

       Number of orbital shell sets:                                           1
       Number of orbital shells:                                               5
       Number of primitive Cartesian functions:                                5
       Number of Cartesian basis functions:                                   14
       Number of spherical basis functions:                                   13
       Norm type:                                                              2

       Normalised Cartesian orbitals:

                        Set   Shell   Orbital            Exponent    Coefficient

                          1       1    2s                0.107173      -0.034327
                                                         0.180000       0.000000
                                                         0.303575      -0.265065
                                                         1.029752      -0.111246
                                                         1.465689       0.426297

                          1       2    3s                0.107173      -0.272396
                                                         0.180000       0.299701
                                                         0.303575       0.034689
                                                         1.029752       0.278692
                                                         1.465689       0.206176

                          1       3    3px               0.107173      -0.032222
                                                         0.180000       0.000000
                                                         0.303575      -0.202949
                                                         1.029752      -0.499569
                                                         1.465689       0.672772
                          1       3    3py               0.107173      -0.032222
                                                         0.180000       0.000000
                                                         0.303575      -0.202949
                                                         1.029752      -0.499569
                                                         1.465689       0.672772
                          1       3    3pz               0.107173      -0.032222
                                                         0.180000       0.000000
                                                         0.303575      -0.202949
                                                         1.029752      -0.499569
                                                         1.465689       0.672772

                          1       4    4px               0.107173       0.171758
                                                         0.180000      -0.193480
                                                         0.303575      -0.006803
                                                         1.029752      -0.001006
                                                         1.465689       0.069700
                          1       4    4py               0.107173       0.171758
                                                         0.180000      -0.193480
                                                         0.303575      -0.006803
                                                         1.029752      -0.001006
                                                         1.465689       0.069700
                          1       4    4pz               0.107173       0.171758
                                                         0.180000      -0.193480
                                                         0.303575      -0.006803
                                                         1.029752      -0.001006
                                                         1.465689       0.069700

                          1       5    4dx2              0.107173       0.006127
                                                         0.180000       0.067129
                                                         0.303575      -0.000353
                                                         1.029752       0.023622
                                                         1.465689       0.137670
                          1       5    4dxy              0.107173       0.010612
                                                         0.180000       0.116271
                                                         0.303575      -0.000611
                                                         1.029752       0.040914
                                                         1.465689       0.238451
                          1       5    4dxz              0.107173       0.010612
                                                         0.180000       0.116271
                                                         0.303575      -0.000611
                                                         1.029752       0.040914
                                                         1.465689       0.238451
                          1       5    4dy2              0.107173       0.006127
                                                         0.180000       0.067129
                                                         0.303575      -0.000353
                                                         1.029752       0.023622
                                                         1.465689       0.137670
                          1       5    4dyz              0.107173       0.010612
                                                         0.180000       0.116271
                                                         0.303575      -0.000611
                                                         1.029752       0.040914
                                                         1.465689       0.238451
                          1       5    4dz2              0.107173       0.006127
                                                         0.180000       0.067129
                                                         0.303575      -0.000353
                                                         1.029752       0.023622
                                                         1.465689       0.137670

       Atomic covalent radius [Angstrom]:                                  1.160

       Atomic van der Waals radius [Angstrom]:                             1.900

     GTH Potential information for                                       GTH-PBE

       Description:                       Goedecker-Teter-Hutter pseudopotential
                                           Goedecker et al., PRB 54, 1703 (1996)
                                          Hartwigsen et al., PRB 58, 3641 (1998)
                                                      Krack, TCA 114, 145 (2005)

       Gaussian exponent of the core charge distribution:               1.922338
       Electronic configuration (s p d ...):                               2   4

       Parameters of the local part of the GTH pseudopotential:

                          rloc        C1          C2          C3          C4
                        0.510000

       Parameters of the non-local part of the GTH (SOC) pseudopotential:

                   l      r(l)      h(i,j,l)
                                    k(i,j,l)
                   0    0.432460    6.518110   -0.222716   -1.196129
                                   -0.222716   -1.657978    3.088392
                                   -1.196129    3.088392   -2.451335
                   1    0.470492    2.281262    0.365335
                                    0.365335   -0.432271
                                    0.153868   -0.095088
                                   -0.095088    0.112509
                   2    0.625600    0.439799
                                    0.004892


 MOLECULE KIND INFORMATION


 All atoms are their own molecule, skipping detailed information


 TOTAL NUMBERS AND MAXIMUM NUMBERS

  Total number of            - Atomic kinds:                                   1
                             - Atoms:                                          3
                             - Shell sets:                                     3
                             - Shells:                                        15
                             - Primitive Cartesian functions:                 15
                             - Cartesian basis functions:                     42
                             - Spherical basis functions:                     39

  Maximum angular momentum of the orbital basis functions:                     2


 MODULE QUICKSTEP: ATOMIC COORDINATES IN ANGSTROM

   Atom Kind Element         X             Y             Z       Z(eff)     Mass
      1    1 Se   34      0.991032      0.000000      1.683243   6.0000  78.9600
      2    1 Se   34     -0.495516      0.858259      3.366537   6.0000  78.9600
      3    1 Se   34      1.766804      3.060194      0.000000   6.0000  78.9600



 SCF PARAMETERS         Density guess:                                    ATOMIC
                        --------------------------------------------------------
                        max_scf:                                             500
                        max_scf_history:                                       0
                        max_diis:                                              4
                        --------------------------------------------------------
                        eps_scf:                                        1.00E-09
                        eps_scf_history:                                0.00E+00
                        eps_diis:                                       1.00E-01
                        eps_eigval:                                     1.00E-05
                        --------------------------------------------------------
                        level_shift [a.u.]:                             0.000000
                        added MOs                                        30    0
                        --------------------------------------------------------
                        Mixing method:                            BROYDEN_MIXING
                                                charge density mixing in g-space
                        --------------------------------------------------------
                        No outer SCF

 PW_GRID| Information for grid number                                          1
 PW_GRID| Grid distributed over                                     8 processors
 PW_GRID| Real space group dimensions                                     8    1
 PW_GRID| the grid is blocked:                                                NO
 PW_GRID| Cutoff [a.u.]                                                    500.0
 PW_GRID| spherical cutoff:                                                   NO
 PW_GRID|   Bounds   1            -45      44                Points:          90
 PW_GRID|   Bounds   2            -45      44                Points:          90
 PW_GRID|   Bounds   3            -50      49                Points:         100
 PW_GRID| Volume element (a.u.^3)  0.7459E-03     Volume (a.u.^3)       604.1820
 PW_GRID| Grid span                                                    FULLSPACE
 PW_GRID|   Distribution                         Average         Max         Min
 PW_GRID|   G-Vectors                           101250.0      101250      101250
 PW_GRID|   G-Rays                                1125.0        1125        1125
 PW_GRID|   Real Space Points                   101250.0      108000       99000

 PW_GRID| Information for grid number                                          2
 PW_GRID| Number of the reference grid                                         1
 PW_GRID| Grid distributed over                                     8 processors
 PW_GRID| Real space group dimensions                                     8    1
 PW_GRID| the grid is blocked:                                                NO
 PW_GRID| Cutoff [a.u.]                                                    166.7
 PW_GRID| spherical cutoff:                                                   NO
 PW_GRID|   Bounds   1            -27      26                Points:          54
 PW_GRID|   Bounds   2            -27      26                Points:          54
 PW_GRID|   Bounds   3            -30      29                Points:          60
 PW_GRID| Volume element (a.u.^3)  0.3453E-02     Volume (a.u.^3)       604.1820
 PW_GRID| Grid span                                                    FULLSPACE
 PW_GRID|   Distribution                         Average         Max         Min
 PW_GRID|   G-Vectors                            21870.0       21924       21816
 PW_GRID|   G-Rays                                 405.0         406         404
 PW_GRID|   Real Space Points                    21870.0       22680       19440

 PW_GRID| Information for grid number                                          3
 PW_GRID| Number of the reference grid                                         1
 PW_GRID| Grid distributed over                                     8 processors
 PW_GRID| Real space group dimensions                                     8    1
 PW_GRID| the grid is blocked:                                                NO
 PW_GRID| Cutoff [a.u.]                                                     55.6
 PW_GRID| spherical cutoff:                                                   NO
 PW_GRID|   Bounds   1            -15      14                Points:          30
 PW_GRID|   Bounds   2            -15      14                Points:          30
 PW_GRID|   Bounds   3            -18      17                Points:          36
 PW_GRID| Volume element (a.u.^3)  0.1865E-01     Volume (a.u.^3)       604.1820
 PW_GRID| Grid span                                                    FULLSPACE
 PW_GRID|   Distribution                         Average         Max         Min
 PW_GRID|   G-Vectors                             4050.0        4110        3960
 PW_GRID|   G-Rays                                 135.0         137         132
 PW_GRID|   Real Space Points                     4050.0        4320        3240

 PW_GRID| Information for grid number                                          4
 PW_GRID| Number of the reference grid                                         1
 PW_GRID| Grid distributed over                                     8 processors
 PW_GRID| Real space group dimensions                                     8    1
 PW_GRID| the grid is blocked:                                                NO
 PW_GRID| Cutoff [a.u.]                                                     18.5
 PW_GRID| spherical cutoff:                                                   NO
 PW_GRID|   Bounds   1             -9       8                Points:          18
 PW_GRID|   Bounds   2             -9       8                Points:          18
 PW_GRID|   Bounds   3            -10       9                Points:          20
 PW_GRID| Volume element (a.u.^3)  0.9324E-01     Volume (a.u.^3)       604.1820
 PW_GRID| Grid span                                                    FULLSPACE
 PW_GRID|   Distribution                         Average         Max         Min
 PW_GRID|   G-Vectors                              810.0         864         792
 PW_GRID|   G-Rays                                  45.0          48          44
 PW_GRID|   Real Space Points                      810.0        1080         720

 POISSON| Solver                                                        PERIODIC
 POISSON| Periodicity                                                        XYZ

 RS_GRID| Information for grid number                                          1
 RS_GRID|   Bounds   1            -45      44                Points:          90
 RS_GRID|   Bounds   2            -45      44                Points:          90
 RS_GRID|   Bounds   3            -50      49                Points:         100
 RS_GRID| Real space fully replicated
 RS_GRID| Group size                                                           1

 RS_GRID| Information for grid number                                          2
 RS_GRID|   Bounds   1            -27      26                Points:          54
 RS_GRID|   Bounds   2            -27      26                Points:          54
 RS_GRID|   Bounds   3            -30      29                Points:          60
 RS_GRID| Real space fully replicated
 RS_GRID| Group size                                                           1

 RS_GRID| Information for grid number                                          3
 RS_GRID|   Bounds   1            -15      14                Points:          30
 RS_GRID|   Bounds   2            -15      14                Points:          30
 RS_GRID|   Bounds   3            -18      17                Points:          36
 RS_GRID| Real space fully replicated
 RS_GRID| Group size                                                           1

 RS_GRID| Information for grid number                                          4
 RS_GRID|   Bounds   1             -9       8                Points:          18
 RS_GRID|   Bounds   2             -9       8                Points:          18
 RS_GRID|   Bounds   3            -10       9                Points:          20
 RS_GRID| Real space fully replicated
 RS_GRID| Group size                                                           1

 Number of electrons:                                                         18
 Number of occupied orbitals:                                                  9
 Number of molecular orbitals:                                                39

 Number of orbital functions:                                                 39
 Number of independent orbital functions:                                     39

 Extrapolation method: initial_guess

 Atomic guess: The first density matrix is obtained in terms of atomic orbitals
               and electronic configurations assigned to each atomic kind

 Guess for atomic kind: Se

 Electronic structure
    Total number of core electrons                                         28.00
    Total number of valence electrons                                       6.00
    Total number of electrons                                              34.00
    Multiplicity                                                   not specified
    S   [  2.00  2.00  2.00] 2.00
    P   [  6.00  6.00] 4.00
    D   [ 10.00]


 *******************************************************************************
                  Iteration          Convergence                     Energy [au]
 *******************************************************************************
                          1        0.307453                      -9.145370738135
                          2        0.153248                      -9.182695585856
                          3        0.366079E-02                  -9.192017244899
                          4        0.209104E-03                  -9.192022343557
                          5        0.122502E-03                  -9.192022354527
                          6        0.878077E-04                  -9.192022357314
                          7        0.528891E-06                  -9.192022360259

 Energy components [Hartree]           Total Energy ::           -9.192022360259
                                        Band Energy ::           -2.089061082298
                                     Kinetic Energy ::            3.181714205938
                                   Potential Energy ::          -12.373736566197
                                      Virial (-V/T) ::            3.889015720866
                                        Core Energy ::          -14.980640857071
                                          XC Energy ::           -1.892106208097
                                     Coulomb Energy ::            7.680724704909
                       Total Pseudopotential Energy ::          -18.224303771552
                       Local Pseudopotential Energy ::          -19.427596131674
                    Nonlocal Pseudopotential Energy ::            1.203292360122
                                        Confinement ::            0.619487085429

 Orbital energies  State     L     Occupation   Energy[a.u.]          Energy[eV]

                       1     0          2.000      -0.611205          -16.631721

                       1     1          4.000      -0.216663           -5.895700


 Total Electron Density at R=0:                                         0.000575
 Re-scaling the density matrix to get the right number of electrons
                  # Electrons              Trace(P)               Scaling factor
                           18                18.000                        1.000


 SCF WAVEFUNCTION OPTIMIZATION

  Step     Update method      Time    Convergence         Total energy    Change
  ------------------------------------------------------------------------------
     1 NoMix/Diag. 0.50E-01    1.8     0.42582691       -28.3735537923 -2.84E+01
     2 Broy./Diag. 0.50E-01    1.8     0.00070555       -28.4359327503 -6.24E-02
     3 Broy./Diag. 0.50E-01    1.8     0.02166350       -28.3295639528  1.06E-01
     4 Broy./Diag. 0.50E-01    1.9     0.00007352       -28.2999372478  2.96E-02
     5 Broy./Diag. 0.50E-01    1.8     0.00207346       -28.2823418652  1.76E-02
     6 Broy./Diag. 0.50E-01    1.8     0.00002463       -28.2726833624  9.66E-03
     7 Broy./Diag. 0.50E-01    1.9     0.00056440       -28.2747663428 -2.08E-03
     8 Broy./Diag. 0.50E-01    1.8     0.00000833       -28.2750888868 -3.23E-04
     9 Broy./Diag. 0.50E-01    1.8     0.00016304       -28.2751136997 -2.48E-05
    10 Broy./Diag. 0.50E-01    1.9     0.00000340       -28.2753192478 -2.06E-04
    11 Broy./Diag. 0.50E-01    1.9     0.00006639       -28.2749233263  3.96E-04
    12 Broy./Diag. 0.50E-01    1.9     0.00000039       -28.2748153751  1.08E-04
    13 Broy./Diag. 0.50E-01    1.9     0.00001037       -28.2749033191 -8.79E-05
    14 Broy./Diag. 0.50E-01    1.9     0.00000304       -28.2749473668 -4.40E-05
    15 Broy./Diag. 0.50E-01    1.9     0.00000102       -28.2749626144 -1.52E-05
    16 Broy./Diag. 0.50E-01    1.9     0.00000398       -28.2750059489 -4.33E-05
    17 Broy./Diag. 0.50E-01    1.8     0.00000037       -28.2750255343 -1.96E-05
    18 Broy./Diag. 0.50E-01    1.9     0.00000123       -28.2750365722 -1.10E-05
    19 Broy./Diag. 0.50E-01    1.9     0.00000134       -28.2750516706 -1.51E-05
    20 Broy./Diag. 0.50E-01    1.8     0.00000037       -28.2750580214 -6.35E-06
    21 Broy./Diag. 0.50E-01    1.9     0.00000031       -28.2750602873 -2.27E-06
    22 Broy./Diag. 0.50E-01    1.9     0.00000013       -28.2750599245  3.63E-07
    23 Broy./Diag. 0.50E-01    1.9     0.00000012       -28.2750589198  1.00E-06
    24 Broy./Diag. 0.50E-01    1.9     0.00000010       -28.2750590543 -1.35E-07
    25 Broy./Diag. 0.50E-01    1.9     0.00000007       -28.2750594523 -3.98E-07
    26 Broy./Diag. 0.50E-01    1.9     0.00000015       -28.2750600717 -6.19E-07
    27 Broy./Diag. 0.50E-01    1.9     0.00000005       -28.2750604135 -3.42E-07
    28 Broy./Diag. 0.50E-01    1.8     0.00000011       -28.2750605046 -9.11E-08
    29 Broy./Diag. 0.50E-01    1.9     0.00000002       -28.2750603240  1.81E-07
    30 Broy./Diag. 0.50E-01    1.8     0.00000002       -28.2750599776  3.46E-07
    31 Broy./Diag. 0.50E-01    1.9     0.00000003       -28.2750596821  2.95E-07
    32 Broy./Diag. 0.50E-01    1.9     0.00000002       -28.2750594393  2.43E-07
    33 Broy./Diag. 0.50E-01    1.9     0.00000003       -28.2750591261  3.13E-07
    34 Broy./Diag. 0.50E-01    1.8     9.4995E-09       -28.2750589459  1.80E-07
    35 Broy./Diag. 0.50E-01    1.9     0.00000001       -28.2750587697  1.76E-07
    36 Broy./Diag. 0.50E-01    1.8     7.3146E-09       -28.2750586518  1.18E-07
    37 Broy./Diag. 0.50E-01    1.9     4.0991E-09       -28.2750586007  5.11E-08
    38 Broy./Diag. 0.50E-01    1.9     0.00000001       -28.2750585411  5.96E-08
    39 Broy./Diag. 0.50E-01    1.9     1.0004E-09       -28.2750585358  5.33E-09
    40 Broy./Diag. 0.50E-01    1.9     3.3281E-09       -28.2750585600 -2.43E-08
    41 Broy./Diag. 0.50E-01    1.9     3.5780E-10       -28.2750585735 -1.35E-08

  *** SCF run converged in    41 steps ***


  Electronic density on regular grids:        -18.0000000000       -0.0000000000
  Core density on regular grids:               18.0000000000       -0.0000000000
  Total charge density on r-space grids:       -0.0000000000
  Total charge density g-space grids:          -0.0000000000

  Overlap energy of the core charge distribution:               0.00000000712256
  Self energy of the core charge distribution:                -59.73772061093890
  Core Hamiltonian energy:                                     13.24575644972268
  Hartree energy:                                              24.33955341809894
  Exchange-correlation energy:                                 -6.12264783752054

  Total energy:                                               -28.27505857351526

 !-----------------------------------------------------------------------------!
                     Mulliken Population Analysis

 #  Atom  Element  Kind  Atomic population                           Net charge
       1     Se       1          6.000005                             -0.000005
       2     Se       1          6.000005                             -0.000005
       3     Se       1          5.999989                              0.000011
 # Total charge                             18.000000                  0.000000

 !-----------------------------------------------------------------------------!

 !-----------------------------------------------------------------------------!
                           Hirshfeld Charges

  #Atom  Element  Kind  Ref Charge     Population                    Net charge
      1       Se     1       6.000          6.000                        -0.000
      2       Se     1       6.000          6.000                        -0.000
      3       Se     1       6.000          6.000                         0.000

  Total Charge                                                           -0.000
 !-----------------------------------------------------------------------------!

 KPOINTS| Band Structure Calculation
 KPOINTS| Number of k-point sets                                               1
 KPOINTS| Number of added MOs/bands                                           -1
 KPOINTS| Number of k-points in set    1                                     148
 KPOINTS| In units of b-vector [2pi/Bohr]
 KPOINTS| Special point     1 not specifi     0.000000     0.000000     0.000000
 KPOINTS| Special point     2 not specifi     0.500000     0.000000     0.000000
 KPOINTS| Special point     3 not specifi     0.333333     0.333333     0.000000
 KPOINTS| Special point     4 not specifi     0.000000     0.000000     0.000000
 KPOINTS| Time for k-point line                                            0.836

 ENERGY| Total FORCE_EVAL ( QS ) energy [hartree]            -28.275058573515260

 -------------------------------------------------------------------------------
 -                                                                             -
 -                                DBCSR STATISTICS                             -
 -                                                                             -
 -------------------------------------------------------------------------------
 COUNTER                                    TOTAL       BLAS       SMM       ACC
 flops inhomo. stacks                           0       0.0%      0.0%      0.0%
 flops total                         0.000000E+00       0.0%      0.0%      0.0%
 flops max/rank                      0.000000E+00       0.0%      0.0%      0.0%
 matmuls inhomo. stacks                         0       0.0%      0.0%      0.0%
 matmuls total                                  0       0.0%      0.0%      0.0%
 number of processed stacks                     0       0.0%      0.0%      0.0%
 average stack size                                     0.0       0.0       0.0
 marketing flops                     0.000000E+00
 -------------------------------------------------------------------------------
 -                                                                             -
 -                      DBCSR MESSAGE PASSING PERFORMANCE                      -
 -                                                                             -
 -------------------------------------------------------------------------------
 ROUTINE             CALLS      AVE VOLUME [Bytes]
 MP_Bcast                1                     12.
 MP_Allreduce           19                     21.
 MP_Alltoall        889024                   1315.
 -------------------------------------------------------------------------------

 -------------------------------------------------------------------------------
 -                                                                             -
 -                                DBM STATISTICS                               -
 -                                                                             -
 -------------------------------------------------------------------------------
    M  x    N  x    K                                          COUNT     PERCENT
 -------------------------------------------------------------------------------

 -------------------------------------------------------------------------------
 -                                                                             -
 -                                GRID STATISTICS                              -
 -                                                                             -
 -------------------------------------------------------------------------------
 LP    KERNEL             BACKEND                              COUNT     PERCENT
 4     collocate general  CPU                                 336420      50.60%
 4     integrate general  CPU                                 328410      49.40%
 0     collocate general  CPU                                      6       0.00%
 0     integrate general  CPU                                      3       0.00%
 -------------------------------------------------------------------------------

 MEMORY| Estimated peak process memory [MiB]                                 346

 -------------------------------------------------------------------------------
 ----                             MULTIGRID INFO                            ----
 -------------------------------------------------------------------------------
 count for grid        1:              0          cutoff [a.u.]          500.00
 count for grid        2:          18051          cutoff [a.u.]          166.67
 count for grid        3:           8486          cutoff [a.u.]           55.56
 count for grid        4:          10499          cutoff [a.u.]           18.52
 total gridlevel count  :          37036

 -------------------------------------------------------------------------------
 -                                                                             -
 -                         MESSAGE PASSING PERFORMANCE                         -
 -                                                                             -
 -------------------------------------------------------------------------------

 ROUTINE             CALLS      AVE VOLUME [Bytes]
 MP_Group                6
 MP_Bcast           381610                    951.
 MP_Allreduce        63716                     64.
 MP_Sync                 4
 MP_Alltoall           743                4455164.
 MP_SendRecv          1190                 279123.
 MP_ISendRecv         1155                 275747.
 MP_Wait            263447
 MP_comm_split           4
 MP_ISend           278924                    370.
 MP_IRecv           445568                    230.
 -------------------------------------------------------------------------------


 -------------------------------------------------------------------------------
 -                                                                             -
 -                           R E F E R E N C E S                               -
 -                                                                             -
 -------------------------------------------------------------------------------
 
 CP2K version 2025.1 (Development Version), the CP2K developers group (2025).
 CP2K is freely available from https://www.cp2k.org/ .
 
 T. D. Kuehne, M. Iannuzzi, M. Del Ben, V. V. Rybkin, P. Seewald, F. Stein, T. 
 Laino, R. Z. Khaliullin, O. Schuett, F. Schiffmann, D. Golze, J. Wilhelm, S. 
 Chulkov, M. H. Bani-Hashemian, V. Weber, U. Borstnik, M. Taillefumier, A. S. 
 Jakobovits, A. Lazzaro, H. Pabst, T. Mueller, R. Schade, M. Guidon, S. 
 Andermatt, N. Holmberg, G. K. Schenter, A. Hehn, A. Bussy, F. Belleflamme, G. 
 Tabacchi, A. Gloess, M. Lass, I. Bethune, C. J. Mundy, C. Plessl, M. Watkins, 
 J. VandeVondele, M. Krack, J. Hutter.
 J. Chem. Phys. 152, 194103 (2020).
 CP2K: An electronic structure and molecular dynamics software package - 
 Quickstep: Efficient and accurate electronic structure calculations.
 https://doi.org/10.1063/5.0007045

 O. Schuett, P. Messmer, J. Hutter, J. VandeVondele.
 Electronic Structure Calculations on Graphics Processing Units, 173-190 (2016).
 GPU-Accelerated Sparse Matrix-Matrix Multiplication for Linear Scaling Density 
 Functional Theory.
 https://doi.org/10.1002/9781118670712.ch8

 J. Hutter, M. Iannuzzi, F. Schiffmann, J. VandeVondele.
 WIREs Comput Mol Sci. 4, 15-25 (2014).
 CP2K: atomistic simulations of condensed matter systems.
 https://doi.org/10.1002/wcms.1159

 U. Borstnik, J. VandeVondele, V. Weber, J. Hutter.
 Parallel Comput. 40, 47-58 (2014).
 Sparse matrix multiplication: The distributed block-compressed sparse row 
 library.
 https://doi.org/10.1016/j.parco.2014.03.012

 J. VandeVondele, J. Hutter.
 J. Chem. Phys. 127, 114105 (2007).
 Gaussian basis sets for accurate calculations on molecular systems in gas and 
 condensed phases.
 https://doi.org/10.1063/1.2770708

 J. VandeVondele, M. Krack, F. Mohamed, M. Parrinello, T. Chassaing, J. Hutter.
 Comput. Phys. Commun. 167, 103-128 (2005).
 QUICKSTEP: Fast and accurate density functional calculations using a mixed 
 Gaussian and plane waves approach.
 https://doi.org/10.1016/j.cpc.2004.12.014

 M. Krack.
 Theor. Chem. Acc. 114, 145-152 (2005).
 Pseudopotentials for H to Kr optimized for gradient-corrected 
 exchange-correlation functionals.
 https://doi.org/10.1007/s00214-005-0655-y

 M. Frigo, S. G. Johnson.
 Proc. IEEE 93, 216-231 (2005).
 The design and implementation of FFTW3.
 https://doi.org/10.1109/JPROC.2004.840301

 C. Hartwigsen, S. Goedecker, J. Hutter.
 Phys. Rev. B 58, 3641-3662 (1998).
 Relativistic separable dual-space Gaussian pseudopotentials from H to Rn.
 https://doi.org/10.1103/PhysRevB.58.3641

 G. Lippert, J. Hutter, M. Parrinello.
 Mol. Phys. 92, 477-487 (1997).
 A hybrid Gaussian and plane wave density functional scheme.
 https://doi.org/10.1080/002689797170220

 S. Goedecker, M. Teter, J. Hutter.
 Phys. Rev. B 54, 1703-1710 (1996).
 Separable dual-space Gaussian pseudopotentials.
 https://doi.org/10.1103/PhysRevB.54.1703

 J. P. Perdew, K. Burke, M. Ernzerhof.
 Phys. Rev. Lett. 77, 3865-3868 (1996).
 Generalized gradient approximation made simple.
 https://doi.org/10.1103/PhysRevLett.77.3865


 -------------------------------------------------------------------------------
 -                                                                             -
 -                                T I M I N G                                  -
 -                                                                             -
 -------------------------------------------------------------------------------
 SUBROUTINE                       CALLS  ASD         SELF TIME        TOTAL TIME
                                MAXIMUM       AVERAGE  MAXIMUM  AVERAGE  MAXIMUM
 CP2K                                 1  1.0    0.010    0.013   78.506   78.507
 qs_energies                          1  2.0    0.016    0.115   78.261   78.317
 scf_env_do_scf                       1  3.0    0.000    0.000   77.060   77.060
 scf_env_do_scf_inner_loop           41  4.0    0.020    0.021   77.059   77.060
 do_general_diag_kp                  42  5.9    0.227    0.241   67.280   68.905
 qs_scf_new_mos_kp                   41  5.0    0.000    0.000   66.564   68.186
 mp_alltoall_i22                 151768  8.8   22.694   35.629   22.694   35.629
 dbcsr_desymmetrize_deep          86676  7.5    1.269    1.367   23.098   32.047
 dbcsr_complete_redistribute      65092  8.3    2.046    2.191   23.949   27.607
 copy_dbcsr_to_fm                 44100  6.9    0.440    0.461   20.325   20.510
 rskp_transform                   21288  7.0    7.034   19.204    7.034   19.204
 kpoint_density_transform            41  7.0    0.084    0.093   16.696   16.719
 copy_fm_to_dbcsr                 20992  8.0    0.122    0.129   11.360   14.741
 transform_dmat                   10496  8.0    3.379    9.140    3.379    9.140
 qs_ks_update_qs_env                 41  5.0    0.000    0.000    3.794    6.525
 rebuild_ks_matrix                   41  6.0    0.000    0.000    3.238    5.969
 qs_ks_build_kohn_sham_matrix        41  7.0    0.038    0.039    3.238    5.969
 dbcsr_finalize                  160392  8.7    0.730    0.767    5.233    5.559
 cp_fm_start_copy_general         63568  7.3    0.809    1.243    4.935    4.989
 sum_up_and_integrate                41  8.0    0.000    0.000    2.061    4.782
 integrate_v_rspace                  41  9.0    0.019    0.050    2.059    4.780
 qs_rho_update_rho_low               42  5.0    0.000    0.000    4.560    4.572
 calculate_rho_elec                  42  6.0    0.033    0.036    4.560    4.572
 grid_integrate_task_list            41 10.0    1.620    4.320    1.620    4.320
 mp_alltoall_d11v                455304  9.4    3.987    4.295    3.987    4.295
 density_rs2pw                       42  7.0    0.002    0.002    2.847    4.242
 transfer_rs2pw                     170  8.0    0.002    0.002    2.666    4.097
 transfer_rs2pw_500                  44  8.9    0.121    0.125    2.583    4.016
 grid_collocate_task_list            42  7.0    1.674    3.957    1.674    3.957
 mp_sendrecv_dv                    1190 10.0    2.514    3.944    2.514    3.944
 mp_cart_sub                      88202  8.9    3.478    3.523    3.478    3.523
 dbcsr_merge_all                  65092 10.3    1.767    1.997    2.941    3.191
 hybrid_alltoall_any              86676  8.5    0.337    0.355    2.565    2.837
 mp_alltoall_i11v                281952  9.0    2.700    2.756    2.700    2.756
 mp_allgather_i                  127136  8.3    1.906    2.046    1.906    2.046
 mp_cart_create                   44107  8.9    1.971    2.022    1.971    2.022
 mp_bcast_iv                     254296  8.3    1.506    1.706    1.506    1.706
 dbcsr_work_create               151768  8.8    0.901    0.928    1.488    1.556
 dbcsr_create_new                262363  8.2    1.089    1.142    1.300    1.363
 fft_wrap_pw1pw2                    743 10.0    0.006    0.006    1.168    1.183
 dbcsr_work_destroy_all          151768  9.8    0.716    0.722    1.084    1.096
 dbcsr_iterator_start            474622  9.0    0.919    0.928    1.068    1.084
 fft_wrap_pw1pw2_500                494 11.3    0.080    0.082    1.070    1.084
 dbcsr_data_new                 1630299  9.7    1.001    1.077    1.001    1.077
 write_kpoints_restart               41  5.0    0.005    0.009    1.038    1.039
 fft3d_ps                           743 12.0    0.403    0.429    0.946    0.964
 tree_to_linear_d                 65092 11.3    0.921    0.964    0.921    0.964
 copy_fm_to_dbcsr_bc              20992  9.0    0.265    0.276    0.909    0.944
 copy_dbcsr_to_fm_bc              44100  7.9    0.411    0.429    0.928    0.944
 qs_vxc_create                       41  8.0    0.001    0.001    0.819    0.820
 xc_vxc_pw_create                    41  9.0    0.033    0.035    0.818    0.820
 dbcsr_copy                       63156  7.3    0.264    0.284    0.653    0.807
 dbcsr_data_release             2278273 10.2    0.774    0.803    0.774    0.803
 cp_cfm_geeig                      1349  6.9    0.008    0.008    0.793    0.798
 gspace_mixing                       40  5.0    0.029    0.031    0.718    0.719
 dbcsr_iterator_stop             474622  9.0    0.583    0.589    0.690    0.697
 dbcsr_destroy                   220707  8.2    0.357    0.369    0.621    0.647
 cp_cfm_heevd                      1349  7.9    0.002    0.002    0.616    0.619
 cp_cfm_heevd_base                 1349  8.9    0.614    0.618    0.614    0.618
 broyden_mixing                      40  6.0    0.572    0.581    0.586    0.589
 dbcsr_dot                        41657  8.0    0.172    0.199    0.547    0.561
 evaluate_core_matrix_traces         41  6.0    0.000    0.000    0.555    0.555
 calculate_ptrace_kp                 82  7.0    0.031    0.032    0.555    0.555
 xc_pw_derive                       246 11.0    0.001    0.001    0.523    0.529
 mp_bcast_im                     127136  8.3    0.452    0.516    0.452    0.516
 mp_alltoall_z22v                   743 14.0    0.471    0.509    0.471    0.509
 quick_finalize                   86676  9.5    0.246    0.270    0.428    0.477
 mp_waitall_1                    263447  8.3    0.252    0.475    0.252    0.475
 dbcsr_copy_into_existing         21500  9.9    0.199    0.331    0.321    0.456
 potential_pw2rs                     41 10.0    0.003    0.003    0.420    0.435
 xc_rho_set_and_dset_create          41 10.0    0.018    0.019    0.424    0.434
 xc_pw_divergence                    41 10.0    0.000    0.001    0.352    0.357
 cp_fm_write_unformatted           1524  6.0    0.285    0.340    0.288    0.351
 mp_sum_d                         42403  8.9    0.298    0.345    0.298    0.345
 self_consistency_check              41  5.0    0.029    0.030    0.321    0.335
 mp_comm_free                    132343  8.9    0.300    0.320    0.300    0.320
 x_to_yz                            410 13.2    0.042    0.047    0.299    0.316
 cp_sm_mix                        20828  6.0    0.058    0.075    0.264    0.280
 transfer_pw2rs                     165 11.0    0.001    0.001    0.279    0.280
 yz_to_x                            333 12.8    0.024    0.026    0.238    0.267
 cp_fm_finish_copy_general        26388  7.8    0.159    0.176    0.192    0.216
 dbcsr_set                       152537  7.9    0.139    0.144    0.188    0.207
 transfer_pw2rs_500                  42 11.9    0.110    0.117    0.205    0.206
 dbcsr_sort_indices              176564 10.9    0.149    0.189    0.149    0.189
 mp_max_d                         20830  7.0    0.157    0.184    0.157    0.184
 init_scf_run                         1  3.0    0.000    0.000    0.166    0.180
 scf_env_initial_rho_setup            1  4.0    0.000    0.000    0.166    0.180
 dbcsr_iterator_seek             474622 10.0    0.148    0.172    0.148    0.172
 kpoint_density_matrices             41  7.0    0.013    0.013    0.161    0.162
 qs_energies_init_hamiltonians        1  3.0    0.000    0.000    0.161    0.161
 xc_functional_eval                  41 11.0    0.000    0.000    0.144    0.154
 pbe_lda_eval                        41 12.0    0.143    0.154    0.143    0.154
 dbcsr_reserve_all_blocks         20992 10.0    0.031    0.033    0.136    0.147
 cp_dbcsr_alloc_block_from_nbl     3804  5.2    0.054    0.128    0.066    0.147
 parallel_gemm_fm                  5248  8.0    0.005    0.005    0.144    0.146
 dbcsr_make_index_exist          262363  9.2    0.133    0.141    0.133    0.141
 parallel_gemm_fm_gemm             5248  9.0    0.005    0.005    0.140    0.141
 merge_index                      65092 11.3    0.128    0.136    0.128    0.136
 cp_fm_gemm                        5248 10.0    0.135    0.136    0.135    0.136
 dbcsr_reserve_blocks             24796 10.3    0.093    0.105    0.116    0.131
 mp_irecv_iv                     254272  8.3    0.016    0.125    0.016    0.125
 mp_sum_dv                          336  3.5    0.058    0.123    0.058    0.123
 restraint_control                    1  2.0    0.000    0.000    0.056    0.112
 mp_sum_i                             4  2.8    0.056    0.112    0.056    0.112
 build_core_hamiltonian_matrix        1  4.0    0.002    0.002    0.062    0.107
 dbcsr_switch_data_area           86676 10.5    0.078    0.080    0.102    0.104
 qs_env_update_s_mstruct              1  4.0    0.000    0.000    0.079    0.101
 mp_isend_dv                      64160  8.3    0.093    0.100    0.093    0.100
 cp_cfm_triangular_multiply        4047  7.9    0.095    0.096    0.095    0.096
 calculate_rho_core                   1  5.0    0.001    0.003    0.064    0.095
 mp_isend_iv                     143176  8.3    0.022    0.087    0.022    0.087
 parser_read_line                  6030  4.1    0.002    0.002    0.082    0.083
 cp_fm_cleanup_copy_general       45200  7.0    0.051    0.052    0.078    0.082
 parser_read_line_low                23  6.2    0.008    0.031    0.080    0.081
 broadcast_input_information         23  7.2    0.026    0.030    0.072    0.077
 pw_scatter_p                       410 12.2    0.073    0.074    0.073    0.074
 mp_isendrecv_dv                   1155 13.0    0.026    0.066    0.026    0.066
 dbcsr_zero                      152537  8.9    0.049    0.065    0.049    0.065
 fft_wrap_pw1pw2_170                 83 10.5    0.004    0.004    0.062    0.065
 pw_poisson_solve                    41  8.0    0.000    0.000    0.064    0.065
 mp_irecv_im2                    127136  8.3    0.008    0.064    0.008    0.064
 transfer_rs2pw_170                  42  9.0    0.022    0.024    0.060    0.063
 topology_control                     1  2.0    0.000    0.000    0.062    0.062
 dbcsr_get_data_size_used        151768  9.8    0.050    0.059    0.050    0.059
 transfer_pw2rs_170                  41 12.0    0.024    0.025    0.054    0.058
 dbcsr_distribution_new           65094  8.6    0.048    0.057    0.048    0.057
 create_qs_kind_set                   1  2.0    0.000    0.000    0.056    0.056
 read_qs_kind                         1  3.0    0.030    0.032    0.056    0.056
 dbcsr_make_dbcsr_index          176564 10.9    0.046    0.048    0.046    0.048
 kpoint_set_mo_occupation            41  7.0    0.024    0.024    0.039    0.048
 mixing_allocate                      1  3.0    0.003    0.003    0.025    0.047
 dbcsr_data_copy_aa2              65092 11.2    0.032    0.045    0.032    0.045
 pw_integral_ab_c1d_c1d_gs           41  9.0    0.041    0.043    0.043    0.044
 read_cell_cif                        2  4.5    0.002    0.004    0.042    0.043
 scf_post_calculation_gpw             1  3.0    0.000    0.000    0.041    0.041
 write_available_results              1  4.0    0.000    0.000    0.040    0.040
 write_mo_free_results                1  5.0    0.001    0.001    0.040    0.040
 qs_init_subsys                       1  2.0    0.001    0.002    0.040    0.040
 calculate_first_density_matrix       1  5.0    0.000    0.000    0.026    0.040
 mp_isend_im2                     71588  8.3    0.010    0.040    0.010    0.040
 pw_gather_p                        333 11.8    0.039    0.039    0.039    0.039
 calculate_atomic_block_dm            1  6.0    0.001    0.001    0.025    0.039
 qs_env_setup                         1  3.0    0.000    0.000    0.037    0.038
 qs_env_rebuild_pw_env                2  3.5    0.000    0.000    0.037    0.038
 coordinate_control                   1  3.0    0.001    0.001    0.037    0.037
 pw_env_rebuild                       1  5.0    0.000    0.000    0.037    0.037
 coordinate_control_READ_COORDI       1  4.0    0.000    0.000    0.037    0.037
 read_coordinate_cif                  1  5.0    0.002    0.002    0.037    0.037
 mp_irecv_dv                      64160  8.3    0.036    0.037    0.036    0.037
 pw_grid_setup                        4  6.0    0.000    0.000    0.035    0.036
 pw_grid_setup_internal               4  7.0    0.001    0.001    0.035    0.036
 cp_cfm_cholesky_decompose         1349  7.9    0.033    0.033    0.033    0.033
 cp_cfm_triangular_invert          1349  7.9    0.032    0.033    0.032    0.033
 mp_bcast_i_src                      92  8.2    0.028    0.032    0.028    0.032
 build_overlap_matrix_low             1  5.0    0.005    0.007    0.016    0.028
 calculate_ecore_overlap              1  4.0    0.000    0.000    0.016    0.027
 build_kinetic_matrix_low             1  5.0    0.004    0.006    0.015    0.027
 mp_sum_dm3                          41  8.0    0.015    0.024    0.015    0.024
 pw_grid_sort                         4  8.0    0.016    0.016    0.023    0.023
 qs_env_rebuild_rho                   1  5.0    0.000    0.000    0.012    0.023
 qs_rho_rebuild                       1  6.0    0.001    0.001    0.012    0.023
 pw_copy                            615 10.5    0.021    0.021    0.021    0.021
 mixing_init                          1  5.0    0.019    0.021    0.021    0.021
 fft_wrap_pw1pw2_60                  83 10.5    0.001    0.001    0.020    0.021
 pw_derive                          369 11.3    0.019    0.019    0.019    0.019
 hirshfeld_integration                1  6.0    0.005    0.014    0.019    0.019
 mp_bcast_am_src                     23  8.2    0.014    0.014    0.018    0.019
 mp_sum_iv                           24  5.3    0.012    0.019    0.012    0.019
 qs_scf_ensure_work_matrices          1  3.0    0.000    0.000    0.011    0.019
 calculate_hirshfeld_normalizat       1  6.0    0.004    0.012    0.017    0.017
 build_core_ppnl                      1  5.0    0.011    0.016    0.011    0.016
 transfer_rs2pw_60                   42  9.0    0.005    0.005    0.015    0.016
 mp_sum_dm                           40  7.0    0.009    0.015    0.009    0.015
 transfer_pw2rs_60                   41 12.0    0.005    0.005    0.014    0.014
 pw_poisson_set                      42  8.9    0.001    0.001    0.013    0.014
 pw_copy_from_array                 410 12.2    0.011    0.014    0.011    0.014
 cp_cfm_scale_and_add_fm           5396  6.9    0.012    0.012    0.012    0.012
 mp_comm_size                     42903  9.0    0.011    0.012    0.011    0.012
 mp_sum_l                           429  2.1    0.008    0.011    0.008    0.011
 mp_recv_dv                        4572  7.0    0.001    0.011    0.001    0.011
 mp_comm_rank                     42903  9.0    0.010    0.011    0.010    0.011
 fft_wrap_pw1pw2_20                  83 10.5    0.001    0.001    0.010    0.011
 grid_free_task_list                  1  2.0    0.008    0.009    0.008    0.009
 pw_axpy                            414  9.3    0.009    0.009    0.009    0.009
 cp_cfm_to_cfm_columns             1349  7.9    0.009    0.009    0.009    0.009
 qs_create_task_list                  1  5.0    0.000    0.000    0.003    0.009
 generate_qs_task_list                1  6.0    0.003    0.007    0.003    0.009
 pw_zero                            206 10.4    0.008    0.008    0.008    0.008
 -------------------------------------------------------------------------------

 The number of warnings for this run is : 1
 
 -------------------------------------------------------------------------------
  **** **** ******  **  PROGRAM ENDED AT                 2025-08-04 14:50:37.971
 ***** ** ***  *** **   PROGRAM RAN ON                              i04r01c03s11
 **    ****   ******    PROGRAM RAN BY                                   di38fab
 ***** **    ** ** **   PROGRAM PROCESS ID                               3326229
  **** **  *******  **  PROGRAM STOPPED IN /hppfs/scratch/04/di38fab/09_GTH/Delt
                                           a_Set/Se/aug-SZV-MOLOPT-GTH-tier-2/8x
                                           8x8
