   4   4   0   0
  0.1917938E+02  0.4271630E-09  0.4276820E-09  0.4571480E-09  0.5000000E-15
  1.000000000000000E-004
  CAR 
 O                                       
     37.10904392    -32.06488009  301     -2.95418707      1.00000000
    -32.065  0.0000E+00  0.0000E+00  0.0000E+00  0.0000E+00
    -31.834  0.0000E+00  0.0000E+00  0.0000E+00  0.0000E+00
    -31.604  0.0000E+00  0.0000E+00  0.0000E+00  0.0000E+00
    -31.373  0.0000E+00  0.0000E+00  0.0000E+00  0.0000E+00
    -31.143  0.0000E+00  0.0000E+00  0.0000E+00  0.0000E+00
    -30.912  0.0000E+00  0.0000E+00  0.0000E+00  0.0000E+00
    -30.681  0.0000E+00  0.0000E+00  0.0000E+00  0.0000E+00
    -30.451  0.0000E+00  0.0000E+00  0.0000E+00  0.0000E+00
    -30.220  0.0000E+00  0.0000E+00  0.0000E+00  0.0000E+00
    -29.990  0.0000E+00  0.0000E+00  0.0000E+00  0.0000E+00
    -29.759  0.0000E+00  0.0000E+00  0.0000E+00  0.0000E+00
    -29.529  0.0000E+00  0.0000E+00  0.0000E+00  0.0000E+00
    -29.298  0.0000E+00  0.0000E+00  0.0000E+00  0.0000E+00
    -29.067  0.1807E-04  0.1807E-04  0.4166E-05  0.4166E-05
    -28.837  0.4243E+01  0.4243E+01  0.9784E+00  0.9784E+00
    -28.606  0.9363E-01  0.9363E-01  0.1000E+01  0.1000E+01
    -28.376  0.0000E+00  0.0000E+00  0.1000E+01  0.1000E+01
    -28.145  0.0000E+00  0.0000E+00  0.1000E+01  0.1000E+01
    -27.914  0.8014E-06  0.8014E-06  0.1000E+01  0.1000E+01
    -27.684  0.4002E+01  0.4002E+01  0.1923E+01  0.1923E+01
    -27.453  0.3351E+00  0.3351E+00  0.2000E+01  0.2000E+01
    -27.223  0.0000E+00  0.0000E+00  0.2000E+01  0.2000E+01
    -26.992  0.0000E+00  0.0000E+00  0.2000E+01  0.2000E+01
    -26.762  0.0000E+00  0.0000E+00  0.2000E+01  0.2000E+01
    -26.531  0.0000E+00  0.0000E+00  0.2000E+01  0.2000E+01
    -26.300  0.0000E+00  0.0000E+00  0.2000E+01  0.2000E+01
    -26.070  0.0000E+00  0.0000E+00  0.2000E+01  0.2000E+01
    -25.839  0.0000E+00  0.0000E+00  0.2000E+01  0.2000E+01
    -25.609  0.0000E+00  0.0000E+00  0.2000E+01  0.2000E+01
    -25.378  0.0000E+00  0.0000E+00  0.2000E+01  0.2000E+01
    -25.147  0.0000E+00  0.0000E+00  0.2000E+01  0.2000E+01
    -24.917  0.0000E+00  0.0000E+00  0.2000E+01  0.2000E+01
    -24.686  0.0000E+00  0.0000E+00  0.2000E+01  0.2000E+01
    -24.456  0.0000E+00  0.0000E+00  0.2000E+01  0.2000E+01
    -24.225  0.0000E+00  0.0000E+00  0.2000E+01  0.2000E+01
    -23.995  0.0000E+00  0.0000E+00  0.2000E+01  0.2000E+01
    -23.764  0.0000E+00  0.0000E+00  0.2000E+01  0.2000E+01
    -23.533  0.0000E+00  0.0000E+00  0.2000E+01  0.2000E+01
    -23.303  0.0000E+00  0.0000E+00  0.2000E+01  0.2000E+01
    -23.072  0.0000E+00  0.0000E+00  0.2000E+01  0.2000E+01
    -22.842  0.0000E+00  0.0000E+00  0.2000E+01  0.2000E+01
    -22.611  0.0000E+00  0.0000E+00  0.2000E+01  0.2000E+01
    -22.381  0.0000E+00  0.0000E+00  0.2000E+01  0.2000E+01
    -22.150  0.0000E+00  0.0000E+00  0.2000E+01  0.2000E+01
    -21.919  0.0000E+00  0.0000E+00  0.2000E+01  0.2000E+01
    -21.689  0.0000E+00  0.0000E+00  0.2000E+01  0.2000E+01
    -21.458  0.0000E+00  0.0000E+00  0.2000E+01  0.2000E+01
    -21.228  0.0000E+00  0.0000E+00  0.2000E+01  0.2000E+01
    -20.997  0.0000E+00  0.0000E+00  0.2000E+01  0.2000E+01
    -20.766  0.0000E+00  0.0000E+00  0.2000E+01  0.2000E+01
    -20.536  0.0000E+00  0.0000E+00  0.2000E+01  0.2000E+01
    -20.305  0.0000E+00  0.0000E+00  0.2000E+01  0.2000E+01
    -20.075  0.0000E+00  0.0000E+00  0.2000E+01  0.2000E+01
    -19.844  0.0000E+00  0.0000E+00  0.2000E+01  0.2000E+01
    -19.614  0.0000E+00  0.0000E+00  0.2000E+01  0.2000E+01
    -19.383  0.0000E+00  0.0000E+00  0.2000E+01  0.2000E+01
    -19.152  0.0000E+00  0.0000E+00  0.2000E+01  0.2000E+01
    -18.922  0.0000E+00  0.0000E+00  0.2000E+01  0.2000E+01
    -18.691  0.0000E+00  0.0000E+00  0.2000E+01  0.2000E+01
    -18.461  0.0000E+00  0.0000E+00  0.2000E+01  0.2000E+01
    -18.230  0.0000E+00  0.0000E+00  0.2000E+01  0.2000E+01
    -18.000  0.0000E+00  0.0000E+00  0.2000E+01  0.2000E+01
    -17.769  0.0000E+00  0.0000E+00  0.2000E+01  0.2000E+01
    -17.538  0.0000E+00  0.0000E+00  0.2000E+01  0.2000E+01
    -17.308  0.1393E-17  0.1393E-17  0.2000E+01  0.2000E+01
    -17.077  0.7330E-02  0.7330E-02  0.2002E+01  0.2002E+01
    -16.847  0.4282E+01  0.4282E+01  0.2989E+01  0.2989E+01
    -16.616  0.4792E-01  0.4792E-01  0.3000E+01  0.3000E+01
    -16.385  0.0000E+00  0.0000E+00  0.3000E+01  0.3000E+01
    -16.155  0.0000E+00  0.0000E+00  0.3000E+01  0.3000E+01
    -15.924  0.0000E+00  0.0000E+00  0.3000E+01  0.3000E+01
    -15.694  0.0000E+00  0.0000E+00  0.3000E+01  0.3000E+01
    -15.463  0.6548E-08  0.6548E-08  0.3000E+01  0.3000E+01
    -15.233  0.1642E+01  0.1642E+01  0.3379E+01  0.3379E+01
    -15.002  0.2695E+01  0.2695E+01  0.4000E+01  0.4000E+01
    -14.771  0.2892E-06  0.2892E-06  0.4000E+01  0.4000E+01
    -14.541  0.0000E+00  0.0000E+00  0.4000E+01  0.4000E+01
    -14.310  0.0000E+00  0.0000E+00  0.4000E+01  0.4000E+01
    -14.080  0.0000E+00  0.0000E+00  0.4000E+01  0.4000E+01
    -13.849  0.0000E+00  0.0000E+00  0.4000E+01  0.4000E+01
    -13.619  0.0000E+00  0.0000E+00  0.4000E+01  0.4000E+01
    -13.388  0.0000E+00  0.0000E+00  0.4000E+01  0.4000E+01
    -13.157  0.0000E+00  0.0000E+00  0.4000E+01  0.4000E+01
    -12.927  0.0000E+00  0.0000E+00  0.4000E+01  0.4000E+01
    -12.696  0.0000E+00  0.0000E+00  0.4000E+01  0.4000E+01
    -12.466  0.0000E+00  0.0000E+00  0.4000E+01  0.4000E+01
    -12.235  0.0000E+00  0.0000E+00  0.4000E+01  0.4000E+01
    -12.004  0.0000E+00  0.0000E+00  0.4000E+01  0.4000E+01
    -11.774  0.0000E+00  0.0000E+00  0.4000E+01  0.4000E+01
    -11.543  0.0000E+00  0.0000E+00  0.4000E+01  0.4000E+01
    -11.313  0.0000E+00  0.0000E+00  0.4000E+01  0.4000E+01
    -11.082  0.0000E+00  0.0000E+00  0.4000E+01  0.4000E+01
    -10.852  0.0000E+00  0.0000E+00  0.4000E+01  0.4000E+01
    -10.621  0.0000E+00  0.0000E+00  0.4000E+01  0.4000E+01
    -10.390  0.0000E+00  0.0000E+00  0.4000E+01  0.4000E+01
    -10.160  0.6155E-09  0.6155E-09  0.4000E+01  0.4000E+01
     -9.929  0.3521E+00  0.3521E+00  0.4081E+01  0.4081E+01
     -9.699  0.7289E+01  0.7289E+01  0.5762E+01  0.5762E+01
     -9.468  0.5370E+01  0.5370E+01  0.7000E+01  0.7000E+01
     -9.237  0.1768E-03  0.1768E-03  0.7000E+01  0.7000E+01
     -9.007  0.1338E-04  0.1338E-04  0.7000E+01  0.7000E+01
     -8.776  0.2270E+01  0.2270E+01  0.7523E+01  0.7523E+01
     -8.546  0.2067E+01  0.2067E+01  0.8000E+01  0.8000E+01
     -8.315  0.2806E-04  0.2806E-04  0.8000E+01  0.8000E+01
     -8.085  0.1411E-09  0.1411E-09  0.8000E+01  0.8000E+01
     -7.854  0.7353E+00  0.7353E+00  0.8170E+01  0.8170E+01
     -7.623  0.7638E+01  0.7638E+01  0.9931E+01  0.9931E+01
     -7.393  0.3003E+00  0.3003E+00  0.1000E+02  0.1000E+02
     -7.162  0.0000E+00  0.0000E+00  0.1000E+02  0.1000E+02
     -6.932  0.0000E+00  0.0000E+00  0.1000E+02  0.1000E+02
     -6.701  0.0000E+00  0.0000E+00  0.1000E+02  0.1000E+02
     -6.471  0.0000E+00  0.0000E+00  0.1000E+02  0.1000E+02
     -6.240  0.0000E+00  0.0000E+00  0.1000E+02  0.1000E+02
     -6.009  0.0000E+00  0.0000E+00  0.1000E+02  0.1000E+02
     -5.779  0.0000E+00  0.0000E+00  0.1000E+02  0.1000E+02
     -5.548  0.0000E+00  0.0000E+00  0.1000E+02  0.1000E+02
     -5.318  0.0000E+00  0.0000E+00  0.1000E+02  0.1000E+02
     -5.087  0.0000E+00  0.0000E+00  0.1000E+02  0.1000E+02
     -4.856  0.0000E+00  0.0000E+00  0.1000E+02  0.1000E+02
     -4.626  0.0000E+00  0.0000E+00  0.1000E+02  0.1000E+02
     -4.395  0.0000E+00  0.0000E+00  0.1000E+02  0.1000E+02
     -4.165  0.0000E+00  0.0000E+00  0.1000E+02  0.1000E+02
     -3.934  0.0000E+00  0.0000E+00  0.1000E+02  0.1000E+02
     -3.704  0.9850E-16  0.9850E-16  0.1000E+02  0.1000E+02
     -3.473  0.1928E-01  0.1928E-01  0.1000E+02  0.1000E+02
     -3.242  0.6778E+01  0.6778E+01  0.1157E+02  0.1157E+02
     -3.012  0.1877E+01  0.1877E+01  0.1200E+02  0.1200E+02
     -2.781  0.4368E-06  0.4368E-06  0.1200E+02  0.1200E+02
     -2.551  0.0000E+00  0.0000E+00  0.1200E+02  0.1200E+02
     -2.320  0.0000E+00  0.0000E+00  0.1200E+02  0.1200E+02
     -2.090  0.0000E+00  0.0000E+00  0.1200E+02  0.1200E+02
     -1.859  0.0000E+00  0.0000E+00  0.1200E+02  0.1200E+02
     -1.628  0.0000E+00  0.0000E+00  0.1200E+02  0.1200E+02
     -1.398  0.8157E-08  0.8157E-08  0.1200E+02  0.1200E+02
     -1.167  0.1924E+00  0.1924E+00  0.1204E+02  0.1204E+02
     -0.937  0.7217E+01  0.7217E+01  0.1371E+02  0.1371E+02
     -0.706  0.1265E+01  0.1265E+01  0.1400E+02  0.1400E+02
     -0.475  0.6229E-07  0.6229E-07  0.1400E+02  0.1400E+02
     -0.245  0.0000E+00  0.0000E+00  0.1400E+02  0.1400E+02
     -0.014  0.0000E+00  0.0000E+00  0.1400E+02  0.1400E+02
      0.216  0.0000E+00  0.0000E+00  0.1400E+02  0.1400E+02
      0.447  0.0000E+00  0.0000E+00  0.1400E+02  0.1400E+02
      0.677  0.0000E+00  0.0000E+00  0.1400E+02  0.1400E+02
      0.908  0.0000E+00  0.0000E+00  0.1400E+02  0.1400E+02
      1.139  0.0000E+00  0.0000E+00  0.1400E+02  0.1400E+02
      1.369  0.0000E+00  0.0000E+00  0.1400E+02  0.1400E+02
      1.600  0.0000E+00  0.0000E+00  0.1400E+02  0.1400E+02
      1.830  0.0000E+00  0.0000E+00  0.1400E+02  0.1400E+02
      2.061  0.0000E+00  0.0000E+00  0.1400E+02  0.1400E+02
      2.292  0.0000E+00  0.0000E+00  0.1400E+02  0.1400E+02
      2.522  0.0000E+00  0.0000E+00  0.1400E+02  0.1400E+02
      2.753  0.0000E+00  0.0000E+00  0.1400E+02  0.1400E+02
      2.983  0.0000E+00  0.0000E+00  0.1400E+02  0.1400E+02
      3.214  0.0000E+00  0.0000E+00  0.1400E+02  0.1400E+02
      3.444  0.1407E-14  0.1407E-14  0.1400E+02  0.1400E+02
      3.675  0.1172E-02  0.1172E-02  0.1400E+02  0.1400E+02
      3.906  0.1027E+00  0.1027E+00  0.1402E+02  0.1402E+02
      4.136  0.2612E+00  0.2612E+00  0.1408E+02  0.1408E+02
      4.367  0.4150E+00  0.4150E+00  0.1418E+02  0.1418E+02
      4.597  0.4403E+00  0.4403E+00  0.1428E+02  0.1428E+02
      4.828  0.4560E+00  0.4560E+00  0.1439E+02  0.1439E+02
      5.058  0.5651E+00  0.5651E+00  0.1452E+02  0.1452E+02
      5.289  0.6131E+00  0.6131E+00  0.1466E+02  0.1466E+02
      5.520  0.6366E+00  0.6366E+00  0.1481E+02  0.1481E+02
      5.750  0.6522E+00  0.6522E+00  0.1496E+02  0.1496E+02
      5.981  0.7856E+00  0.7856E+00  0.1514E+02  0.1514E+02
      6.211  0.9543E+00  0.9543E+00  0.1536E+02  0.1536E+02
      6.442  0.1411E+01  0.1411E+01  0.1568E+02  0.1568E+02
      6.673  0.1144E+01  0.1144E+01  0.1595E+02  0.1595E+02
      6.903  0.8998E+00  0.8998E+00  0.1615E+02  0.1615E+02
      7.134  0.6901E+00  0.6901E+00  0.1631E+02  0.1631E+02
      7.364  0.6896E+00  0.6896E+00  0.1647E+02  0.1647E+02
      7.595  0.1302E+01  0.1302E+01  0.1677E+02  0.1677E+02
      7.825  0.1207E+01  0.1207E+01  0.1705E+02  0.1705E+02
      8.056  0.1358E+01  0.1358E+01  0.1736E+02  0.1736E+02
      8.287  0.1443E+01  0.1443E+01  0.1770E+02  0.1770E+02
      8.517  0.9962E+00  0.9962E+00  0.1793E+02  0.1793E+02
      8.748  0.2928E+00  0.2928E+00  0.1799E+02  0.1799E+02
      8.978  0.2158E+00  0.2158E+00  0.1804E+02  0.1804E+02
      9.209  0.9577E+00  0.9577E+00  0.1826E+02  0.1826E+02
      9.439  0.1565E+01  0.1565E+01  0.1862E+02  0.1862E+02
      9.670  0.1289E+01  0.1289E+01  0.1892E+02  0.1892E+02
      9.901  0.9995E+00  0.9995E+00  0.1915E+02  0.1915E+02
     10.131  0.9320E+00  0.9320E+00  0.1937E+02  0.1937E+02
     10.362  0.1015E+01  0.1015E+01  0.1960E+02  0.1960E+02
     10.592  0.8524E+00  0.8524E+00  0.1980E+02  0.1980E+02
     10.823  0.9845E+00  0.9845E+00  0.2002E+02  0.2002E+02
     11.054  0.1176E+01  0.1176E+01  0.2030E+02  0.2030E+02
     11.284  0.1104E+01  0.1104E+01  0.2055E+02  0.2055E+02
     11.515  0.1065E+01  0.1065E+01  0.2080E+02  0.2080E+02
     11.745  0.1145E+01  0.1145E+01  0.2106E+02  0.2106E+02
     11.976  0.1064E+01  0.1064E+01  0.2131E+02  0.2131E+02
     12.206  0.1098E+01  0.1098E+01  0.2156E+02  0.2156E+02
     12.437  0.1217E+01  0.1217E+01  0.2184E+02  0.2184E+02
     12.668  0.1094E+01  0.1094E+01  0.2209E+02  0.2209E+02
     12.898  0.1191E+01  0.1191E+01  0.2237E+02  0.2237E+02
     13.129  0.9996E+00  0.9996E+00  0.2260E+02  0.2260E+02
     13.359  0.9669E+00  0.9669E+00  0.2282E+02  0.2282E+02
     13.590  0.1040E+01  0.1040E+01  0.2306E+02  0.2306E+02
     13.820  0.7474E+00  0.7474E+00  0.2323E+02  0.2323E+02
     14.051  0.8322E+00  0.8322E+00  0.2342E+02  0.2342E+02
     14.282  0.6519E+00  0.6519E+00  0.2357E+02  0.2357E+02
     14.512  0.9252E+00  0.9252E+00  0.2379E+02  0.2379E+02
     14.743  0.1143E+01  0.1143E+01  0.2405E+02  0.2405E+02
     14.973  0.1153E+01  0.1153E+01  0.2432E+02  0.2432E+02
     15.204  0.1333E+01  0.1333E+01  0.2462E+02  0.2462E+02
     15.435  0.1288E+01  0.1288E+01  0.2492E+02  0.2492E+02
     15.665  0.1190E+01  0.1190E+01  0.2520E+02  0.2520E+02
     15.896  0.1312E+01  0.1312E+01  0.2550E+02  0.2550E+02
     16.126  0.1135E+01  0.1135E+01  0.2576E+02  0.2576E+02
     16.357  0.1064E+01  0.1064E+01  0.2600E+02  0.2600E+02
     16.587  0.8143E+00  0.8143E+00  0.2619E+02  0.2619E+02
     16.818  0.1043E+01  0.1043E+01  0.2643E+02  0.2643E+02
     17.049  0.1063E+01  0.1063E+01  0.2668E+02  0.2668E+02
     17.279  0.9783E+00  0.9783E+00  0.2690E+02  0.2690E+02
     17.510  0.1114E+01  0.1114E+01  0.2716E+02  0.2716E+02
     17.740  0.1069E+01  0.1069E+01  0.2741E+02  0.2741E+02
     17.971  0.1291E+01  0.1291E+01  0.2771E+02  0.2771E+02
     18.202  0.1057E+01  0.1057E+01  0.2795E+02  0.2795E+02
     18.432  0.1319E+01  0.1319E+01  0.2825E+02  0.2825E+02
     18.663  0.9446E+00  0.9446E+00  0.2847E+02  0.2847E+02
     18.893  0.9583E+00  0.9583E+00  0.2869E+02  0.2869E+02
     19.124  0.9837E+00  0.9837E+00  0.2892E+02  0.2892E+02
     19.354  0.1142E+01  0.1142E+01  0.2918E+02  0.2918E+02
     19.585  0.1163E+01  0.1163E+01  0.2945E+02  0.2945E+02
     19.816  0.1155E+01  0.1155E+01  0.2972E+02  0.2972E+02
     20.046  0.1334E+01  0.1334E+01  0.3002E+02  0.3002E+02
     20.277  0.1298E+01  0.1298E+01  0.3032E+02  0.3032E+02
     20.507  0.1134E+01  0.1134E+01  0.3058E+02  0.3058E+02
     20.738  0.1257E+01  0.1257E+01  0.3087E+02  0.3087E+02
     20.968  0.1200E+01  0.1200E+01  0.3115E+02  0.3115E+02
     21.199  0.1367E+01  0.1367E+01  0.3147E+02  0.3147E+02
     21.430  0.1454E+01  0.1454E+01  0.3180E+02  0.3180E+02
     21.660  0.1402E+01  0.1402E+01  0.3212E+02  0.3212E+02
     21.891  0.1482E+01  0.1482E+01  0.3247E+02  0.3247E+02
     22.121  0.1372E+01  0.1372E+01  0.3278E+02  0.3278E+02
     22.352  0.1508E+01  0.1508E+01  0.3313E+02  0.3313E+02
     22.583  0.1424E+01  0.1424E+01  0.3346E+02  0.3346E+02
     22.813  0.1359E+01  0.1359E+01  0.3377E+02  0.3377E+02
     23.044  0.1265E+01  0.1265E+01  0.3406E+02  0.3406E+02
     23.274  0.1085E+01  0.1085E+01  0.3431E+02  0.3431E+02
     23.505  0.1165E+01  0.1165E+01  0.3458E+02  0.3458E+02
     23.735  0.1308E+01  0.1308E+01  0.3488E+02  0.3488E+02
     23.966  0.1534E+01  0.1534E+01  0.3524E+02  0.3524E+02
     24.197  0.1360E+01  0.1360E+01  0.3555E+02  0.3555E+02
     24.427  0.1362E+01  0.1362E+01  0.3587E+02  0.3587E+02
     24.658  0.1095E+01  0.1095E+01  0.3612E+02  0.3612E+02
     24.888  0.1171E+01  0.1171E+01  0.3639E+02  0.3639E+02
     25.119  0.1089E+01  0.1089E+01  0.3664E+02  0.3664E+02
     25.349  0.1198E+01  0.1198E+01  0.3692E+02  0.3692E+02
     25.580  0.1082E+01  0.1082E+01  0.3717E+02  0.3717E+02
     25.811  0.1308E+01  0.1308E+01  0.3747E+02  0.3747E+02
     26.041  0.1067E+01  0.1067E+01  0.3771E+02  0.3771E+02
     26.272  0.1218E+01  0.1218E+01  0.3799E+02  0.3799E+02
     26.502  0.1410E+01  0.1410E+01  0.3832E+02  0.3832E+02
     26.733  0.1598E+01  0.1598E+01  0.3869E+02  0.3869E+02
     26.964  0.1594E+01  0.1594E+01  0.3905E+02  0.3905E+02
     27.194  0.1774E+01  0.1774E+01  0.3946E+02  0.3946E+02
     27.425  0.1608E+01  0.1608E+01  0.3983E+02  0.3983E+02
     27.655  0.2001E+01  0.2001E+01  0.4030E+02  0.4030E+02
     27.886  0.1735E+01  0.1735E+01  0.4070E+02  0.4070E+02
     28.116  0.1992E+01  0.1992E+01  0.4116E+02  0.4116E+02
     28.347  0.2246E+01  0.2246E+01  0.4167E+02  0.4167E+02
     28.578  0.1954E+01  0.1954E+01  0.4212E+02  0.4212E+02
     28.808  0.1826E+01  0.1826E+01  0.4254E+02  0.4254E+02
     29.039  0.1731E+01  0.1731E+01  0.4294E+02  0.4294E+02
     29.269  0.1715E+01  0.1715E+01  0.4334E+02  0.4334E+02
     29.500  0.1741E+01  0.1741E+01  0.4374E+02  0.4374E+02
     29.730  0.1494E+01  0.1494E+01  0.4409E+02  0.4409E+02
     29.961  0.1614E+01  0.1614E+01  0.4446E+02  0.4446E+02
     30.192  0.2075E+01  0.2075E+01  0.4494E+02  0.4494E+02
     30.422  0.2467E+01  0.2467E+01  0.4550E+02  0.4550E+02
     30.653  0.2000E+01  0.2000E+01  0.4597E+02  0.4597E+02
     30.883  0.2076E+01  0.2076E+01  0.4644E+02  0.4644E+02
     31.114  0.1748E+01  0.1748E+01  0.4685E+02  0.4685E+02
     31.345  0.1483E+01  0.1484E+01  0.4719E+02  0.4719E+02
     31.575  0.1043E+01  0.1042E+01  0.4743E+02  0.4743E+02
     31.806  0.7676E+00  0.7676E+00  0.4761E+02  0.4761E+02
     32.036  0.6949E+00  0.6949E+00  0.4777E+02  0.4777E+02
     32.267  0.3437E+00  0.3437E+00  0.4785E+02  0.4785E+02
     32.497  0.1880E+00  0.1880E+00  0.4789E+02  0.4789E+02
     32.728  0.1492E+00  0.1492E+00  0.4792E+02  0.4792E+02
     32.959  0.1698E+00  0.1696E+00  0.4796E+02  0.4796E+02
     33.189  0.3689E-01  0.3704E-01  0.4797E+02  0.4797E+02
     33.420  0.5793E-01  0.5793E-01  0.4799E+02  0.4799E+02
     33.650  0.3010E-01  0.3011E-01  0.4799E+02  0.4799E+02
     33.881  0.2301E-01  0.2300E-01  0.4800E+02  0.4800E+02
     34.112  0.1042E-01  0.1042E-01  0.4800E+02  0.4800E+02
     34.342  0.1248E-06  0.1247E-06  0.4800E+02  0.4800E+02
     34.573  0.0000E+00  0.0000E+00  0.4800E+02  0.4800E+02
     34.803  0.0000E+00  0.0000E+00  0.4800E+02  0.4800E+02
     35.034  0.0000E+00  0.0000E+00  0.4800E+02  0.4800E+02
     35.264  0.0000E+00  0.0000E+00  0.4800E+02  0.4800E+02
     35.495  0.0000E+00  0.0000E+00  0.4800E+02  0.4800E+02
     35.726  0.0000E+00  0.0000E+00  0.4800E+02  0.4800E+02
     35.956  0.0000E+00  0.0000E+00  0.4800E+02  0.4800E+02
     36.187  0.0000E+00  0.0000E+00  0.4800E+02  0.4800E+02
     36.417  0.0000E+00  0.0000E+00  0.4800E+02  0.4800E+02
     36.648  0.0000E+00  0.0000E+00  0.4800E+02  0.4800E+02
     36.878  0.0000E+00  0.0000E+00  0.4800E+02  0.4800E+02
     37.109  0.0000E+00  0.0000E+00  0.4800E+02  0.4800E+02
