    4    4    1    2
  0.1917938E+02  0.4271630E-09  0.4276820E-09  0.4571480E-09  0.5000000E-15
  1.000000000000000E-004
  CAR 
 O                                       
     24    518     48
 
  0.0000000E+00  0.0000000E+00  0.0000000E+00  0.5787037E-03
      1        -28.920611      -28.920611   1.000000   1.000000
      2        -27.730530      -27.730530   1.000000   1.000000
      3        -16.912474      -16.912474   1.000000   1.000000
      4        -15.160050      -15.160050   1.000000   1.000000
      5         -9.971359       -9.971359   1.000000   1.000000
      6         -9.711727       -9.711727   1.000000   1.000000
      7         -9.666193       -9.666193   1.000000   1.000000
      8         -8.874636       -8.874636   1.000000   1.000000
      9         -7.666688       -7.666688   1.000000   1.000000
     10         -7.645956       -7.645956   1.000000   1.000000
     11         -3.353973       -3.353973   1.000000   1.000000
     12         -3.218987       -3.218987   1.000000   1.000000
     13         -1.013546       -1.013546   0.000000   0.000000
     14         -0.909006       -0.909006   0.000000   0.000000
     15          4.151892        4.151892   0.000000   0.000000
     16          6.847630        6.847630   0.000000   0.000000
     17          7.770217        7.770217   0.000000   0.000000
     18          8.008206        8.008206   0.000000   0.000000
     19          8.927947        8.927947   0.000000   0.000000
     20         10.826620       10.826620   0.000000   0.000000
     21         11.719703       11.719703   0.000000   0.000000
     22         12.292725       12.292725   0.000000   0.000000
     23         12.379812       12.379812   0.000000   0.000000
     24         13.600052       13.600052   0.000000   0.000000
     25         14.604844       14.604844   0.000000   0.000000
     26         15.849059       15.849059   0.000000   0.000000
     27         16.882964       16.882964   0.000000   0.000000
     28         17.113210       17.113210   0.000000   0.000000
     29         19.075527       19.075527   0.000000   0.000000
     30         19.680768       19.680768   0.000000   0.000000
     31         19.882482       19.882482   0.000000   0.000000
     32         20.780572       20.780572   0.000000   0.000000
     33         21.696138       21.696138   0.000000   0.000000
     34         21.930894       21.930894   0.000000   0.000000
     35         23.727270       23.727270   0.000000   0.000000
     36         23.953581       23.953581   0.000000   0.000000
     37         24.887957       24.887957   0.000000   0.000000
     38         25.557700       25.557700   0.000000   0.000000
     39         26.856128       26.856128   0.000000   0.000000
     40         27.282081       27.282081   0.000000   0.000000
     41         27.474675       27.474675   0.000000   0.000000
     42         28.515592       28.515592   0.000000   0.000000
     43         30.482407       30.482407   0.000000   0.000000
     44         30.916135       30.916135   0.000000   0.000000
     45         31.965751       31.965751   0.000000   0.000000
     46         32.386594       32.386594   0.000000   0.000000
     47         32.963416       32.963416   0.000000   0.000000
     48         33.438152       33.438153   0.000000   0.000000
 
  0.8333333E-01  0.2016270E-32  0.0000000E+00  0.1157407E-02
      1        -28.919777      -28.919777   1.000000   1.000000
      2        -27.731067      -27.731067   1.000000   1.000000
      3        -16.913020      -16.913020   1.000000   1.000000
      4        -15.162787      -15.162787   1.000000   1.000000
      5         -9.963753       -9.963753   1.000000   1.000000
      6         -9.704104       -9.704104   1.000000   1.000000
      7         -9.669538       -9.669538   1.000000   1.000000
      8         -8.870525       -8.870525   1.000000   1.000000
      9         -7.675997       -7.675997   1.000000   1.000000
     10         -7.660607       -7.660607   1.000000   1.000000
     11         -3.349793       -3.349793   1.000000   1.000000
     12         -3.217985       -3.217985   1.000000   1.000000
     13         -1.020728       -1.020728   0.000000   0.000000
     14         -0.914534       -0.914534   0.000000   0.000000
     15          4.208617        4.208617   0.000000   0.000000
     16          6.788705        6.788705   0.000000   0.000000
     17          7.757158        7.757158   0.000000   0.000000
     18          8.039797        8.039797   0.000000   0.000000
     19          8.958904        8.958904   0.000000   0.000000
     20         10.868359       10.868359   0.000000   0.000000
     21         11.577730       11.577730   0.000000   0.000000
     22         11.871995       11.871995   0.000000   0.000000
     23         13.190680       13.190680   0.000000   0.000000
     24         13.557175       13.557175   0.000000   0.000000
     25         14.511996       14.511996   0.000000   0.000000
     26         15.905820       15.905820   0.000000   0.000000
     27         16.828139       16.828139   0.000000   0.000000
     28         16.891384       16.891384   0.000000   0.000000
     29         19.212933       19.212933   0.000000   0.000000
     30         19.387906       19.387906   0.000000   0.000000
     31         20.199843       20.199843   0.000000   0.000000
     32         20.648073       20.648073   0.000000   0.000000
     33         21.321115       21.321115   0.000000   0.000000
     34         22.069111       22.069111   0.000000   0.000000
     35         23.719967       23.719967   0.000000   0.000000
     36         24.014811       24.014811   0.000000   0.000000
     37         25.080839       25.080839   0.000000   0.000000
     38         25.844110       25.844110   0.000000   0.000000
     39         27.013916       27.013916   0.000000   0.000000
     40         27.099668       27.099668   0.000000   0.000000
     41         27.677171       27.677171   0.000000   0.000000
     42         28.391543       28.391543   0.000000   0.000000
     43         30.486114       30.486114   0.000000   0.000000
     44         30.806503       30.806503   0.000000   0.000000
     45         31.825910       31.825910   0.000000   0.000000
     46         32.090941       32.090941   0.000000   0.000000
     47         32.162787       32.162787   0.000000   0.000000
     48         33.660452       33.660422   0.000000   0.000000
 
  0.1666667E+00  0.1924572E-32  0.0000000E+00  0.1157407E-02
      1        -28.917466      -28.917466   1.000000   1.000000
      2        -27.732533      -27.732533   1.000000   1.000000
      3        -16.914534      -16.914534   1.000000   1.000000
      4        -15.170157      -15.170157   1.000000   1.000000
      5         -9.942211       -9.942211   1.000000   1.000000
      6         -9.682902       -9.682902   1.000000   1.000000
      7         -9.679412       -9.679412   1.000000   1.000000
      8         -8.858703       -8.858703   1.000000   1.000000
      9         -7.701772       -7.701772   1.000000   1.000000
     10         -7.701043       -7.701043   1.000000   1.000000
     11         -3.338081       -3.338081   1.000000   1.000000
     12         -3.215158       -3.215158   1.000000   1.000000
     13         -1.040629       -1.040629   0.000000   0.000000
     14         -0.929658       -0.929658   0.000000   0.000000
     15          4.370919        4.370919   0.000000   0.000000
     16          6.639567        6.639567   0.000000   0.000000
     17          7.672855        7.672855   0.000000   0.000000
     18          8.173019        8.173019   0.000000   0.000000
     19          9.046697        9.046697   0.000000   0.000000
     20         10.947682       10.947682   0.000000   0.000000
     21         10.991663       10.991663   0.000000   0.000000
     22         12.290936       12.290936   0.000000   0.000000
     23         13.423169       13.423169   0.000000   0.000000
     24         14.062176       14.062176   0.000000   0.000000
     25         14.275774       14.275774   0.000000   0.000000
     26         16.132254       16.132254   0.000000   0.000000
     27         16.459624       16.459624   0.000000   0.000000
     28         16.720930       16.720930   0.000000   0.000000
     29         18.665466       18.665466   0.000000   0.000000
     30         19.466200       19.466200   0.000000   0.000000
     31         20.259318       20.259318   0.000000   0.000000
     32         20.399204       20.399204   0.000000   0.000000
     33         20.986209       20.986209   0.000000   0.000000
     34         22.506287       22.506287   0.000000   0.000000
     35         23.765560       23.765560   0.000000   0.000000
     36         24.491593       24.491593   0.000000   0.000000
     37         25.595702       25.595702   0.000000   0.000000
     38         26.228554       26.228554   0.000000   0.000000
     39         26.263392       26.263392   0.000000   0.000000
     40         27.403299       27.403299   0.000000   0.000000
     41         27.974216       27.974216   0.000000   0.000000
     42         28.540348       28.540348   0.000000   0.000000
     43         29.989030       29.989030   0.000000   0.000000
     44         30.407101       30.407101   0.000000   0.000000
     45         30.568469       30.568469   0.000000   0.000000
     46         31.785579       31.785579   0.000000   0.000000
     47         32.061208       32.061208   0.000000   0.000000
     48         33.835029       33.835029   0.000000   0.000000
 
  0.2500000E+00  0.2900007E-32  0.0000000E+00  0.1157407E-02
      1        -28.914238      -28.914238   1.000000   1.000000
      2        -27.734491      -27.734491   1.000000   1.000000
      3        -16.916657      -16.916657   1.000000   1.000000
      4        -15.180394      -15.180394   1.000000   1.000000
      5         -9.910241       -9.910241   1.000000   1.000000
      6         -9.695400       -9.695400   1.000000   1.000000
      7         -9.653034       -9.653034   1.000000   1.000000
      8         -8.841228       -8.841228   1.000000   1.000000
      9         -7.757321       -7.757321   1.000000   1.000000
     10         -7.737896       -7.737896   1.000000   1.000000
     11         -3.321519       -3.321519   1.000000   1.000000
     12         -3.211244       -3.211244   1.000000   1.000000
     13         -1.068352       -1.068352   0.000000   0.000000
     14         -0.950400       -0.950400   0.000000   0.000000
     15          4.616474        4.616474   0.000000   0.000000
     16          6.434377        6.434377   0.000000   0.000000
     17          7.572843        7.572843   0.000000   0.000000
     18          8.333842        8.333842   0.000000   0.000000
     19          9.183495        9.183495   0.000000   0.000000
     20         10.465358       10.465358   0.000000   0.000000
     21         11.189800       11.189800   0.000000   0.000000
     22         12.891864       12.891864   0.000000   0.000000
     23         13.192072       13.192072   0.000000   0.000000
     24         14.011056       14.011056   0.000000   0.000000
     25         14.759699       14.759699   0.000000   0.000000
     26         16.130396       16.130396   0.000000   0.000000
     27         16.546432       16.546432   0.000000   0.000000
     28         16.713273       16.713273   0.000000   0.000000
     29         17.706135       17.706135   0.000000   0.000000
     30         19.421148       19.421148   0.000000   0.000000
     31         19.694900       19.694900   0.000000   0.000000
     32         19.795402       19.795402   0.000000   0.000000
     33         21.815706       21.815706   0.000000   0.000000
     34         23.308777       23.308777   0.000000   0.000000
     35         23.941997       23.941997   0.000000   0.000000
     36         25.133007       25.133007   0.000000   0.000000
     37         25.441091       25.441091   0.000000   0.000000
     38         26.301549       26.301549   0.000000   0.000000
     39         26.601078       26.601078   0.000000   0.000000
     40         27.148299       27.148299   0.000000   0.000000
     41         27.665718       27.665718   0.000000   0.000000
     42         27.877656       27.877656   0.000000   0.000000
     43         29.612719       29.612719   0.000000   0.000000
     44         30.098177       30.098177   0.000000   0.000000
     45         30.820243       30.820243   0.000000   0.000000
     46         31.803729       31.803729   0.000000   0.000000
     47         32.106066       32.106066   0.000000   0.000000
     48         32.889441       32.889441   0.000000   0.000000
 
  0.3333333E+00  0.8038779E-32  0.0000000E+00  0.1157407E-02
      1        -28.910996      -28.910996   1.000000   1.000000
      2        -27.736501      -27.736501   1.000000   1.000000
      3        -16.918656      -16.918656   1.000000   1.000000
      4        -15.190473      -15.190473   1.000000   1.000000
      5         -9.872900       -9.872900   1.000000   1.000000
      6         -9.716676       -9.716676   1.000000   1.000000
      7         -9.622002       -9.622002   1.000000   1.000000
      8         -8.821828       -8.821828   1.000000   1.000000
      9         -7.815147       -7.815147   1.000000   1.000000
     10         -7.775140       -7.775140   1.000000   1.000000
     11         -3.304127       -3.304127   1.000000   1.000000
     12         -3.207147       -3.207147   1.000000   1.000000
     13         -1.096596       -1.096596   0.000000   0.000000
     14         -0.971183       -0.971183   0.000000   0.000000
     15          4.912227        4.912227   0.000000   0.000000
     16          6.189855        6.189855   0.000000   0.000000
     17          7.531539        7.531539   0.000000   0.000000
     18          8.404911        8.404911   0.000000   0.000000
     19          9.360328        9.360328   0.000000   0.000000
     20         10.147853       10.147853   0.000000   0.000000
     21         11.452496       11.452496   0.000000   0.000000
     22         12.877951       12.877951   0.000000   0.000000
     23         13.569078       13.569078   0.000000   0.000000
     24         13.866392       13.866392   0.000000   0.000000
     25         15.142991       15.142991   0.000000   0.000000
     26         15.957492       15.957492   0.000000   0.000000
     27         16.353078       16.353078   0.000000   0.000000
     28         16.663348       16.663348   0.000000   0.000000
     29         17.729184       17.729184   0.000000   0.000000
     30         18.666510       18.666510   0.000000   0.000000
     31         19.087240       19.087240   0.000000   0.000000
     32         20.221529       20.221529   0.000000   0.000000
     33         22.225839       22.225839   0.000000   0.000000
     34         24.246156       24.246156   0.000000   0.000000
     35         24.307119       24.307119   0.000000   0.000000
     36         24.767179       24.767179   0.000000   0.000000
     37         25.309550       25.309550   0.000000   0.000000
     38         25.917399       25.917399   0.000000   0.000000
     39         27.014422       27.014422   0.000000   0.000000
     40         27.106562       27.106562   0.000000   0.000000
     41         27.391159       27.391159   0.000000   0.000000
     42         28.222672       28.222672   0.000000   0.000000
     43         28.494699       28.494699   0.000000   0.000000
     44         30.678768       30.678768   0.000000   0.000000
     45         31.194259       31.194259   0.000000   0.000000
     46         31.914422       31.914422   0.000000   0.000000
     47         32.147838       32.147843   0.000000   0.000000
     48         32.160608       32.160612   0.000000   0.000000
 
  0.4166667E+00  0.1406904E-31  0.0000000E+00  0.1157407E-02
      1        -28.908618      -28.908618   1.000000   1.000000
      2        -27.737958      -27.737958   1.000000   1.000000
      3        -16.920155      -16.920155   1.000000   1.000000
      4        -15.197918      -15.197918   1.000000   1.000000
      5         -9.836865       -9.836865   1.000000   1.000000
      6         -9.740923       -9.740923   1.000000   1.000000
      7         -9.598488       -9.598488   1.000000   1.000000
      8         -8.806148       -8.806148   1.000000   1.000000
      9         -7.858746       -7.858746   1.000000   1.000000
     10         -7.803212       -7.803212   1.000000   1.000000
     11         -3.290962       -3.290962   1.000000   1.000000
     12         -3.204114       -3.204114   1.000000   1.000000
     13         -1.117733       -1.117733   0.000000   0.000000
     14         -0.986475       -0.986475   0.000000   0.000000
     15          5.218023        5.218023   0.000000   0.000000
     16          5.922545        5.922545   0.000000   0.000000
     17          7.562059        7.562059   0.000000   0.000000
     18          8.353583        8.353583   0.000000   0.000000
     19          9.561598        9.561598   0.000000   0.000000
     20          9.949107        9.949107   0.000000   0.000000
     21         11.764898       11.764898   0.000000   0.000000
     22         12.519215       12.519215   0.000000   0.000000
     23         13.967255       13.967255   0.000000   0.000000
     24         14.155222       14.155222   0.000000   0.000000
     25         15.292315       15.292315   0.000000   0.000000
     26         15.759379       15.759379   0.000000   0.000000
     27         15.924900       15.924900   0.000000   0.000000
     28         16.172315       16.172315   0.000000   0.000000
     29         18.128954       18.128954   0.000000   0.000000
     30         18.270519       18.270519   0.000000   0.000000
     31         19.442867       19.442867   0.000000   0.000000
     32         20.747853       20.747853   0.000000   0.000000
     33         21.951508       21.951508   0.000000   0.000000
     34         22.869907       22.869907   0.000000   0.000000
     35         24.680303       24.680303   0.000000   0.000000
     36         25.069056       25.069056   0.000000   0.000000
     37         25.641900       25.641900   0.000000   0.000000
     38         26.568282       26.568282   0.000000   0.000000
     39         27.257970       27.257970   0.000000   0.000000
     40         27.435357       27.435357   0.000000   0.000000
     41         27.634865       27.634865   0.000000   0.000000
     42         27.740536       27.740536   0.000000   0.000000
     43         28.375328       28.375328   0.000000   0.000000
     44         30.303005       30.303005   0.000000   0.000000
     45         30.829095       30.829095   0.000000   0.000000
     46         31.120560       31.120560   0.000000   0.000000
     47         32.080421       32.080420   0.000000   0.000000
     48         32.303978       32.303914   0.000000   0.000000
 
  0.5000000E+00  0.5800015E-32  0.0000000E+00  0.5787037E-03
      1        -28.907701      -28.907701   1.000000   1.000000
      2        -27.738462      -27.738462   1.000000   1.000000
      3        -16.920589      -16.920589   1.000000   1.000000
      4        -15.200501      -15.200501   1.000000   1.000000
      5         -9.817523       -9.817523   1.000000   1.000000
      6         -9.755954       -9.755954   1.000000   1.000000
      7         -9.589695       -9.589695   1.000000   1.000000
      8         -8.800047       -8.800047   1.000000   1.000000
      9         -7.875029       -7.875029   1.000000   1.000000
     10         -7.813665       -7.813665   1.000000   1.000000
     11         -3.285961       -3.285961   1.000000   1.000000
     12         -3.202946       -3.202946   1.000000   1.000000
     13         -1.125518       -1.125518   0.000000   0.000000
     14         -0.992045       -0.992045   0.000000   0.000000
     15          5.419664        5.419664   0.000000   0.000000
     16          5.734837        5.734837   0.000000   0.000000
     17          7.595053        7.595053   0.000000   0.000000
     18          8.301454        8.301454   0.000000   0.000000
     19          9.740722        9.740722   0.000000   0.000000
     20          9.790666        9.790666   0.000000   0.000000
     21         12.039668       12.039668   0.000000   0.000000
     22         12.226132       12.226132   0.000000   0.000000
     23         14.205361       14.205361   0.000000   0.000000
     24         14.312830       14.312830   0.000000   0.000000
     25         15.272200       15.272200   0.000000   0.000000
     26         15.395590       15.395590   0.000000   0.000000
     27         15.962856       15.962856   0.000000   0.000000
     28         16.065138       16.065138   0.000000   0.000000
     29         17.969981       17.969981   0.000000   0.000000
     30         18.075580       18.075580   0.000000   0.000000
     31         20.993278       20.993278   0.000000   0.000000
     32         21.078334       21.078334   0.000000   0.000000
     33         21.343371       21.343371   0.000000   0.000000
     34         21.366610       21.366610   0.000000   0.000000
     35         25.086679       25.086679   0.000000   0.000000
     36         25.252140       25.252140   0.000000   0.000000
     37         26.031511       26.031511   0.000000   0.000000
     38         26.105672       26.105672   0.000000   0.000000
     39         27.609033       27.609033   0.000000   0.000000
     40         27.792283       27.792283   0.000000   0.000000
     41         28.205273       28.205273   0.000000   0.000000
     42         28.250313       28.250313   0.000000   0.000000
     43         28.340765       28.340765   0.000000   0.000000
     44         28.363061       28.363061   0.000000   0.000000
     45         30.790230       30.790230   0.000000   0.000000
     46         31.014778       31.014778   0.000000   0.000000
     47         32.286949       32.286949   0.000000   0.000000
     48         32.390918       32.390918   0.000000   0.000000
 
  0.0000000E+00  0.8333333E-01  0.0000000E+00  0.1157407E-02
      1        -28.919871      -28.919871   1.000000   1.000000
      2        -27.731186      -27.731186   1.000000   1.000000
      3        -16.911413      -16.911413   1.000000   1.000000
      4        -15.160704      -15.160704   1.000000   1.000000
      5         -9.967905       -9.967905   1.000000   1.000000
      6         -9.717104       -9.717104   1.000000   1.000000
      7         -9.659801       -9.659801   1.000000   1.000000
      8         -8.872000       -8.872000   1.000000   1.000000
      9         -7.680135       -7.680135   1.000000   1.000000
     10         -7.654677       -7.654677   1.000000   1.000000
     11         -3.349438       -3.349438   1.000000   1.000000
     12         -3.220775       -3.220775   1.000000   1.000000
     13         -1.019319       -1.019319   0.000000   0.000000
     14         -0.919055       -0.919055   0.000000   0.000000
     15          4.216211        4.216211   0.000000   0.000000
     16          6.854245        6.854245   0.000000   0.000000
     17          7.730226        7.730226   0.000000   0.000000
     18          8.008013        8.008013   0.000000   0.000000
     19          8.987074        8.987074   0.000000   0.000000
     20         10.831725       10.831725   0.000000   0.000000
     21         11.768242       11.768242   0.000000   0.000000
     22         12.331327       12.331327   0.000000   0.000000
     23         12.403239       12.403239   0.000000   0.000000
     24         13.604243       13.604243   0.000000   0.000000
     25         14.583746       14.583746   0.000000   0.000000
     26         15.576457       15.576457   0.000000   0.000000
     27         16.766223       16.766223   0.000000   0.000000
     28         17.208402       17.208402   0.000000   0.000000
     29         18.913508       18.913508   0.000000   0.000000
     30         19.675873       19.675873   0.000000   0.000000
     31         20.133990       20.133990   0.000000   0.000000
     32         20.972282       20.972282   0.000000   0.000000
     33         21.293279       21.293279   0.000000   0.000000
     34         21.855571       21.855571   0.000000   0.000000
     35         23.806839       23.806839   0.000000   0.000000
     36         24.185375       24.185375   0.000000   0.000000
     37         25.090901       25.090901   0.000000   0.000000
     38         25.808372       25.808372   0.000000   0.000000
     39         26.848070       26.848070   0.000000   0.000000
     40         27.262233       27.262233   0.000000   0.000000
     41         27.788600       27.788600   0.000000   0.000000
     42         28.253747       28.253747   0.000000   0.000000
     43         30.428030       30.428030   0.000000   0.000000
     44         30.842791       30.842791   0.000000   0.000000
     45         32.109064       32.109064   0.000000   0.000000
     46         32.561254       32.561254   0.000000   0.000000
     47         32.694361       32.694361   0.000000   0.000000
     48         33.341341       33.341338   0.000000   0.000000
 
  0.8333333E-01  0.8333333E-01  0.0000000E+00  0.2314815E-02
      1        -28.919062      -28.919062   1.000000   1.000000
      2        -27.731625      -27.731625   1.000000   1.000000
      3        -16.912000      -16.912000   1.000000   1.000000
      4        -15.163295      -15.163295   1.000000   1.000000
      5         -9.960516       -9.960516   1.000000   1.000000
      6         -9.713782       -9.713782   1.000000   1.000000
      7         -9.660338       -9.660338   1.000000   1.000000
      8         -8.867963       -8.867963   1.000000   1.000000
      9         -7.701402       -7.701402   1.000000   1.000000
     10         -7.654609       -7.654609   1.000000   1.000000
     11         -3.346669       -3.346669   1.000000   1.000000
     12         -3.219643       -3.219643   1.000000   1.000000
     13         -1.026913       -1.026913   0.000000   0.000000
     14         -0.922360       -0.922360   0.000000   0.000000
     15          4.271630        4.271630   0.000000   0.000000
     16          6.794875        6.794875   0.000000   0.000000
     17          7.731728        7.731728   0.000000   0.000000
     18          8.033636        8.033636   0.000000   0.000000
     19          9.014437        9.014437   0.000000   0.000000
     20         10.845445       10.845445   0.000000   0.000000
     21         11.632453       11.632453   0.000000   0.000000
     22         11.916851       11.916851   0.000000   0.000000
     23         13.218348       13.218348   0.000000   0.000000
     24         13.548783       13.548783   0.000000   0.000000
     25         14.483531       14.483531   0.000000   0.000000
     26         15.618944       15.618944   0.000000   0.000000
     27         16.563001       16.563001   0.000000   0.000000
     28         17.199031       17.199031   0.000000   0.000000
     29         19.035560       19.035560   0.000000   0.000000
     30         19.767258       19.767258   0.000000   0.000000
     31         20.026623       20.026623   0.000000   0.000000
     32         20.831210       20.831210   0.000000   0.000000
     33         21.403832       21.403832   0.000000   0.000000
     34         21.528992       21.528992   0.000000   0.000000
     35         23.805929       23.805929   0.000000   0.000000
     36         24.267182       24.267182   0.000000   0.000000
     37         25.267498       25.267498   0.000000   0.000000
     38         26.127021       26.127021   0.000000   0.000000
     39         26.944711       26.944711   0.000000   0.000000
     40         27.017943       27.017943   0.000000   0.000000
     41         27.995864       27.995864   0.000000   0.000000
     42         28.345981       28.345981   0.000000   0.000000
     43         30.426446       30.426446   0.000000   0.000000
     44         30.760853       30.760853   0.000000   0.000000
     45         31.570335       31.570335   0.000000   0.000000
     46         31.940265       31.940265   0.000000   0.000000
     47         32.488169       32.488169   0.000000   0.000000
     48         33.594571       33.594467   0.000000   0.000000
 
  0.1666667E+00  0.8333333E-01  0.0000000E+00  0.2314815E-02
      1        -28.916858      -28.916858   1.000000   1.000000
      2        -27.732983      -27.732983   1.000000   1.000000
      3        -16.913621      -16.913621   1.000000   1.000000
      4        -15.170491      -15.170491   1.000000   1.000000
      5         -9.939597       -9.939597   1.000000   1.000000
      6         -9.708358       -9.708358   1.000000   1.000000
      7         -9.658645       -9.658645   1.000000   1.000000
      8         -8.856669       -8.856669   1.000000   1.000000
      9         -7.744527       -7.744527   1.000000   1.000000
     10         -7.669764       -7.669764   1.000000   1.000000
     11         -3.338590       -3.338590   1.000000   1.000000
     12         -3.216954       -3.216954   1.000000   1.000000
     13         -1.046598       -1.046598   0.000000   0.000000
     14         -0.932597       -0.932597   0.000000   0.000000
     15          4.430260        4.430260   0.000000   0.000000
     16          6.646378        6.646378   0.000000   0.000000
     17          7.670870        7.670870   0.000000   0.000000
     18          8.164477        8.164477   0.000000   0.000000
     19          9.095195        9.095195   0.000000   0.000000
     20         10.750684       10.750684   0.000000   0.000000
     21         11.190094       11.190094   0.000000   0.000000
     22         12.317828       12.317828   0.000000   0.000000
     23         13.387184       13.387184   0.000000   0.000000