       N       E                     dE             d eps       ncg     rms          rms(c)
DAV:   1    -0.198058599470E+02   -0.19806E+02   -0.15682E-05133536   0.110E-02    0.329E-03
DAV:   2    -0.198058597057E+02    0.24130E-06   -0.79561E-07 66768   0.223E-03
   1 F= -.19805860E+02 E0= -.19805860E+02  d E =-.823616E-11  mag=     0.0000
       N       E                     dE             ncg
DAV:   1    -0.304833792281E+05   -0.15846E+06    37632
DAV:   2    -0.409141729102E+05   -0.10431E+05    56640
DAV:   3    -0.409428011630E+05   -0.28628E+02    37824
DAV:   4    -0.409428473259E+05   -0.46163E-01    74064
DAV:   5    -0.409428473262E+05   -0.34767E-06    37920
