O                                       
           1
     3.923890    0.000000    1.688167
    -0.000000    4.276820    0.000000
     0.000000    0.000000    4.571480
   O 
     4
Direct configuration=     1
   0.93782000  0.00000000  0.14667000
   0.06218000  0.00000000  0.85333000
   0.43782000  0.50000000  0.14667000
   0.56218000  0.50000000  0.85333000
