Cr                                      
   1.00000000000000     
     2.871000    0.000000    0.000000
     0.000000    2.871000    0.000000
     0.000000    0.000000    2.871000
   Cr
     2
Direct
  0.000000  0.000000  0.000000
  0.500000  0.500000  0.500000
 
   28   28   28
 0.29151287347E+03 0.28417915407E+03 0.26136339755E+03 0.22266922857E+03 0.17185221714E+03
 0.11773031265E+03 0.70653864110E+02 0.37425352137E+02 0.18805015802E+02 0.10882546356E+02
 0.82177541941E+01 0.70632075292E+01 0.65443159098E+01 0.63267706930E+01 0.62660913941E+01
 0.63267706930E+01 0.65443159098E+01 0.70632075292E+01 0.82177541941E+01 0.10882546356E+02
 0.18805015802E+02 0.37425352137E+02 0.70653864110E+02 0.11773031265E+03 0.17185221714E+03
 0.22266922857E+03 0.26136339755E+03 0.28417915407E+03 0.28417915407E+03 0.27688299144E+03
 0.25428634960E+03 0.21620160641E+03 0.16647353494E+03 0.11376982698E+03 0.68132214105E+02
 0.36082107699E+02 0.18249568528E+02 0.10737127573E+02 0.81910557075E+01 0.70632449759E+01
 0.65541730662E+01 0.63399073691E+01 0.62800373992E+01 0.63399073691E+01 0.65541730662E+01
 0.70632449759E+01 0.81910557075E+01 0.10737127573E+02 0.18249568528E+02 0.36082107699E+02
 0.68132214105E+02 0.11376982698E+03 0.16647353494E+03 0.21620160641E+03 0.25428634960E+03
 0.27688299144E+03 0.26136339755E+03 0.25428634960E+03 0.23261422480E+03 0.19666542066E+03
 0.15044112234E+03 0.10211118921E+03 0.60807391524E+02 0.32248689566E+02 0.16708108726E+02
 0.10347982288E+02 0.81092275613E+01 0.70597918969E+01 0.65799752110E+01 0.63757192581E+01
 0.63183559939E+01 0.63757192581E+01 0.65799752110E+01 0.70597918969E+01 0.81092275613E+01
 0.10347982288E+02 0.16708108726E+02 0.32248689566E+02 0.60807391524E+02 0.10211118921E+03
 0.15044112234E+03 0.19666542066E+03 0.23261422480E+03 0.25428634960E+03 0.22266922857E+03
 0.21620160641E+03 0.19666542066E+03 0.16490974706E+03 0.12492029738E+03 0.83943827700E+02
 0.49672222096E+02 0.26620866444E+02 0.14568207611E+02 0.98329714371E+01 0.79710990124E+01
 0.70448089189E+01 0.66122742244E+01 0.64248280499E+01 0.63717664253E+01 0.64248280499E+01
 0.66122742244E+01 0.70448089189E+01 0.79710990124E+01 0.98329714371E+01 0.14568207611E+02
 0.26620866444E+02 0.49672222096E+02 0.83943827700E+02 0.12492029738E+03 0.16490974706E+03
 0.19666542066E+03 0.21620160641E+03 0.17185221714E+03 0.16647353494E+03 0.15044112234E+03
 0.12492029738E+03 0.93537145382E+02 0.62205823511E+02 0.36814368663E+02 0.20461555427E+02
 0.12412395179E+02 0.92862786711E+01 0.77837574613E+01 0.70115086534E+01 0.66402348103E+01
 0.64754848958E+01 0.64283531225E+01 0.64754848958E+01 0.66402348103E+01 0.70115086534E+01
 0.77837574613E+01 0.92862786711E+01 0.12412395179E+02 0.20461555427E+02 0.36814368663E+02
 0.62205823511E+02 0.93537145382E+02 0.12492029738E+03 0.15044112234E+03 0.16647353494E+03
 0.11773031265E+03 0.11376982698E+03 0.10211118921E+03 0.83943827700E+02 0.62205823511E+02
 0.41236292717E+02 0.25011115603E+02 0.15224364475E+02 0.10728693859E+02 0.87079406749E+01
 0.75655494810E+01 0.69585723540E+01 0.66555895225E+01 0.65170942687E+01 0.64769288457E+01
 0.65170942687E+01 0.66555895225E+01 0.69585723540E+01 0.75655494810E+01 0.87079406749E+01
 0.10728693859E+02 0.15224364475E+02 0.25011115603E+02 0.41236292717E+02 0.62205823511E+02
 0.83943827700E+02 0.10211118921E+03 0.11376982698E+03 0.70653864110E+02 0.68132214105E+02
 0.60807391524E+02 0.49672222096E+02 0.36814368663E+02 0.25011115603E+02 0.16495839639E+02
 0.11782664435E+02 0.95192179400E+01 0.81523443220E+01 0.73408503813E+01 0.68901116091E+01
 0.66542278904E+01 0.65422850449E+01 0.65092186579E+01 0.65422850449E+01 0.66542278904E+01
 0.68901116091E+01 0.73408503813E+01 0.81523443220E+01 0.95192179400E+01 0.11782664435E+02
 0.16495839639E+02 0.25011115603E+02 0.36814368663E+02 0.49672222096E+02 0.60807391524E+02
 0.68132214105E+02 0.37425352137E+02 0.36082107699E+02 0.32248689566E+02 0.26620866444E+02
 0.20461555427E+02 0.15224364475E+02 0.11782664435E+02 0.98466786930E+01 0.85419080652E+01
 0.76721717838E+01 0.71309038070E+01 0.68124284625E+01 0.66354397278E+01 0.65472224046E+01
 0.65204816023E+01 0.65472224046E+01 0.66354397278E+01 0.68124284625E+01 0.71309038070E+01
 0.76721717838E+01 0.85419080652E+01 0.98466786930E+01 0.11782664435E+02 0.15224364475E+02
 0.20461555427E+02 0.26620866444E+02 0.32248689566E+02 0.36082107699E+02 0.18805015802E+02
 0.18249568528E+02 0.16708108726E+02 0.14568207611E+02 0.12412395179E+02 0.10728693859E+02
 0.95192179400E+01 0.85419080652E+01 0.78054888564E+01 0.72898030176E+01 0.69477206774E+01
 0.67307499589E+01 0.66003703290E+01 0.65310112072E+01 0.65092186579E+01 0.65310112072E+01
 0.66003703290E+01 0.67307499589E+01 0.69477206774E+01 0.72898030176E+01 0.78054888564E+01
 0.85419080652E+01 0.95192179400E+01 0.10728693859E+02 0.12412395179E+02 0.14568207611E+02
 0.16708108726E+02 0.18249568528E+02 0.10882546356E+02 0.10737127573E+02 0.10347982288E+02
 0.98329714371E+01 0.92862786711E+01 0.87079406749E+01 0.81523443220E+01 0.76721717838E+01
 0.72898030176E+01 0.70022889924E+01 0.67941594921E+01 0.66482545745E+01 0.65512767894E+01
 0.64953109797E+01 0.64769288457E+01 0.64953109797E+01 0.65512767894E+01 0.66482545745E+01
 0.67941594921E+01 0.70022889924E+01 0.72898030176E+01 0.76721717838E+01 0.81523443220E+01
 0.87079406749E+01 0.92862786711E+01 0.98329714371E+01 0.10347982288E+02 0.10737127573E+02
 0.82177541941E+01 0.81910557075E+01 0.81092275613E+01 0.79710990124E+01 0.77837574613E+01
 0.75655494810E+01 0.73408503813E+01 0.71309038070E+01 0.69477206774E+01 0.67941594921E+01
 0.66681700397E+01 0.65674425620E+01 0.64920693079E+01 0.64446390253E+01 0.64283531225E+01
 0.64446390253E+01 0.64920693079E+01 0.65674425620E+01 0.66681700397E+01 0.67941594921E+01
 0.69477206774E+01 0.71309038070E+01 0.73408503813E+01 0.75655494810E+01 0.77837574613E+01
 0.79710990124E+01 0.81092275613E+01 0.81910557075E+01 0.70632075292E+01 0.70632449759E+01
 0.70597918969E+01 0.70448089189E+01 0.70115086534E+01 0.69585723540E+01 0.68901116091E+01
 0.68124284625E+01 0.67307499589E+01 0.66482545745E+01 0.65674425620E+01 0.64922900225E+01
 0.64293669037E+01 0.63868592530E+01 0.63717664253E+01 0.63868592530E+01 0.64293669037E+01
 0.64922900225E+01 0.65674425620E+01 0.66482545745E+01 0.67307499589E+01 0.68124284625E+01
 0.68901116091E+01 0.69585723540E+01 0.70115086534E+01 0.70448089189E+01 0.70597918969E+01
 0.70632449759E+01 0.65443159098E+01 0.65541730662E+01 0.65799752110E+01 0.66122742244E+01
 0.66402348103E+01 0.66555895225E+01 0.66542278904E+01 0.66354397278E+01 0.66003703290E+01
 0.65512767894E+01 0.64920693079E+01 0.64293669037E+01 0.63726873120E+01 0.63327805784E+01
 0.63183559939E+01 0.63327805784E+01 0.63726873120E+01 0.64293669037E+01 0.64920693079E+01
 0.65512767894E+01 0.66003703290E+01 0.66354397278E+01 0.66542278904E+01 0.66555895225E+01
 0.66402348103E+01 0.66122742244E+01 0.65799752110E+01 0.65541730662E+01 0.63267706930E+01
 0.63399073691E+01 0.63757192581E+01 0.64248280499E+01 0.64754848958E+01 0.65170942687E+01
 0.65422850449E+01 0.65472224046E+01 0.65310112072E+01 0.64953109797E+01 0.64446390253E+01
 0.63868592530E+01 0.63327805784E+01 0.62941017307E+01 0.62800373992E+01 0.62941017307E+01
 0.63327805784E+01 0.63868592530E+01 0.64446390253E+01 0.64953109797E+01 0.65310112072E+01
 0.65472224046E+01 0.65422850449E+01 0.65170942687E+01 0.64754848958E+01 0.64248280499E+01
 0.63757192581E+01 0.63399073691E+01 0.62660913941E+01 0.62800373992E+01 0.63183559939E+01
 0.63717664253E+01 0.64283531225E+01 0.64769288457E+01 0.65092186579E+01 0.65204816023E+01
 0.65092186579E+01 0.64769288457E+01 0.64283531225E+01 0.63717664253E+01 0.63183559939E+01
 0.62800373992E+01 0.62660913941E+01 0.62800373992E+01 0.63183559939E+01 0.63717664253E+01
 0.64283531225E+01 0.64769288457E+01 0.65092186579E+01 0.65204816023E+01 0.65092186579E+01
 0.64769288457E+01 0.64283531225E+01 0.63717664253E+01 0.63183559939E+01 0.62800373992E+01
 0.63267706930E+01 0.63399073691E+01 0.63757192581E+01 0.64248280499E+01 0.64754848958E+01
 0.65170942687E+01 0.65422850449E+01 0.65472224046E+01 0.65310112072E+01 0.64953109797E+01
 0.64446390253E+01 0.63868592530E+01 0.63327805784E+01 0.62941017307E+01 0.62800373992E+01
 0.62941017307E+01 0.63327805784E+01 0.63868592530E+01 0.64446390253E+01 0.64953109797E+01
 0.65310112072E+01 0.65472224046E+01 0.65422850449E+01 0.65170942687E+01 0.64754848958E+01
 0.64248280499E+01 0.63757192581E+01 0.63399073691E+01 0.65443159098E+01 0.65541730662E+01
 0.65799752110E+01 0.66122742244E+01 0.66402348103E+01 0.66555895225E+01 0.66542278904E+01
 0.66354397278E+01 0.66003703290E+01 0.65512767894E+01 0.64920693079E+01 0.64293669037E+01
 0.63726873120E+01 0.63327805784E+01 0.63183559939E+01 0.63327805784E+01 0.63726873120E+01
 0.64293669037E+01 0.64920693079E+01 0.65512767894E+01 0.66003703290E+01 0.66354397278E+01
 0.66542278904E+01 0.66555895225E+01 0.66402348103E+01 0.66122742244E+01 0.65799752110E+01
 0.65541730662E+01 0.70632075292E+01 0.70632449759E+01 0.70597918969E+01 0.70448089189E+01
 0.70115086534E+01 0.69585723540E+01 0.68901116091E+01 0.68124284625E+01 0.67307499589E+01
 0.66482545745E+01 0.65674425620E+01 0.64922900225E+01 0.64293669037E+01 0.63868592530E+01
 0.63717664253E+01 0.63868592530E+01 0.64293669037E+01 0.64922900225E+01 0.65674425620E+01
 0.66482545745E+01 0.67307499589E+01 0.68124284625E+01 0.68901116091E+01 0.69585723540E+01
 0.70115086534E+01 0.70448089189E+01 0.70597918969E+01 0.70632449759E+01 0.82177541941E+01
 0.81910557075E+01 0.81092275613E+01 0.79710990124E+01 0.77837574613E+01 0.75655494810E+01
 0.73408503813E+01 0.71309038070E+01 0.69477206774E+01 0.67941594921E+01 0.66681700397E+01
 0.65674425620E+01 0.64920693079E+01 0.64446390253E+01 0.64283531225E+01 0.64446390253E+01
 0.64920693079E+01 0.65674425620E+01 0.66681700397E+01 0.67941594921E+01 0.69477206774E+01
 0.71309038070E+01 0.73408503813E+01 0.75655494810E+01 0.77837574613E+01 0.79710990124E+01
 0.81092275613E+01 0.81910557075E+01 0.10882546356E+02 0.10737127573E+02 0.10347982288E+02
 0.98329714371E+01 0.92862786711E+01 0.87079406749E+01 0.81523443220E+01 0.76721717838E+01
 0.72898030176E+01 0.70022889924E+01 0.67941594921E+01 0.66482545745E+01 0.65512767894E+01
 0.64953109797E+01 0.64769288457E+01 0.64953109797E+01 0.65512767894E+01 0.66482545745E+01
 0.67941594921E+01 0.70022889924E+01 0.72898030176E+01 0.76721717838E+01 0.81523443220E+01
 0.87079406749E+01 0.92862786711E+01 0.98329714371E+01 0.10347982288E+02 0.10737127573E+02
 0.18805015802E+02 0.18249568528E+02 0.16708108726E+02 0.14568207611E+02 0.12412395179E+02
 0.10728693859E+02 0.95192179400E+01 0.85419080652E+01 0.78054888564E+01 0.72898030176E+01
 0.69477206774E+01 0.67307499589E+01 0.66003703290E+01 0.65310112072E+01 0.65092186579E+01
 0.65310112072E+01 0.66003703290E+01 0.67307499589E+01 0.69477206774E+01 0.72898030176E+01
 0.78054888564E+01 0.85419080652E+01 0.95192179400E+01 0.10728693859E+02 0.12412395179E+02
 0.14568207611E+02 0.16708108726E+02 0.18249568528E+02 0.37425352137E+02 0.36082107699E+02
 0.32248689566E+02 0.26620866444E+02 0.20461555427E+02 0.15224364475E+02 0.11782664435E+02
 0.98466786930E+01 0.85419080652E+01 0.76721717838E+01 0.71309038070E+01 0.68124284625E+01
 0.66354397278E+01 0.65472224046E+01 0.65204816023E+01 0.65472224046E+01 0.66354397278E+01
 0.68124284625E+01 0.71309038070E+01 0.76721717838E+01 0.85419080652E+01 0.98466786930E+01
 0.11782664435E+02 0.15224364475E+02 0.20461555427E+02 0.26620866444E+02 0.32248689566E+02
 0.36082107699E+02 0.70653864110E+02 0.68132214105E+02 0.60807391524E+02 0.49672222096E+02
 0.36814368663E+02 0.25011115603E+02 0.16495839639E+02 0.11782664435E+02 0.95192179400E+01
 0.81523443220E+01 0.73408503813E+01 0.68901116091E+01 0.66542278904E+01 0.65422850449E+01
 0.65092186579E+01 0.65422850449E+01 0.66542278904E+01 0.68901116091E+01 0.73408503813E+01
 0.81523443220E+01 0.95192179400E+01 0.11782664435E+02 0.16495839639E+02 0.25011115603E+02
 0.36814368663E+02 0.49672222096E+02 0.60807391524E+02 0.68132214105E+02 0.11773031265E+03
 0.11376982698E+03 0.10211118921E+03 0.83943827700E+02 0.62205823511E+02 0.41236292717E+02
 0.25011115603E+02 0.15224364475E+02 0.10728693859E+02 0.87079406749E+01 0.75655494810E+01
 0.69585723540E+01 0.66555895225E+01 0.65170942687E+01 0.64769288457E+01 0.65170942687E+01
 0.66555895225E+01 0.69585723540E+01 0.75655494810E+01 0.87079406749E+01 0.10728693859E+02
 0.15224364475E+02 0.25011115603E+02 0.41236292717E+02 0.62205823511E+02 0.83943827700E+02
 0.10211118921E+03 0.11376982698E+03 0.17185221714E+03 0.16647353494E+03 0.15044112234E+03
 0.12492029738E+03 0.93537145382E+02 0.62205823511E+02 0.36814368663E+02 0.20461555427E+02
 0.12412395179E+02 0.92862786711E+01 0.77837574613E+01 0.70115086534E+01 0.66402348103E+01
 0.64754848958E+01 0.64283531225E+01 0.64754848958E+01 0.66402348103E+01 0.70115086534E+01
 0.77837574613E+01 0.92862786711E+01 0.12412395179E+02 0.20461555427E+02 0.36814368663E+02
 0.62205823511E+02 0.93537145382E+02 0.12492029738E+03 0.15044112234E+03 0.16647353494E+03
 0.22266922857E+03 0.21620160641E+03 0.19666542066E+03 0.16490974706E+03 0.12492029738E+03
 0.83943827700E+02 0.49672222096E+02 0.26620866444E+02 0.14568207611E+02 0.98329714371E+01
 0.79710990124E+01 0.70448089189E+01 0.66122742244E+01 0.64248280499E+01 0.63717664253E+01
 0.64248280499E+01 0.66122742244E+01 0.70448089189E+01 0.79710990124E+01 0.98329714371E+01
 0.14568207611E+02 0.26620866444E+02 0.49672222096E+02 0.83943827700E+02 0.12492029738E+03
 0.16490974706E+03 0.19666542066E+03 0.21620160641E+03 0.26136339755E+03 0.25428634960E+03
 0.23261422480E+03 0.19666542066E+03 0.15044112234E+03 0.10211118921E+03 0.60807391524E+02
 0.32248689566E+02 0.16708108726E+02 0.10347982288E+02 0.81092275613E+01 0.70597918969E+01
 0.65799752110E+01 0.63757192581E+01 0.63183559939E+01 0.63757192581E+01 0.65799752110E+01
 0.70597918969E+01 0.81092275613E+01 0.10347982288E+02 0.16708108726E+02 0.32248689566E+02
 0.60807391524E+02 0.10211118921E+03 0.15044112234E+03 0.19666542066E+03 0.23261422480E+03
 0.25428634960E+03 0.28417915407E+03 0.27688299144E+03 0.25428634960E+03 0.21620160641E+03
 0.16647353494E+03 0.11376982698E+03 0.68132214105E+02 0.36082107699E+02 0.18249568528E+02
 0.10737127573E+02 0.81910557075E+01 0.70632449759E+01 0.65541730662E+01 0.63399073691E+01
 0.62800373992E+01 0.63399073691E+01 0.65541730662E+01 0.70632449759E+01 0.81910557075E+01
 0.10737127573E+02 0.18249568528E+02 0.36082107699E+02 0.68132214105E+02 0.11376982698E+03
 0.16647353494E+03 0.21620160641E+03 0.25428634960E+03 0.27688299144E+03 0.28417915407E+03
 0.27688299144E+03 0.25428634960E+03 0.21620160641E+03 0.16647353494E+03 0.11376982698E+03
 0.68132214105E+02 0.36082107699E+02 0.18249568528E+02 0.10737127573E+02 0.81910557075E+01
 0.70632449759E+01 0.65541730662E+01 0.63399073691E+01 0.62800373992E+01 0.63399073691E+01
 0.65541730662E+01 0.70632449759E+01 0.81910557075E+01 0.10737127573E+02 0.18249568528E+02
 0.36082107699E+02 0.68132214105E+02 0.11376982698E+03 0.16647353494E+03 0.21620160641E+03
 0.25428634960E+03 0.27688299144E+03 0.27688299144E+03 0.26963240684E+03 0.24727311466E+03
 0.20981359059E+03 0.16117815550E+03 0.10988344401E+03 0.65668366288E+02 0.34779284398E+02
 0.17718591019E+02 0.10601917624E+02 0.81654838781E+01 0.70637378677E+01 0.65642435616E+01
 0.63531810802E+01 0.62941017307E+01 0.63531810802E+01 0.65642435616E+01 0.70637378677E+01
 0.81654838781E+01 0.10601917624E+02 0.17718591019E+02 0.34779284398E+02 0.65668366288E+02
 0.10988344401E+03 0.16117815550E+03 0.20981359059E+03 0.24727311466E+03 0.26963240684E+03
 0.25428634960E+03 0.24727311466E+03 0.22587776320E+03 0.19058191123E+03 0.14544214974E+03
 0.98477314604E+02 0.58534050686E+02 0.31074116384E+02 0.16250706349E+02 0.10240472138E+02
 0.80869490717E+01 0.70616035700E+01 0.65906701077E+01 0.63894043067E+01 0.63327805784E+01
 0.63894043067E+01 0.65906701077E+01 0.70616035700E+01 0.80869490717E+01 0.10240472138E+02
 0.16250706349E+02 0.31074116384E+02 0.58534050686E+02 0.98477314604E+02 0.14544214974E+03
 0.19058191123E+03 0.22587776320E+03 0.24727311466E+03 0.21620160641E+03 0.20981359059E+03
 0.19058191123E+03 0.15947740371E+03 0.12051323782E+03 0.80790889100E+02 0.47746720859E+02
 0.25667847193E+02 0.14226868257E+02 0.97601273315E+01 0.79540180904E+01 0.70487170640E+01
 0.66240162123E+01 0.64392522064E+01 0.63868592530E+01 0.64392522064E+01 0.66240162123E+01
 0.70487170640E+01 0.79540180904E+01 0.97601273315E+01 0.14226868257E+02 0.25667847193E+02
 0.47746720859E+02 0.80790889100E+02 0.12051323782E+03 0.15947740371E+03 0.19058191123E+03
 0.20981359059E+03 0.16647353494E+03 0.16117815550E+03 0.14544214974E+03 0.12051323782E+03
 0.90022092620E+02 0.59751630636E+02 0.35374037281E+02 0.19798236490E+02 0.12204302776E+02
 0.92368121162E+01 0.77733596548E+01 0.70182780088E+01 0.66535927189E+01 0.64911777371E+01
 0.64446390253E+01 0.64911777371E+01 0.66535927189E+01 0.70182780088E+01 0.77733596548E+01
 0.92368121162E+01 0.12204302776E+02 0.19798236490E+02 0.35374037281E+02 0.59751630636E+02
 0.90022092620E+02 0.12051323782E+03 0.14544214974E+03 0.16117815550E+03 0.11376982698E+03
 0.10988344401E+03 0.98477314604E+02 0.80790889100E+02 0.59751630636E+02 0.39587949342E+02
 0.24105581075E+02 0.14853898210E+02 0.10627995519E+02 0.86759363263E+01 0.75628242079E+01
 0.69690749719E+01 0.66714376450E+01 0.65349497655E+01 0.64953109797E+01 0.65349497655E+01
 0.66714376450E+01 0.69690749719E+01 0.75628242079E+01 0.86759363263E+01 0.10627995519E+02
 0.14853898210E+02 0.24105581075E+02 0.39587949342E+02 0.59751630636E+02 0.80790889100E+02
 0.98477314604E+02 0.10988344401E+03 0.68132214105E+02 0.65668366288E+02 0.58534050686E+02
 0.47746720859E+02 0.35374037281E+02 0.24105581075E+02 0.16051461295E+02 0.11628911891E+02
 0.94660604463E+01 0.81373678944E+01 0.73463245077E+01 0.69053721856E+01 0.66737855447E+01
 0.65635965044E+01 0.65310112072E+01 0.65635965044E+01 0.66737855447E+01 0.69053721856E+01
 0.73463245077E+01 0.81373678944E+01 0.94660604463E+01 0.11628911891E+02 0.16051461295E+02
 0.24105581075E+02 0.35374037281E+02 0.47746720859E+02 0.58534050686E+02 0.65668366288E+02
 0.36082107699E+02 0.34779284398E+02 0.31074116384E+02 0.25667847193E+02 0.19798236490E+02
 0.14853898210E+02 0.11628911891E+02 0.97845488758E+01 0.85179139636E+01 0.76722468396E+01
 0.71447310676E+01 0.68335111684E+01 0.66601012442E+01 0.65734983612E+01 0.65472224046E+01
 0.65734983612E+01 0.66601012442E+01 0.68335111684E+01 0.71447310676E+01 0.76722468396E+01
 0.85179139636E+01 0.97845488758E+01 0.11628911891E+02 0.14853898210E+02 0.19798236490E+02
 0.25667847193E+02 0.31074116384E+02 0.34779284398E+02 0.18249568528E+02 0.17718591019E+02
 0.16250706349E+02 0.14226868257E+02 0.12204302776E+02 0.10627995519E+02 0.94660604463E+01
 0.85179139636E+01 0.78031782981E+01 0.73023027336E+01 0.69697190271E+01 0.67584944570E+01
 0.66313508916E+01 0.65635965044E+01 0.65422850449E+01 0.65635965044E+01 0.66313508916E+01
 0.67584944570E+01 0.69697190271E+01 0.73023027336E+01 0.78031782981E+01 0.85179139636E+01
 0.94660604463E+01 0.10627995519E+02 0.12204302776E+02 0.14226868257E+02 0.16250706349E+02
 0.17718591019E+02 0.10737127573E+02 0.10601917624E+02 0.10240472138E+02 0.97601273315E+01
 0.92368121162E+01 0.86759363263E+01 0.81373678944E+01 0.76722468396E+01 0.73023027336E+01
 0.70245606575E+01 0.68237500139E+01 0.66829591253E+01 0.65892046901E+01 0.65349497655E+01
 0.65170942687E+01 0.65349497655E+01 0.65892046901E+01 0.66829591253E+01 0.68237500139E+01
 0.70245606575E+01 0.73023027336E+01 0.76722468396E+01 0.81373678944E+01 0.86759363263E+01
 0.92368121162E+01 0.97601273315E+01 0.10240472138E+02 0.10601917624E+02 0.81910557075E+01
 0.81654838781E+01 0.80869490717E+01 0.79540180904E+01 0.77733596548E+01 0.75628242079E+01
 0.73463245077E+01 0.71447310676E+01 0.69697190271E+01 0.68237500139E+01 0.67043023431E+01
 0.66086517458E+01 0.65367118348E+01 0.64911777371E+01 0.64754848958E+01 0.64911777371E+01
 0.65367118348E+01 0.66086517458E+01 0.67043023431E+01 0.68237500139E+01 0.69697190271E+01
 0.71447310676E+01 0.73463245077E+01 0.75628242079E+01 0.77733596548E+01 0.79540180904E+01
 0.80869490717E+01 0.81654838781E+01 0.70632449759E+01 0.70637378677E+01 0.70616035700E+01
 0.70487170640E+01 0.70182780088E+01 0.69690749719E+01 0.69053721856E+01 0.68335111684E+01
 0.67584944570E+01 0.66829591253E+01 0.66086517458E+01 0.65388306491E+01 0.64796465727E+01
 0.64392522064E+01 0.64248280499E+01 0.64392522064E+01 0.64796465727E+01 0.65388306491E+01
 0.66086517458E+01 0.66829591253E+01 0.67584944570E+01 0.68335111684E+01 0.69053721856E+01
 0.69690749719E+01 0.70182780088E+01 0.70487170640E+01 0.70616035700E+01 0.70637378677E+01
 0.65541730662E+01 0.65642435616E+01 0.65906701077E+01 0.66240162123E+01 0.66535927189E+01
 0.66714376450E+01 0.66737855447E+01 0.66601012442E+01 0.66313508916E+01 0.65892046901E+01
 0.65367118348E+01 0.64796465727E+01 0.64269969727E+01 0.63894043067E+01 0.63757192581E+01
 0.63894043067E+01 0.64269969727E+01 0.64796465727E+01 0.65367118348E+01 0.65892046901E+01
 0.66313508916E+01 0.66601012442E+01 0.66737855447E+01 0.66714376450E+01 0.66535927189E+01
 0.66240162123E+01 0.65906701077E+01 0.65642435616E+01 0.63399073691E+01 0.63531810802E+01
 0.63894043067E+01 0.64392522064E+01 0.64911777371E+01 0.65349497655E+01 0.65635965044E+01
 0.65734983612E+01 0.65635965044E+01 0.65349497655E+01 0.64911777371E+01 0.64392522064E+01
 0.63894043067E+01 0.63531810802E+01 0.63399073691E+01 0.63531810802E+01 0.63894043067E+01
 0.64392522064E+01 0.64911777371E+01 0.65349497655E+01 0.65635965044E+01 0.65734983612E+01
 0.65635965044E+01 0.65349497655E+01 0.64911777371E+01 0.64392522064E+01 0.63894043067E+01
 0.63531810802E+01 0.62800373992E+01 0.62941017307E+01 0.63327805784E+01 0.63868592530E+01
 0.64446390253E+01 0.64953109797E+01 0.65310112072E+01 0.65472224046E+01 0.65422850449E+01
 0.65170942687E+01 0.64754848958E+01 0.64248280499E+01 0.63757192581E+01 0.63399073691E+01
 0.63267706930E+01 0.63399073691E+01 0.63757192581E+01 0.64248280499E+01 0.64754848958E+01
 0.65170942687E+01 0.65422850449E+01 0.65472224046E+01 0.65310112072E+01 0.64953109797E+01
 0.64446390253E+01 0.63868592530E+01 0.63327805784E+01 0.62941017307E+01 0.63399073691E+01
 0.63531810802E+01 0.63894043067E+01 0.64392522064E+01 0.64911777371E+01 0.65349497655E+01
 0.65635965044E+01 0.65734983612E+01 0.65635965044E+01 0.65349497655E+01 0.64911777371E+01
 0.64392522064E+01 0.63894043067E+01 0.63531810802E+01 0.63399073691E+01 0.63531810802E+01
 0.63894043067E+01 0.64392522064E+01 0.64911777371E+01 0.65349497655E+01 0.65635965044E+01
 0.65734983612E+01 0.65635965044E+01 0.65349497655E+01 0.64911777371E+01 0.64392522064E+01
 0.63894043067E+01 0.63531810802E+01 0.65541730662E+01 0.65642435616E+01 0.65906701077E+01
 0.66240162123E+01 0.66535927189E+01 0.66714376450E+01 0.66737855447E+01 0.66601012442E+01
 0.66313508916E+01 0.65892046901E+01 0.65367118348E+01 0.64796465727E+01 0.64269969727E+01
 0.63894043067E+01 0.63757192581E+01 0.63894043067E+01 0.64269969727E+01 0.64796465727E+01
 0.65367118348E+01 0.65892046901E+01 0.66313508916E+01 0.66601012442E+01 0.66737855447E+01
 0.66714376450E+01 0.66535927189E+01 0.66240162123E+01 0.65906701077E+01 0.65642435616E+01
 0.70632449759E+01 0.70637378677E+01 0.70616035700E+01 0.70487170640E+01 0.70182780088E+01
 0.69690749719E+01 0.69053721856E+01 0.68335111684E+01 0.67584944570E+01 0.66829591253E+01
 0.66086517458E+01 0.65388306491E+01 0.64796465727E+01 0.64392522064E+01 0.64248280499E+01
 0.64392522064E+01 0.64796465727E+01 0.65388306491E+01 0.66086517458E+01 0.66829591253E+01
 0.67584944570E+01 0.68335111684E+01 0.69053721856E+01 0.69690749719E+01 0.70182780088E+01
 0.70487170640E+01 0.70616035700E+01 0.70637378677E+01 0.81910557075E+01 0.81654838781E+01
 0.80869490717E+01 0.79540180904E+01 0.77733596548E+01 0.75628242079E+01 0.73463245077E+01
 0.71447310676E+01 0.69697190271E+01 0.68237500139E+01 0.67043023431E+01 0.66086517458E+01
 0.65367118348E+01 0.64911777371E+01 0.64754848958E+01 0.64911777371E+01 0.65367118348E+01
 0.66086517458E+01 0.67043023431E+01 0.68237500139E+01 0.69697190271E+01 0.71447310676E+01
 0.73463245077E+01 0.75628242079E+01 0.77733596548E+01 0.79540180904E+01 0.80869490717E+01
 0.81654838781E+01 0.10737127573E+02 0.10601917624E+02 0.10240472138E+02 0.97601273315E+01
 0.92368121162E+01 0.86759363263E+01 0.81373678944E+01 0.76722468396E+01 0.73023027336E+01
 0.70245606575E+01 0.68237500139E+01 0.66829591253E+01 0.65892046901E+01 0.65349497655E+01
 0.65170942687E+01 0.65349497655E+01 0.65892046901E+01 0.66829591253E+01 0.68237500139E+01
 0.70245606575E+01 0.73023027336E+01 0.76722468396E+01 0.81373678944E+01 0.86759363263E+01
 0.92368121162E+01 0.97601273315E+01 0.10240472138E+02 0.10601917624E+02 0.18249568528E+02
 0.17718591019E+02 0.16250706349E+02 0.14226868257E+02 0.12204302776E+02 0.10627995519E+02
 0.94660604463E+01 0.85179139636E+01 0.78031782981E+01 0.73023027336E+01 0.69697190271E+01
 0.67584944570E+01 0.66313508916E+01 0.65635965044E+01 0.65422850449E+01 0.65635965044E+01
 0.66313508916E+01 0.67584944570E+01 0.69697190271E+01 0.73023027336E+01 0.78031782981E+01
 0.85179139636E+01 0.94660604463E+01 0.10627995519E+02 0.12204302776E+02 0.14226868257E+02
 0.16250706349E+02 0.17718591019E+02 0.36082107699E+02 0.34779284398E+02 0.31074116384E+02
 0.25667847193E+02 0.19798236490E+02 0.14853898210E+02 0.11628911891E+02 0.97845488758E+01
 0.85179139636E+01 0.76722468396E+01 0.71447310676E+01 0.68335111684E+01 0.66601012442E+01
 0.65734983612E+01 0.65472224046E+01 0.65734983612E+01 0.66601012442E+01 0.68335111684E+01
 0.71447310676E+01 0.76722468396E+01 0.85179139636E+01 0.97845488758E+01 0.11628911891E+02
 0.14853898210E+02 0.19798236490E+02 0.25667847193E+02 0.31074116384E+02 0.34779284398E+02
 0.68132214105E+02 0.65668366288E+02 0.58534050686E+02 0.47746720859E+02 0.35374037281E+02
 0.24105581075E+02 0.16051461295E+02 0.11628911891E+02 0.94660604463E+01 0.81373678944E+01
 0.73463245077E+01 0.69053721856E+01 0.66737855447E+01 0.65635965044E+01 0.65310112072E+01
 0.65635965044E+01 0.66737855447E+01 0.69053721856E+01 0.73463245077E+01 0.81373678944E+01
 0.94660604463E+01 0.11628911891E+02 0.16051461295E+02 0.24105581075E+02 0.35374037281E+02
 0.47746720859E+02 0.58534050686E+02 0.65668366288E+02 0.11376982698E+03 0.10988344401E+03
 0.98477314604E+02 0.80790889100E+02 0.59751630636E+02 0.39587949342E+02 0.24105581075E+02
 0.14853898210E+02 0.10627995519E+02 0.86759363263E+01 0.75628242079E+01 0.69690749719E+01
 0.66714376450E+01 0.65349497655E+01 0.64953109797E+01 0.65349497655E+01 0.66714376450E+01
 0.69690749719E+01 0.75628242079E+01 0.86759363263E+01 0.10627995519E+02 0.14853898210E+02
 0.24105581075E+02 0.39587949342E+02 0.59751630636E+02 0.80790889100E+02 0.98477314604E+02
 0.10988344401E+03 0.16647353494E+03 0.16117815550E+03 0.14544214974E+03 0.12051323782E+03
 0.90022092620E+02 0.59751630636E+02 0.35374037281E+02 0.19798236490E+02 0.12204302776E+02
 0.92368121162E+01 0.77733596548E+01 0.70182780088E+01 0.66535927189E+01 0.64911777371E+01
 0.64446390253E+01 0.64911777371E+01 0.66535927189E+01 0.70182780088E+01 0.77733596548E+01
 0.92368121162E+01 0.12204302776E+02 0.19798236490E+02 0.35374037281E+02 0.59751630636E+02
 0.90022092620E+02 0.12051323782E+03 0.14544214974E+03 0.16117815550E+03 0.21620160641E+03
 0.20981359059E+03 0.19058191123E+03 0.15947740371E+03 0.12051323782E+03 0.80790889100E+02
 0.47746720859E+02 0.25667847193E+02 0.14226868257E+02 0.97601273315E+01 0.79540180904E+01
 0.70487170640E+01 0.66240162123E+01 0.64392522064E+01 0.63868592530E+01 0.64392522064E+01
 0.66240162123E+01 0.70487170640E+01 0.79540180904E+01 0.97601273315E+01 0.14226868257E+02
 0.25667847193E+02 0.47746720859E+02 0.80790889100E+02 0.12051323782E+03 0.15947740371E+03
 0.19058191123E+03 0.20981359059E+03 0.25428634960E+03 0.24727311466E+03 0.22587776320E+03
 0.19058191123E+03 0.14544214974E+03 0.98477314604E+02 0.58534050686E+02 0.31074116384E+02
 0.16250706349E+02 0.10240472138E+02 0.80869490717E+01 0.70616035700E+01 0.65906701077E+01
 0.63894043067E+01 0.63327805784E+01 0.63894043067E+01 0.65906701077E+01 0.70616035700E+01
 0.80869490717E+01 0.10240472138E+02 0.16250706349E+02 0.31074116384E+02 0.58534050686E+02
 0.98477314604E+02 0.14544214974E+03 0.19058191123E+03 0.22587776320E+03 0.24727311466E+03
 0.27688299144E+03 0.26963240684E+03 0.24727311466E+03 0.20981359059E+03 0.16117815550E+03
 0.10988344401E+03 0.65668366288E+02 0.34779284398E+02 0.17718591019E+02 0.10601917624E+02
 0.81654838781E+01 0.70637378677E+01 0.65642435616E+01 0.63531810802E+01 0.62941017307E+01
 0.63531810802E+01 0.65642435616E+01 0.70637378677E+01 0.81654838781E+01 0.10601917624E+02
 0.17718591019E+02 0.34779284398E+02 0.65668366288E+02 0.10988344401E+03 0.16117815550E+03
 0.20981359059E+03 0.24727311466E+03 0.26963240684E+03 0.26136339755E+03 0.25428634960E+03
 0.23261422480E+03 0.19666542066E+03 0.15044112234E+03 0.10211118921E+03 0.60807391524E+02
 0.32248689566E+02 0.16708108726E+02 0.10347982288E+02 0.81092275613E+01 0.70597918969E+01
 0.65799752110E+01 0.63757192581E+01 0.63183559939E+01 0.63757192581E+01 0.65799752110E+01
 0.70597918969E+01 0.81092275613E+01 0.10347982288E+02 0.16708108726E+02 0.32248689566E+02
 0.60807391524E+02 0.10211118921E+03 0.15044112234E+03 0.19666542066E+03 0.23261422480E+03
 0.25428634960E+03 0.25428634960E+03 0.24727311466E+03 0.22587776320E+03 0.19058191123E+03
 0.14544214974E+03 0.98477314604E+02 0.58534050686E+02 0.31074116384E+02 0.16250706349E+02
 0.10240472138E+02 0.80869490717E+01 0.70616035700E+01 0.65906701077E+01 0.63894043067E+01
 0.63327805784E+01 0.63894043067E+01 0.65906701077E+01 0.70616035700E+01 0.80869490717E+01
 0.10240472138E+02 0.16250706349E+02 0.31074116384E+02 0.58534050686E+02 0.98477314604E+02
 0.14544214974E+03 0.19058191123E+03 0.22587776320E+03 0.24727311466E+03 0.23261422480E+03
 0.22587776320E+03 0.20552464462E+03 0.17242453732E+03 0.13070665867E+03 0.87898527370E+02