   2   2   0   0
  0.1183231E+02  0.2871000E-09  0.2871000E-09  0.2871000E-09  0.5000000E-15
  1.000000000000000E-004
  CAR 
 Cr                                      
     80.75185077    -38.55853506  301     10.61817435      1.00000000
    -38.559  0.0000E+00  0.0000E+00  0.0000E+00  0.0000E+00
    -38.161  0.0000E+00  0.0000E+00  0.0000E+00  0.0000E+00
    -37.763  0.0000E+00  0.0000E+00  0.0000E+00  0.0000E+00
    -37.365  0.0000E+00  0.0000E+00  0.0000E+00  0.0000E+00
    -36.968  0.0000E+00  0.0000E+00  0.0000E+00  0.0000E+00
    -36.570  0.0000E+00  0.0000E+00  0.0000E+00  0.0000E+00
    -36.172  0.0000E+00  0.0000E+00  0.0000E+00  0.0000E+00
    -35.775  0.0000E+00  0.0000E+00  0.0000E+00  0.0000E+00
    -35.377  0.0000E+00  0.0000E+00  0.0000E+00  0.0000E+00
    -34.979  0.0000E+00  0.0000E+00  0.0000E+00  0.0000E+00
    -34.582  0.0000E+00  0.0000E+00  0.0000E+00  0.0000E+00
    -34.184  0.0000E+00  0.0000E+00  0.0000E+00  0.0000E+00
    -33.786  0.0000E+00  0.0000E+00  0.0000E+00  0.0000E+00
    -33.388  0.7243E-14  0.7243E-14  0.2880E-14  0.2880E-14
    -32.991  0.3274E+01  0.3274E+01  0.1302E+01  0.1302E+01
    -32.593  0.3886E+01  0.3886E+01  0.3000E+01  0.3000E+01
    -32.195  0.0000E+00  0.0000E+00  0.3000E+01  0.3000E+01
    -31.798  0.1241E+01  0.1241E+01  0.3493E+01  0.3493E+01
    -31.400  0.6065E+01  0.6065E+01  0.6000E+01  0.6000E+01
    -31.002  0.0000E+00  0.0000E+00  0.6000E+01  0.6000E+01
    -30.605  0.0000E+00  0.0000E+00  0.6000E+01  0.6000E+01
    -30.207  0.0000E+00  0.0000E+00  0.6000E+01  0.6000E+01
    -29.809  0.0000E+00  0.0000E+00  0.6000E+01  0.6000E+01
    -29.411  0.0000E+00  0.0000E+00  0.6000E+01  0.6000E+01
    -29.014  0.0000E+00  0.0000E+00  0.6000E+01  0.6000E+01
    -28.616  0.0000E+00  0.0000E+00  0.6000E+01  0.6000E+01
    -28.218  0.0000E+00  0.0000E+00  0.6000E+01  0.6000E+01
    -27.821  0.0000E+00  0.0000E+00  0.6000E+01  0.6000E+01
    -27.423  0.0000E+00  0.0000E+00  0.6000E+01  0.6000E+01
    -27.025  0.0000E+00  0.0000E+00  0.6000E+01  0.6000E+01
    -26.627  0.0000E+00  0.0000E+00  0.6000E+01  0.6000E+01
    -26.230  0.0000E+00  0.0000E+00  0.6000E+01  0.6000E+01
    -25.832  0.0000E+00  0.0000E+00  0.6000E+01  0.6000E+01
    -25.434  0.0000E+00  0.0000E+00  0.6000E+01  0.6000E+01
    -25.037  0.0000E+00  0.0000E+00  0.6000E+01  0.6000E+01
    -24.639  0.0000E+00  0.0000E+00  0.6000E+01  0.6000E+01
    -24.241  0.0000E+00  0.0000E+00  0.6000E+01  0.6000E+01
    -23.844  0.0000E+00  0.0000E+00  0.6000E+01  0.6000E+01
    -23.446  0.0000E+00  0.0000E+00  0.6000E+01  0.6000E+01
    -23.048  0.0000E+00  0.0000E+00  0.6000E+01  0.6000E+01
    -22.650  0.0000E+00  0.0000E+00  0.6000E+01  0.6000E+01
    -22.253  0.0000E+00  0.0000E+00  0.6000E+01  0.6000E+01
    -21.855  0.0000E+00  0.0000E+00  0.6000E+01  0.6000E+01
    -21.457  0.0000E+00  0.0000E+00  0.6000E+01  0.6000E+01
    -21.060  0.0000E+00  0.0000E+00  0.6000E+01  0.6000E+01
    -20.662  0.0000E+00  0.0000E+00  0.6000E+01  0.6000E+01
    -20.264  0.0000E+00  0.0000E+00  0.6000E+01  0.6000E+01
    -19.867  0.0000E+00  0.0000E+00  0.6000E+01  0.6000E+01
    -19.469  0.0000E+00  0.0000E+00  0.6000E+01  0.6000E+01
    -19.071  0.0000E+00  0.0000E+00  0.6000E+01  0.6000E+01
    -18.673  0.0000E+00  0.0000E+00  0.6000E+01  0.6000E+01
    -18.276  0.0000E+00  0.0000E+00  0.6000E+01  0.6000E+01
    -17.878  0.0000E+00  0.0000E+00  0.6000E+01  0.6000E+01
    -17.480  0.0000E+00  0.0000E+00  0.6000E+01  0.6000E+01
    -17.083  0.0000E+00  0.0000E+00  0.6000E+01  0.6000E+01
    -16.685  0.0000E+00  0.0000E+00  0.6000E+01  0.6000E+01
    -16.287  0.0000E+00  0.0000E+00  0.6000E+01  0.6000E+01
    -15.890  0.0000E+00  0.0000E+00  0.6000E+01  0.6000E+01
    -15.492  0.0000E+00  0.0000E+00  0.6000E+01  0.6000E+01
    -15.094  0.0000E+00  0.0000E+00  0.6000E+01  0.6000E+01
    -14.696  0.0000E+00  0.0000E+00  0.6000E+01  0.6000E+01
    -14.299  0.0000E+00  0.0000E+00  0.6000E+01  0.6000E+01
    -13.901  0.0000E+00  0.0000E+00  0.6000E+01  0.6000E+01
    -13.503  0.0000E+00  0.0000E+00  0.6000E+01  0.6000E+01
    -13.106  0.0000E+00  0.0000E+00  0.6000E+01  0.6000E+01
    -12.708  0.0000E+00  0.0000E+00  0.6000E+01  0.6000E+01
    -12.310  0.0000E+00  0.0000E+00  0.6000E+01  0.6000E+01
    -11.913  0.0000E+00  0.0000E+00  0.6000E+01  0.6000E+01
    -11.515  0.0000E+00  0.0000E+00  0.6000E+01  0.6000E+01
    -11.117  0.0000E+00  0.0000E+00  0.6000E+01  0.6000E+01
    -10.719  0.0000E+00  0.0000E+00  0.6000E+01  0.6000E+01
    -10.322  0.0000E+00  0.0000E+00  0.6000E+01  0.6000E+01
     -9.924  0.0000E+00  0.0000E+00  0.6000E+01  0.6000E+01
     -9.526  0.0000E+00  0.0000E+00  0.6000E+01  0.6000E+01
     -9.129  0.0000E+00  0.0000E+00  0.6000E+01  0.6000E+01
     -8.731  0.0000E+00  0.0000E+00  0.6000E+01  0.6000E+01
     -8.333  0.0000E+00  0.0000E+00  0.6000E+01  0.6000E+01
     -7.936  0.0000E+00  0.0000E+00  0.6000E+01  0.6000E+01
     -7.538  0.0000E+00  0.0000E+00  0.6000E+01  0.6000E+01
     -7.140  0.0000E+00  0.0000E+00  0.6000E+01  0.6000E+01
     -6.742  0.0000E+00  0.0000E+00  0.6000E+01  0.6000E+01
     -6.345  0.0000E+00  0.0000E+00  0.6000E+01  0.6000E+01
     -5.947  0.0000E+00  0.0000E+00  0.6000E+01  0.6000E+01
     -5.549  0.0000E+00  0.0000E+00  0.6000E+01  0.6000E+01
     -5.152  0.0000E+00  0.0000E+00  0.6000E+01  0.6000E+01
     -4.754  0.0000E+00  0.0000E+00  0.6000E+01  0.6000E+01
     -4.356  0.0000E+00  0.0000E+00  0.6000E+01  0.6000E+01
     -3.959  0.0000E+00  0.0000E+00  0.6000E+01  0.6000E+01
     -3.561  0.0000E+00  0.0000E+00  0.6000E+01  0.6000E+01
     -3.163  0.0000E+00  0.0000E+00  0.6000E+01  0.6000E+01
     -2.765  0.0000E+00  0.0000E+00  0.6000E+01  0.6000E+01
     -2.368  0.0000E+00  0.0000E+00  0.6000E+01  0.6000E+01
     -1.970  0.0000E+00  0.0000E+00  0.6000E+01  0.6000E+01
     -1.572  0.0000E+00  0.0000E+00  0.6000E+01  0.6000E+01
     -1.175  0.0000E+00  0.0000E+00  0.6000E+01  0.6000E+01
     -0.777  0.0000E+00  0.0000E+00  0.6000E+01  0.6000E+01
     -0.379  0.0000E+00  0.0000E+00  0.6000E+01  0.6000E+01
      0.018  0.0000E+00  0.0000E+00  0.6000E+01  0.6000E+01
      0.416  0.0000E+00  0.0000E+00  0.6000E+01  0.6000E+01
      0.814  0.0000E+00  0.0000E+00  0.6000E+01  0.6000E+01
      1.212  0.0000E+00  0.0000E+00  0.6000E+01  0.6000E+01
      1.609  0.0000E+00  0.0000E+00  0.6000E+01  0.6000E+01
      2.007  0.0000E+00  0.0000E+00  0.6000E+01  0.6000E+01
      2.405  0.0000E+00  0.0000E+00  0.6000E+01  0.6000E+01
      2.802  0.4613E-04  0.4613E-04  0.6000E+01  0.6000E+01
      3.200  0.2479E-01  0.2479E-01  0.6010E+01  0.6010E+01
      3.598  0.3911E-01  0.3911E-01  0.6027E+01  0.6027E+01
      3.996  0.4305E-01  0.4305E-01  0.6050E+01  0.6050E+01
      4.393  0.1058E+00  0.1058E+00  0.6092E+01  0.6092E+01
      4.791  0.1250E+00  0.1250E+00  0.6142E+01  0.6142E+01
      5.189  0.1019E+00  0.1019E+00  0.6186E+01  0.6186E+01
      5.586  0.1672E+00  0.1672E+00  0.6253E+01  0.6253E+01
      5.984  0.1941E+00  0.1941E+00  0.6331E+01  0.6331E+01
      6.382  0.4232E+00  0.4232E+00  0.6499E+01  0.6499E+01
      6.779  0.8499E+00  0.8499E+00  0.6840E+01  0.6840E+01
      7.177  0.1117E+01  0.1117E+01  0.7300E+01  0.7300E+01
      7.575  0.1384E+01  0.1384E+01  0.7868E+01  0.7868E+01
      7.973  0.8054E+00  0.8054E+00  0.8197E+01  0.8197E+01
      8.370  0.1529E+01  0.1529E+01  0.8824E+01  0.8824E+01
      8.768  0.1751E+01  0.1751E+01  0.9567E+01  0.9567E+01
      9.166  0.1702E+01  0.1702E+01  0.1026E+02  0.1026E+02
      9.563  0.2271E+01  0.2271E+01  0.1118E+02  0.1118E+02
      9.961  0.9777E+00  0.9777E+00  0.1160E+02  0.1160E+02
     10.359  0.7011E+00  0.7011E+00  0.1189E+02  0.1189E+02
     10.756  0.3444E+00  0.3444E+00  0.1203E+02  0.1203E+02
     11.154  0.5990E+00  0.5990E+00  0.1227E+02  0.1227E+02
     11.552  0.1868E+01  0.1868E+01  0.1303E+02  0.1303E+02
     11.950  0.2900E+01  0.2900E+01  0.1423E+02  0.1423E+02
     12.347  0.2248E+01  0.2248E+01  0.1516E+02  0.1516E+02
     12.745  0.1626E+01  0.1626E+01  0.1585E+02  0.1585E+02
     13.143  0.1281E+01  0.1281E+01  0.1640E+02  0.1640E+02
     13.540  0.6547E+00  0.6547E+00  0.1668E+02  0.1668E+02
     13.938  0.2534E+00  0.2534E+00  0.1680E+02  0.1680E+02
     14.336  0.4009E+00  0.4009E+00  0.1696E+02  0.1696E+02
     14.733  0.2625E+00  0.2625E+00  0.1706E+02  0.1706E+02
     15.131  0.3918E+00  0.3918E+00  0.1722E+02  0.1722E+02
     15.529  0.9893E-01  0.9893E-01  0.1727E+02  0.1727E+02
     15.927  0.4101E+00  0.4101E+00  0.1743E+02  0.1743E+02
     16.324  0.2375E+00  0.2375E+00  0.1753E+02  0.1753E+02
     16.722  0.1358E+00  0.1358E+00  0.1759E+02  0.1759E+02
     17.120  0.1315E+01  0.1315E+01  0.1812E+02  0.1812E+02
     17.517  0.1583E+01  0.1583E+01  0.1875E+02  0.1875E+02
     17.915  0.2359E+00  0.2359E+00  0.1884E+02  0.1884E+02
     18.313  0.6049E-01  0.6049E-01  0.1887E+02  0.1887E+02
     18.710  0.2017E+01  0.2017E+01  0.1967E+02  0.1967E+02
     19.108  0.6461E-01  0.6461E-01  0.1993E+02  0.1993E+02
     19.506  0.1301E+00  0.1301E+00  0.1998E+02  0.1998E+02
     19.904  0.2241E-01  0.2241E-01  0.1999E+02  0.1999E+02
     20.301  0.1927E+00  0.1927E+00  0.2007E+02  0.2007E+02
     20.699  0.6207E+00  0.6207E+00  0.2032E+02  0.2032E+02
     21.097  0.5816E+00  0.5816E+00  0.2057E+02  0.2057E+02
     21.494  0.1818E+00  0.1818E+00  0.2064E+02  0.2064E+02
     21.892  0.6371E+00  0.6371E+00  0.2090E+02  0.2090E+02
     22.290  0.3612E+00  0.3612E+00  0.2105E+02  0.2105E+02
     22.687  0.2855E+00  0.2855E+00  0.2117E+02  0.2117E+02
     23.085  0.6179E+00  0.6179E+00  0.2141E+02  0.2141E+02
     23.483  0.3636E+00  0.3636E+00  0.2157E+02  0.2157E+02
     23.881  0.2899E+00  0.2899E+00  0.2169E+02  0.2169E+02
     24.278  0.4523E+00  0.4523E+00  0.2188E+02  0.2188E+02
     24.676  0.5786E+00  0.5786E+00  0.2211E+02  0.2211E+02
     25.074  0.1543E+00  0.1543E+00  0.2218E+02  0.2218E+02
     25.471  0.4925E+00  0.4925E+00  0.2237E+02  0.2237E+02
     25.869  0.5007E+00  0.5007E+00  0.2257E+02  0.2257E+02
     26.267  0.3594E+00  0.3594E+00  0.2272E+02  0.2272E+02
     26.664  0.4119E+00  0.4119E+00  0.2289E+02  0.2289E+02
     27.062  0.2219E+00  0.2219E+00  0.2299E+02  0.2299E+02
     27.460  0.6229E+00  0.6229E+00  0.2325E+02  0.2325E+02
     27.858  0.3825E+00  0.3825E+00  0.2340E+02  0.2340E+02
     28.255  0.7016E+00  0.7016E+00  0.2369E+02  0.2369E+02
     28.653  0.4730E+00  0.4730E+00  0.2389E+02  0.2389E+02
     29.051  0.5562E+00  0.5562E+00  0.2411E+02  0.2411E+02
     29.448  0.4674E+00  0.4674E+00  0.2430E+02  0.2430E+02
     29.846  0.4537E+00  0.4537E+00  0.2449E+02  0.2449E+02
     30.244  0.5323E+00  0.5323E+00  0.2470E+02  0.2470E+02
     30.641  0.7146E+00  0.7146E+00  0.2499E+02  0.2499E+02
     31.039  0.4192E+00  0.4192E+00  0.2516E+02  0.2516E+02
     31.437  0.4407E+00  0.4407E+00  0.2535E+02  0.2535E+02
     31.835  0.5059E+00  0.5059E+00  0.2556E+02  0.2556E+02
     32.232  0.6657E+00  0.6657E+00  0.2583E+02  0.2583E+02
     32.630  0.3020E+00  0.3020E+00  0.2595E+02  0.2595E+02
     33.028  0.2144E+00  0.2144E+00  0.2605E+02  0.2605E+02
     33.425  0.6303E+00  0.6303E+00  0.2630E+02  0.2630E+02
     33.823  0.1901E+00  0.1901E+00  0.2639E+02  0.2639E+02
     34.221  0.2655E+00  0.2655E+00  0.2649E+02  0.2649E+02
     34.619  0.4192E+00  0.4192E+00  0.2666E+02  0.2666E+02
     35.016  0.3774E+00  0.3774E+00  0.2681E+02  0.2681E+02
     35.414  0.4173E+00  0.4173E+00  0.2699E+02  0.2699E+02
     35.812  0.7013E+00  0.7013E+00  0.2727E+02  0.2727E+02
     36.209  0.4719E+00  0.4719E+00  0.2747E+02  0.2747E+02
     36.607  0.4365E+00  0.4365E+00  0.2765E+02  0.2765E+02
     37.005  0.3166E+00  0.3166E+00  0.2777E+02  0.2777E+02
     37.402  0.2199E+00  0.2199E+00  0.2786E+02  0.2786E+02
     37.800  0.3709E+00  0.3709E+00  0.2801E+02  0.2801E+02
     38.198  0.7900E+00  0.7900E+00  0.2833E+02  0.2833E+02
     38.596  0.5014E+00  0.5014E+00  0.2854E+02  0.2854E+02
     38.993  0.6047E+00  0.6047E+00  0.2879E+02  0.2879E+02
     39.391  0.2905E+00  0.2905E+00  0.2891E+02  0.2891E+02
     39.789  0.4933E+00  0.4933E+00  0.2912E+02  0.2912E+02
     40.186  0.6674E+00  0.6674E+00  0.2938E+02  0.2938E+02
     40.584  0.4901E+00  0.4901E+00  0.2959E+02  0.2959E+02
     40.982  0.5939E+00  0.5939E+00  0.2984E+02  0.2984E+02
     41.379  0.4372E+00  0.4372E+00  0.3003E+02  0.3003E+02
     41.777  0.5600E+00  0.5600E+00  0.3026E+02  0.3026E+02
     42.175  0.3838E+00  0.3838E+00  0.3042E+02  0.3042E+02
     42.573  0.6430E+00  0.6430E+00  0.3068E+02  0.3068E+02
     42.970  0.6915E+00  0.6915E+00  0.3096E+02  0.3096E+02
     43.368  0.6659E+00  0.6659E+00  0.3122E+02  0.3122E+02
     43.766  0.4140E+00  0.4140E+00  0.3140E+02  0.3140E+02
     44.163  0.3492E+00  0.3492E+00  0.3155E+02  0.3155E+02
     44.561  0.6030E+00  0.6030E+00  0.3180E+02  0.3180E+02
     44.959  0.3200E+00  0.3200E+00  0.3193E+02  0.3193E+02
     45.356  0.5956E+00  0.5956E+00  0.3216E+02  0.3216E+02
     45.754  0.6911E+00  0.6911E+00  0.3244E+02  0.3244E+02
     46.152  0.5085E+00  0.5085E+00  0.3265E+02  0.3265E+02
     46.550  0.6944E+00  0.6944E+00  0.3293E+02  0.3293E+02
     46.947  0.3635E+00  0.3635E+00  0.3309E+02  0.3309E+02
     47.345  0.7798E+00  0.7798E+00  0.3340E+02  0.3340E+02
     47.743  0.7903E+00  0.7903E+00  0.3373E+02  0.3373E+02
     48.140  0.7440E+00  0.7440E+00  0.3404E+02  0.3404E+02
     48.538  0.4562E+00  0.4562E+00  0.3422E+02  0.3422E+02
     48.936  0.3822E+00  0.3822E+00  0.3438E+02  0.3438E+02
     49.333  0.5367E+00  0.5367E+00  0.3459E+02  0.3459E+02
     49.731  0.6001E+00  0.6001E+00  0.3484E+02  0.3484E+02
     50.129  0.5644E+00  0.5644E+00  0.3506E+02  0.3506E+02
     50.527  0.5718E+00  0.5718E+00  0.3530E+02  0.3530E+02
     50.924  0.4740E+00  0.4740E+00  0.3550E+02  0.3550E+02
     51.322  0.4031E+00  0.4031E+00  0.3566E+02  0.3566E+02
     51.720  0.7589E+00  0.7589E+00  0.3598E+02  0.3598E+02
     52.117  0.5894E+00  0.5894E+00  0.3625E+02  0.3625E+02
     52.515  0.4553E+00  0.4553E+00  0.3643E+02  0.3643E+02
     52.913  0.4570E+00  0.4570E+00  0.3662E+02  0.3662E+02
     53.310  0.6007E+00  0.6007E+00  0.3688E+02  0.3688E+02
     53.708  0.6852E+00  0.6852E+00  0.3715E+02  0.3715E+02
     54.106  0.4994E+00  0.4994E+00  0.3737E+02  0.3737E+02
     54.504  0.4713E+00  0.4713E+00  0.3757E+02  0.3757E+02
     54.901  0.3966E+00  0.3966E+00  0.3773E+02  0.3773E+02
     55.299  0.6195E+00  0.6195E+00  0.3799E+02  0.3799E+02
     55.697  0.4965E+00  0.4965E+00  0.3819E+02  0.3819E+02
     56.094  0.7006E+00  0.7006E+00  0.3848E+02  0.3848E+02
     56.492  0.5819E+00  0.5819E+00  0.3872E+02  0.3872E+02
     56.890  0.8225E+00  0.8225E+00  0.3906E+02  0.3906E+02
     57.287  0.6171E+00  0.6171E+00  0.3931E+02  0.3931E+02
     57.685  0.6949E+00  0.6949E+00  0.3959E+02  0.3959E+02
     58.083  0.9766E+00  0.9766E+00  0.3999E+02  0.3999E+02
     58.481  0.6494E+00  0.6494E+00  0.4025E+02  0.4025E+02
     58.878  0.7268E+00  0.7268E+00  0.4056E+02  0.4056E+02
     59.276  0.9130E+00  0.9130E+00  0.4093E+02  0.4093E+02
     59.674  0.7001E+00  0.7001E+00  0.4123E+02  0.4123E+02
     60.071  0.9344E+00  0.9344E+00  0.4162E+02  0.4162E+02
     60.469  0.8683E+00  0.8683E+00  0.4197E+02  0.4197E+02
     60.867  0.6592E+00  0.6592E+00  0.4224E+02  0.4224E+02
     61.264  0.3269E+00  0.3269E+00  0.4239E+02  0.4239E+02
     61.662  0.5158E+00  0.5158E+00  0.4260E+02  0.4260E+02
     62.060  0.4036E+00  0.4036E+00  0.4277E+02  0.4277E+02
     62.458  0.7361E+00  0.7361E+00  0.4307E+02  0.4307E+02
     62.855  0.5531E+00  0.5531E+00  0.4332E+02  0.4332E+02
     63.253  0.2768E+00  0.2768E+00  0.4344E+02  0.4344E+02
     63.651  0.4818E+00  0.4818E+00  0.4363E+02  0.4363E+02
     64.048  0.5030E+00  0.5030E+00  0.4384E+02  0.4384E+02
     64.446  0.4268E+00  0.4268E+00  0.4401E+02  0.4401E+02
     64.844  0.4580E+00  0.4580E+00  0.4420E+02  0.4420E+02
     65.242  0.4935E+00  0.4935E+00  0.4441E+02  0.4441E+02
     65.639  0.5549E+00  0.5549E+00  0.4464E+02  0.4464E+02
     66.037  0.6481E+00  0.6481E+00  0.4491E+02  0.4491E+02
     66.435  0.5555E+00  0.5555E+00  0.4514E+02  0.4514E+02
     66.832  0.8336E+00  0.8336E+00  0.4547E+02  0.4547E+02
     67.230  0.8197E+00  0.8197E+00  0.4582E+02  0.4582E+02
     67.628  0.6696E+00  0.6696E+00  0.4608E+02  0.4608E+02
     68.025  0.8335E+00  0.8335E+00  0.4642E+02  0.4642E+02
     68.423  0.3921E+00  0.3921E+00  0.4658E+02  0.4658E+02
     68.821  0.5483E+00  0.5483E+00  0.4681E+02  0.4681E+02
     69.219  0.2886E+00  0.2886E+00  0.4693E+02  0.4693E+02
     69.616  0.2891E+00  0.2891E+00  0.4705E+02  0.4705E+02
     70.014  0.3774E+00  0.3774E+00  0.4721E+02  0.4721E+02
     70.412  0.1997E+00  0.1997E+00  0.4729E+02  0.4729E+02
     70.809  0.4757E+00  0.4757E+00  0.4748E+02  0.4748E+02
     71.207  0.2433E+00  0.2433E+00  0.4759E+02  0.4759E+02
     71.605  0.2146E+00  0.2146E+00  0.4769E+02  0.4769E+02
     72.002  0.2184E+00  0.2184E+00  0.4778E+02  0.4778E+02
     72.400  0.1720E+00  0.1720E+00  0.4785E+02  0.4785E+02
     72.798  0.9385E-01  0.9385E-01  0.4789E+02  0.4789E+02
     73.196  0.1665E+00  0.1665E+00  0.4796E+02  0.4796E+02
     73.593  0.1216E-01  0.1216E-01  0.4796E+02  0.4796E+02
     73.991  0.3492E-01  0.3492E-01  0.4798E+02  0.4798E+02
     74.389  0.8730E-02  0.8730E-02  0.4798E+02  0.4798E+02
     74.786  0.3492E-01  0.3492E-01  0.4800E+02  0.4800E+02
     75.184  0.1880E-06  0.1880E-06  0.4800E+02  0.4800E+02
     75.582  0.8731E-02  0.8731E-02  0.4800E+02  0.4800E+02
     75.979  0.0000E+00  0.0000E+00  0.4800E+02  0.4800E+02
     76.377  0.0000E+00  0.0000E+00  0.4800E+02  0.4800E+02
     76.775  0.0000E+00  0.0000E+00  0.4800E+02  0.4800E+02
     77.173  0.0000E+00  0.0000E+00  0.4800E+02  0.4800E+02
     77.570  0.0000E+00  0.0000E+00  0.4800E+02  0.4800E+02
     77.968  0.0000E+00  0.0000E+00  0.4800E+02  0.4800E+02
     78.366  0.0000E+00  0.0000E+00  0.4800E+02  0.4800E+02
     78.763  0.0000E+00  0.0000E+00  0.4800E+02  0.4800E+02
     79.161  0.0000E+00  0.0000E+00  0.4800E+02  0.4800E+02
     79.559  0.0000E+00  0.0000E+00  0.4800E+02  0.4800E+02
     79.956  0.0000E+00  0.0000E+00  0.4800E+02  0.4800E+02
     80.354  0.0000E+00  0.0000E+00  0.4800E+02  0.4800E+02
     80.752  0.0000E+00  0.0000E+00  0.4800E+02  0.4800E+02
