    2    2    1    2
  0.1183231E+02  0.2871000E-09  0.2871000E-09  0.2871000E-09  0.5000000E-15
  1.000000000000000E-004
  CAR 
 Cr                                      
     24     84     48
 
  0.0000000E+00  0.0000000E+00  0.0000000E+00  0.5787037E-03
      1        -32.933598      -32.933598   1.000000   1.000000
      2        -32.933598      -32.933598   1.000000   1.000000
      3        -32.933598      -32.933598   1.000000   1.000000
      4        -31.646803      -31.646803   1.000000   1.000000
      5        -31.646803      -31.646803   1.000000   1.000000
      6        -31.646803      -31.646803   1.000000   1.000000
      7          2.868030        2.868030   1.000000   1.000000
      8          6.485894        6.485894   1.000000   1.000000
      9          6.485894        6.485894   1.000000   1.000000
     10          9.761805        9.761805   1.000000   1.000000
     11          9.761805        9.761805   1.000000   1.000000
     12          9.761805        9.761805   1.000000   1.000000
     13         11.853689       11.853689   0.000000   0.000000
     14         11.853689       11.853689   0.000000   0.000000
     15         13.226458       13.226458   0.000000   0.000000
     16         13.226458       13.226458   0.000000   0.000000
     17         13.226458       13.226458   0.000000   0.000000
     18         17.126334       17.126334   0.000000   0.000000
     19         18.687155       18.687155   0.000000   0.000000
     20         21.041029       21.041029   0.000000   0.000000
     21         21.041029       21.041029   0.000000   0.000000
     22         21.041029       21.041029   0.000000   0.000000
     23         27.701055       27.701055   0.000000   0.000000
     24         27.701055       27.701055   0.000000   0.000000
     25         32.743316       32.743316   0.000000   0.000000
     26         32.743316       32.743316   0.000000   0.000000
     27         32.743316       32.743316   0.000000   0.000000
     28         33.704881       33.704881   0.000000   0.000000
     29         40.027150       40.027150   0.000000   0.000000
     30         40.027150       40.027150   0.000000   0.000000
     31         44.410514       44.410514   0.000000   0.000000
     32         44.410514       44.410514   0.000000   0.000000
     33         44.410514       44.410514   0.000000   0.000000
     34         45.282991       45.282991   0.000000   0.000000
     35         45.282991       45.282991   0.000000   0.000000
     36         45.282991       45.282991   0.000000   0.000000
     37         45.711428       45.711428   0.000000   0.000000
     38         57.523890       57.523890   0.000000   0.000000
     39         57.523890       57.523890   0.000000   0.000000
     40         57.523890       57.523890   0.000000   0.000000
     41         59.494504       59.494504   0.000000   0.000000
     42         59.494504       59.494504   0.000000   0.000000
     43         59.494504       59.494504   0.000000   0.000000
     44         60.654504       60.654504   0.000000   0.000000
     45         69.971983       69.971983   0.000000   0.000000
     46         70.826884       70.826884   0.000000   0.000000
     47         70.826884       70.826884   0.000000   0.000000
     48         70.826884       70.826884   0.000000   0.000000
 
  0.8333333E-01  0.6044102E-32  0.0000000E+00  0.3472222E-02
      1        -32.939611      -32.939611   1.000000   1.000000
      2        -32.928606      -32.928606   1.000000   1.000000
      3        -32.928606      -32.928606   1.000000   1.000000
      4        -31.662514      -31.662514   1.000000   1.000000
      5        -31.650747      -31.650747   1.000000   1.000000
      6        -31.650747      -31.650747   1.000000   1.000000
      7          3.017837        3.017837   1.000000   1.000000
      8          6.561851        6.561851   1.000000   1.000000
      9          6.568445        6.568445   1.000000   1.000000
     10          9.751235        9.751235   1.000000   1.000000
     11          9.751235        9.751235   1.000000   1.000000
     12          9.808807        9.808807   1.000000   1.000000
     13         11.750699       11.750699   0.000000   0.000000
     14         11.892683       11.892683   0.000000   0.000000
     15         13.034255       13.034255   0.000000   0.000000
     16         13.034255       13.034255   0.000000   0.000000
     17         13.167876       13.167876   0.000000   0.000000
     18         17.125915       17.125915   0.000000   0.000000
     19         18.686530       18.686530   0.000000   0.000000
     20         20.313406       20.313406   0.000000   0.000000
     21         21.387043       21.387043   0.000000   0.000000
     22         21.387043       21.387043   0.000000   0.000000
     23         27.708953       27.708953   0.000000   0.000000
     24         28.149629       28.149629   0.000000   0.000000
     25         32.284873       32.284873   0.000000   0.000000
     26         32.837273       32.837273   0.000000   0.000000
     27         32.837273       32.837273   0.000000   0.000000
     28         34.118763       34.118763   0.000000   0.000000
     29         39.031736       39.031736   0.000000   0.000000
     30         40.855169       40.855169   0.000000   0.000000
     31         42.816926       42.816926   0.000000   0.000000
     32         42.816926       42.816926   0.000000   0.000000
     33         44.393625       44.393625   0.000000   0.000000
     34         45.601114       45.601114   0.000000   0.000000
     35         46.056577       46.056577   0.000000   0.000000
     36         47.023495       47.023495   0.000000   0.000000
     37         47.023495       47.023495   0.000000   0.000000
     38         55.729106       55.729106   0.000000   0.000000
     39         55.729106       55.729106   0.000000   0.000000
     40         57.168476       57.168476   0.000000   0.000000
     41         59.924205       59.924205   0.000000   0.000000
     42         60.845331       60.845331   0.000000   0.000000
     43         61.090353       61.090353   0.000000   0.000000
     44         61.090353       61.090353   0.000000   0.000000
     45         69.781997       69.781997   0.000000   0.000000
     46         70.748694       70.748694   0.000000   0.000000
     47         71.111383       71.111383   0.000000   0.000000
     48         71.111383       71.111383   0.000000   0.000000
 
  0.1666667E+00  0.8784336E-32  0.0000000E+00  0.3472222E-02
      1        -32.955464      -32.955464   1.000000   1.000000
      2        -32.914430      -32.914430   1.000000   1.000000
      3        -32.914430      -32.914430   1.000000   1.000000
      4        -31.705025      -31.705025   1.000000   1.000000
      5        -31.661475      -31.661475   1.000000   1.000000
      6        -31.661475      -31.661475   1.000000   1.000000
      7          3.455028        3.455028   1.000000   1.000000
      8          6.786887        6.786887   1.000000   1.000000
      9          6.790778        6.790778   1.000000   1.000000
     10          9.728600        9.728600   1.000000   1.000000
     11          9.728600        9.728600   1.000000   1.000000
     12          9.946211        9.946211   1.000000   1.000000
     13         11.451621       11.451621   0.000000   0.000000
     14         12.002959       12.002959   0.000000   0.000000
     15         12.555621       12.555621   0.000000   0.000000
     16         12.555621       12.555621   0.000000   0.000000
     17         12.999317       12.999317   0.000000   0.000000
     18         17.125214       17.125214   0.000000   0.000000
     19         18.647599       18.647599   0.000000   0.000000
     20         18.754964       18.754964   0.000000   0.000000
     21         22.325797       22.325797   0.000000   0.000000
     22         22.325797       22.325797   0.000000   0.000000
     23         27.737961       27.737961   0.000000   0.000000
     24         28.824614       28.824614   0.000000   0.000000
     25         31.321879       31.321879   0.000000   0.000000
     26         33.004051       33.004051   0.000000   0.000000
     27         33.004051       33.004051   0.000000   0.000000
     28         35.488725       35.488725   0.000000   0.000000
     29         37.030285       37.030285   0.000000   0.000000
     30         41.192864       41.192864   0.000000   0.000000
     31         41.192864       41.192864   0.000000   0.000000
     32         42.917211       42.917211   0.000000   0.000000
     33         44.348379       44.348379   0.000000   0.000000
     34         45.327786       45.327786   0.000000   0.000000
     35         47.436918       47.436918   0.000000   0.000000
     36         49.197035       49.197035   0.000000   0.000000
     37         49.197035       49.197035   0.000000   0.000000
     38         53.168444       53.168444   0.000000   0.000000
     39         53.168444       53.168444   0.000000   0.000000
     40         56.317202       56.317202   0.000000   0.000000
     41         60.832194       60.832194   0.000000   0.000000
     42         61.188067       61.188067   0.000000   0.000000
     43         62.947065       62.947065   0.000000   0.000000
     44         62.947065       62.947065   0.000000   0.000000
     45         68.125250       68.125250   0.000000   0.000000
     46         71.950128       71.950128   0.000000   0.000000
     47         71.950128       71.950128   0.000000   0.000000
     48         72.797429       72.797429   0.000000   0.000000
 
  0.2500000E+00  0.1001223E-31  0.0000000E+00  0.3472222E-02
      1        -32.976571      -32.976571   1.000000   1.000000
      2        -32.894677      -32.894677   1.000000   1.000000
      3        -32.894677      -32.894677   1.000000   1.000000
      4        -31.763207      -31.763207   1.000000   1.000000
      5        -31.676618      -31.676618   1.000000   1.000000
      6        -31.676618      -31.676618   1.000000   1.000000
      7          4.141560        4.141560   1.000000   1.000000
      8          7.073330        7.073330   1.000000   1.000000
      9          7.150079        7.150079   1.000000   1.000000
     10          9.716057        9.716057   1.000000   1.000000
     11          9.716057        9.716057   1.000000   1.000000
     12         10.162166       10.162166   1.000000   1.000000
     13         10.985714       10.985714   0.000000   0.000000
     14         11.971293       11.971293   0.000000   0.000000
     15         11.971293       11.971293   0.000000   0.000000
     16         12.165720       12.165720   0.000000   0.000000
     17         12.740820       12.740820   0.000000   0.000000
     18         16.921166       16.921166   0.000000   0.000000
     19         17.138644       17.138644   0.000000   0.000000
     20         18.689876       18.689876   0.000000   0.000000
     21         23.670182       23.670182   0.000000   0.000000
     22         23.670182       23.670182   0.000000   0.000000
     23         27.797942       27.797942   0.000000   0.000000
     24         29.177502       29.177502   0.000000   0.000000
     25         30.339186       30.339186   0.000000   0.000000
     26         32.866868       32.866868   0.000000   0.000000
     27         32.866868       32.866868   0.000000   0.000000
     28         34.902761       34.902761   0.000000   0.000000
     29         37.793215       37.793215   0.000000   0.000000
     30         40.278526       40.278526   0.000000   0.000000
     31         40.278526       40.278526   0.000000   0.000000
     32         44.289603       44.289603   0.000000   0.000000
     33         44.992321       44.992321   0.000000   0.000000
     34         45.692737       45.692737   0.000000   0.000000
     35         48.668609       48.668609   0.000000   0.000000
     36         50.564585       50.564585   0.000000   0.000000
     37         50.564585       50.564585   0.000000   0.000000
     38         51.429955       51.429955   0.000000   0.000000
     39         51.429955       51.429955   0.000000   0.000000
     40         55.310501       55.310501   0.000000   0.000000
     41         59.139715       59.139715   0.000000   0.000000
     42         63.148421       63.148421   0.000000   0.000000
     43         63.759314       63.759314   0.000000   0.000000
     44         63.759314       63.759314   0.000000   0.000000
     45         68.158692       68.158692   0.000000   0.000000
     46         69.385341       69.385341   0.000000   0.000000
     47         73.120013       73.120013   0.000000   0.000000
     48         73.120013       73.120013   0.000000   0.000000
 
  0.3333333E+00  0.1470957E-31  0.0000000E+00  0.3472222E-02
      1        -32.997251      -32.997251   1.000000   1.000000
      2        -32.874435      -32.874435   1.000000   1.000000
      3        -32.874435      -32.874435   1.000000   1.000000
      4        -31.821658      -31.821658   1.000000   1.000000
      5        -31.692392      -31.692392   1.000000   1.000000
      6        -31.692392      -31.692392   1.000000   1.000000
      7          5.006094        5.006094   1.000000   1.000000
      8          7.276122        7.276122   1.000000   1.000000
      9          7.630159        7.630159   1.000000   1.000000
     10          9.736771        9.736771   1.000000   1.000000
     11          9.736771        9.736771   1.000000   1.000000
     12         10.401123       10.401123   1.000000   1.000000
     13         10.431897       10.431897   1.000000   1.000000
     14         11.423028       11.423028   0.000000   0.000000
     15         11.423028       11.423028   0.000000   0.000000
     16         12.360197       12.360197   0.000000   0.000000
     17         12.428604       12.428604   0.000000   0.000000
     18         15.315987       15.315987   0.000000   0.000000
     19         17.128050       17.128050   0.000000   0.000000
     20         18.689008       18.689008   0.000000   0.000000
     21         25.269471       25.269471   0.000000   0.000000
     22         25.269471       25.269471   0.000000   0.000000
     23         27.904768       27.904768   0.000000   0.000000
     24         29.371590       29.371590   0.000000   0.000000
     25         29.522427       29.522427   0.000000   0.000000
     26         32.024085       32.024085   0.000000   0.000000
     27         32.024085       32.024085   0.000000   0.000000
     28         32.982587       32.982587   0.000000   0.000000
     29         40.470195       40.470195   0.000000   0.000000
     30         40.470195       40.470195   0.000000   0.000000
     31         40.715308       40.715308   0.000000   0.000000
     32         44.239157       44.239157   0.000000   0.000000
     33         44.689398       44.689398   0.000000   0.000000
     34         48.026039       48.026039   0.000000   0.000000
     35         48.026039       48.026039   0.000000   0.000000
     36         48.944196       48.944196   0.000000   0.000000
     37         49.550068       49.550068   0.000000   0.000000
     38         53.705199       53.705199   0.000000   0.000000
     39         53.705199       53.705199   0.000000   0.000000
     40         54.328535       54.328535   0.000000   0.000000
     41         56.104297       56.104297   0.000000   0.000000
     42         62.841494       62.841494   0.000000   0.000000
     43         62.841494       62.841494   0.000000   0.000000
     44         65.072725       65.072725   0.000000   0.000000
     45         65.679447       65.679447   0.000000   0.000000
     46         69.718468       69.718468   0.000000   0.000000
     47         73.575028       73.575028   0.000000   0.000000
     48         73.575028       73.575028   0.000000   0.000000
 
  0.4166667E+00  0.2226601E-31  0.0000000E+00  0.3472222E-02
      1        -33.011801      -33.011801   1.000000   1.000000
      2        -32.859102      -32.859102   1.000000   1.000000
      3        -32.859102      -32.859102   1.000000   1.000000
      4        -31.864363      -31.864363   1.000000   1.000000
      5        -31.704091      -31.704091   1.000000   1.000000
      6        -31.704091      -31.704091   1.000000   1.000000
      7          5.925522        5.925522   1.000000   1.000000
      8          7.218038        7.218038   1.000000   1.000000
      9          8.179719        8.179719   1.000000   1.000000
     10          9.774799        9.774799   1.000000   1.000000
     11          9.792830        9.792830   1.000000   1.000000
     12          9.792830        9.792830   1.000000   1.000000
     13         10.699983       10.699983   0.010336   0.010336
     14         11.013578       11.013578   0.000000   0.000000
     15         11.013578       11.013578   0.000000   0.000000
     16         12.129529       12.129529   0.000000   0.000000
     17         12.580051       12.580051   0.000000   0.000000
     18         14.097821       14.097821   0.000000   0.000000
     19         17.127602       17.127602   0.000000   0.000000
     20         18.688816       18.688816   0.000000   0.000000
     21         27.018230       27.018230   0.000000   0.000000
     22         27.018230       27.018230   0.000000   0.000000
     23         28.073928       28.073928   0.000000   0.000000
     24         28.919797       28.919797   0.000000   0.000000
     25         29.691504       29.691504   0.000000   0.000000
     26         30.565716       30.565716   0.000000   0.000000
     27         30.565716       30.565716   0.000000   0.000000
     28         31.437982       31.437982   0.000000   0.000000
     29         41.646343       41.646343   0.000000   0.000000
     30         41.646343       41.646343   0.000000   0.000000
     31         43.972449       43.972449   0.000000   0.000000
     32         44.218657       44.218657   0.000000   0.000000
     33         44.468946       44.468946   0.000000   0.000000
     34         45.630647       45.630647   0.000000   0.000000
     35         45.630647       45.630647   0.000000   0.000000
     36         49.551025       49.551025   0.000000   0.000000
     37         52.572363       52.572363   0.000000   0.000000
     38         53.335193       53.335193   0.000000   0.000000
     39         53.499174       53.499174   0.000000   0.000000
     40         56.046396       56.046396   0.000000   0.000000
     41         56.046396       56.046396   0.000000   0.000000
     42         60.708984       60.708984   0.000000   0.000000
     43         60.811871       60.811871   0.000000   0.000000
     44         60.811871       60.811871   0.000000   0.000000
     45         68.665773       68.665773   0.000000   0.000000
     46         71.487818       71.487818   0.000000   0.000000
     47         74.124317       74.124317   0.000000   0.000000
     48         75.328651       75.328651   0.000000   0.000000
 
  0.5000000E+00  0.2002445E-31  0.0000000E+00  0.1736111E-02
      1        -33.017006      -33.017006   1.000000   1.000000
      2        -32.853358      -32.853358   1.000000   1.000000
      3        -32.853358      -32.853358   1.000000   1.000000
      4        -31.879988      -31.879988   1.000000   1.000000
      5        -31.708434      -31.708434   1.000000   1.000000
      6        -31.708434      -31.708434   1.000000   1.000000
      7          6.599456        6.599456   1.000000   1.000000
      8          6.879443        6.879443   1.000000   1.000000
      9          8.554627        8.554627   1.000000   1.000000
     10          9.371450        9.371450   1.000000   1.000000
     11          9.830730        9.830730   1.000000   1.000000
     12          9.830730        9.830730   1.000000   1.000000
     13         10.831705       10.831705   0.000000   0.000000
     14         10.852034       10.852034   0.000000   0.000000
     15         10.852034       10.852034   0.000000   0.000000
     16         11.986751       11.986751   0.000000   0.000000
     17         12.746725       12.746725   0.000000   0.000000
     18         13.566217       13.566217   0.000000   0.000000
     19         17.127582       17.127582   0.000000   0.000000
     20         18.688759       18.688759   0.000000   0.000000
     21         28.229100       28.229100   0.000000   0.000000
     22         28.618628       28.618628   0.000000   0.000000
     23         28.805193       28.805193   0.000000   0.000000
     24         28.805193       28.805193   0.000000   0.000000
     25         28.843752       28.843752   0.000000   0.000000
     26         28.843752       28.843752   0.000000   0.000000
     27         30.297179       30.297179   0.000000   0.000000
     28         30.391285       30.391285   0.000000   0.000000
     29         43.266379       43.266379   0.000000   0.000000
     30         43.266379       43.266379   0.000000   0.000000
     31         43.639961       43.639961   0.000000   0.000000
     32         43.639961       43.639961   0.000000   0.000000
     33         44.225583       44.225583   0.000000   0.000000
     34         44.386868       44.386868   0.000000   0.000000
     35         47.241928       47.241928   0.000000   0.000000
     36         47.287673       47.287673   0.000000   0.000000
     37         52.697355       52.697355   0.000000   0.000000
     38         52.992769       52.992769   0.000000   0.000000
     39         56.501176       56.501176   0.000000   0.000000
     40         56.524257       56.524257   0.000000   0.000000
     41         58.263747       58.263747   0.000000   0.000000
     42         58.263747       58.263747   0.000000   0.000000
     43         58.625135       58.625135   0.000000   0.000000
     44         58.625135       58.625135   0.000000   0.000000
     45         72.024315       72.024315   0.000000   0.000000
     46         72.030792       72.030792   0.000000   0.000000
     47         72.897919       72.897919   0.000000   0.000000
     48         72.966629       72.966629   0.000000   0.000000
 
  0.8333333E-01  0.8333333E-01  0.0000000E+00  0.6944444E-02
      1        -32.946782      -32.946782   1.000000   1.000000
      2        -32.923723      -32.923723   1.000000   1.000000
      3        -32.923642      -32.923642   1.000000   1.000000
      4        -31.678841      -31.678841   1.000000   1.000000
      5        -31.654324      -31.654324   1.000000   1.000000
      6        -31.652116      -31.652116   1.000000   1.000000
      7          3.165186        3.165186   1.000000   1.000000
      8          6.636310        6.636310   1.000000   1.000000
      9          6.650687        6.650687   1.000000   1.000000
     10          9.652907        9.652907   1.000000   1.000000
     11          9.732565        9.732565   1.000000   1.000000
     12          9.940225        9.940225   1.000000   1.000000
     13         11.733960       11.733960   0.000000   0.000000
     14         11.861894       11.861894   0.000000   0.000000
     15         12.737312       12.737312   0.000000   0.000000
     16         12.845036       12.845036   0.000000   0.000000
     17         13.246457       13.246457   0.000000   0.000000
     18         17.125958       17.125958   0.000000   0.000000
     19         18.686406       18.686406   0.000000   0.000000
     20         20.421042       20.421042   0.000000   0.000000
     21         20.851585       20.851585   0.000000   0.000000
     22         21.704861       21.704861   0.000000   0.000000
     23         27.926304       27.926304   0.000000   0.000000
     24         28.467939       28.467939   0.000000   0.000000
     25         32.016812       32.016812   0.000000   0.000000
     26         32.626656       32.626656   0.000000   0.000000
     27         32.940612       32.940612   0.000000   0.000000
     28         34.495029       34.495029   0.000000   0.000000
     29         39.172488       39.172488   0.000000   0.000000
     30         40.589947       40.589947   0.000000   0.000000
     31         41.810900       41.810900   0.000000   0.000000
     32         42.189280       42.189280   0.000000   0.000000
     33         44.763908       44.763908   0.000000   0.000000
     34         45.438537       45.438537   0.000000   0.000000
     35         47.023191       47.023191   0.000000   0.000000
     36         47.640351       47.640351   0.000000   0.000000
     37         47.784322       47.784322   0.000000   0.000000
     38         54.128379       54.128379   0.000000   0.000000
     39         55.196403       55.196403   0.000000   0.000000
     40         58.022135       58.022135   0.000000   0.000000
     41         59.219137       59.219137   0.000000   0.000000
     42         61.101872       61.101872   0.000000   0.000000
     43         61.319874       61.319874   0.000000   0.000000
     44         62.642582       62.642582   0.000000   0.000000
     45         69.506102       69.506102   0.000000   0.000000
     46         70.534109       70.534109   0.000000   0.000000
     47         71.385816       71.385816   0.000000   0.000000
     48         71.505859       71.505859   0.000000   0.000000
 
  0.1666667E+00  0.8333333E-01  0.0000000E+00  0.1388889E-01
      1        -32.963551      -32.963551   1.000000   1.000000
      2        -32.912957      -32.912957   1.000000   1.000000
      3        -32.910267      -32.910267   1.000000   1.000000
      4        -31.717857      -31.717857   1.000000   1.000000
      5        -31.664227      -31.664227   1.000000   1.000000
      6        -31.661277      -31.661277   1.000000   1.000000
      7          3.594544        3.594544   1.000000   1.000000
      8          6.844241        6.844241   1.000000   1.000000
      9          6.882172        6.882172   1.000000   1.000000
     10          9.563258        9.563258   1.000000   1.000000
     11          9.686950        9.686950   1.000000   1.000000
     12         10.130451       10.130451   1.000000   1.000000
     13         11.498969       11.498969   0.000000   0.000000
     14         11.954609       11.954609   0.000000   0.000000
     15         12.233989       12.233989   0.000000   0.000000
     16         12.379862       12.379862   0.000000   0.000000
     17         13.178440       13.178440   0.000000   0.000000
     18         17.125473       17.125473   0.000000   0.000000
     19         18.678947       18.678947   0.000000   0.000000
     20         18.949008       18.949008   0.000000   0.000000
     21         21.564180       21.564180   0.000000   0.000000
     22         22.582834       22.582834   0.000000   0.000000
     23         28.030274       28.030274   0.000000   0.000000
     24         29.250162       29.250162   0.000000   0.000000
     25         31.031665       31.031665   0.000000   0.000000
     26         32.511026       32.511026   0.000000   0.000000
     27         33.137303       33.137303   0.000000   0.000000
     28         35.764865       35.764865   0.000000   0.000000
     29         37.822894       37.822894   0.000000   0.000000
     30         40.339904       40.339904   0.000000   0.000000
     31         40.580908       40.580908   0.000000   0.000000
     32         42.686957       42.686957   0.000000   0.000000
     33         44.968197       44.968197   0.000000   0.000000
     34         45.026593       45.026593   0.000000   0.000000
     35         48.288098       48.288098   0.000000   0.000000
     36         49.438776       49.438776   0.000000   0.000000
     37         49.526174       49.526174   0.000000   0.000000
     38         51.863220       51.863220   0.000000   0.000000
     39         53.475435       53.475435   0.000000   0.000000
     40         57.685535       57.685535   0.000000   0.000000
     41         59.755731       59.755731   0.000000   0.000000
     42         61.321817       61.321817   0.000000   0.000000
     43         62.474934       62.474934   0.000000   0.000000
     44         64.534218       64.534218   0.000000   0.000000
     45         67.888969       67.888969   0.000000   0.000000
     46         71.079811       71.079811   0.000000   0.000000
     47         72.195907       72.195907   0.000000   0.000000
     48         72.467041       72.467041   0.000000   0.000000
 
  0.2500000E+00  0.8333333E-01  0.0000000E+00  0.1388889E-01
      1        -32.984944      -32.984944   1.000000   1.000000
      2        -32.899642      -32.899642   1.000000   1.000000
      3        -32.891515      -32.891515   1.000000   1.000000
      4        -31.768837      -31.768837   1.000000   1.000000
      5        -31.678173      -31.678173   1.000000   1.000000
      6        -31.676113      -31.676113   1.000000   1.000000
      7          4.266453        4.266453   1.000000   1.000000
      8          7.131341        7.131341   1.000000   1.000000
      9          7.222787        7.222787   1.000000   1.000000
     10          9.515552        9.515552   1.000000   1.000000
     11          9.634358        9.634358   1.000000   1.000000
     12         10.334419       10.334419   1.000000   1.000000
     13         11.100221       11.100221   0.000000   0.000000
     14         11.709131       11.709131   0.000000   0.000000
     15         11.831350       11.831350   0.000000   0.000000
     16         12.125982       12.125982   0.000000   0.000000
     17         12.967441       12.967441   0.000000   0.000000
     18         17.083710       17.083710   0.000000   0.000000
     19         17.176900       17.176900   0.000000   0.000000
     20         18.689546       18.689546   0.000000   0.000000
     21         22.756611       22.756611   0.000000   0.000000
     22         23.867490       23.867490   0.000000   0.000000
     23         28.125800       28.125800   0.000000   0.000000