I                                       
   1.00000000000000     
     8.577010    0.000000    0.000000
     0.000000    4.554220    0.000000
     0.000000    0.000000   10.183810
   I 
     8
Direct
  0.000000  0.364100  0.878570
  0.000000  0.135900  0.378570
  0.000000  0.864100  0.621430
  0.000000  0.635900  0.121430
  0.500000  0.864100  0.878570
  0.500000  0.635900  0.378570
  0.500000  0.364100  0.621430
  0.500000  0.135900  0.121430
 
   64   36   80
  17.091      16.838      16.108      14.970      13.532      11.912      10.229      8.5881      7.0708      5.7367    
  4.6241      3.7528      3.1313      2.7666      2.6776      2.9051      3.5178      4.6168      6.3472      8.9200    
  12.641      17.924      25.273      35.202      48.117      64.163      83.082      104.08      125.78      146.24    
  163.19      174.44      178.39      174.44      163.19      146.24      125.78      104.08      83.082      64.163    
  48.117      35.202      25.273      17.924      12.641      8.9200      6.3472      4.6168      3.5178      2.9051    
  2.6776      2.7666      3.1313      3.7528      4.6241      5.7367      7.0708      8.5881      10.229      11.912    
  13.532      14.970      16.108      16.838      17.949      17.680      16.899      15.687      14.156      12.436    
  10.656      8.9271      7.3341      5.9380      4.7754      3.8643      3.2111      2.8213      2.7127      2.9251    
  3.5255      4.6139      6.3336      8.8942      12.599      17.860      25.175      35.053      47.891      63.828    
  82.602      103.42      124.91      145.16      161.92      173.03      176.93      173.03      161.92      145.16    
  124.91      103.42      82.602      63.828      47.891      35.053      25.175      17.860      12.599      8.8942    
  6.3336      4.6139      3.5255      2.9251      2.7127      2.8213      3.2111      3.8643      4.7754      5.9380    
  7.3341      8.9271      10.656      12.436      14.156      15.687      16.899      17.680      20.576      20.254    
  19.323      17.879      16.064      14.039      11.960      9.9581      8.1317      6.5441      5.2286      4.1967    
  3.4481      2.9835      2.8167      2.9839      3.5481      4.6043      6.2912      8.8138      12.469      17.661    
  24.872      34.594      47.202      62.817      81.164      101.46      122.35      141.97      158.17      168.90    
  172.65      168.90      158.17      141.97      122.35      101.46      81.164      62.817      47.202      34.594    
  24.872      17.661      12.469      8.8138      6.2912      4.6043      3.5481      2.9839      2.8167      2.9835    
  3.4481      4.1967      5.2286      6.5441      8.1317      9.9581      11.960      14.039      16.064      17.879    
  19.323      20.254      25.103      24.690      23.498      21.656      19.351      16.796      14.195      11.717    
  9.4820      7.5606      5.9810      4.7434      3.8355      3.2477      2.9858      3.0790      3.5830      4.5849    
  6.2156      8.6716      12.240      17.309      24.341      33.797      46.022      61.110      78.769      98.223    
  118.16      136.81      152.15      162.27      165.81      162.27      152.15      136.81      118.16      98.223    
  78.769      61.110      46.022      33.797      24.341      17.309      12.240      8.6716      6.2156      4.5849    
  3.5830      3.0790      2.9858      3.2477      3.8355      4.7434      5.9810      7.5606      9.4820      11.717    
  14.195      16.796      19.351      21.656      23.498      24.690      31.669      31.125      29.556      27.136    
  24.117      20.787      17.420      14.241      11.404      8.9913      7.0266      5.4941      4.3626      3.6052    
  3.2138      3.2059      3.6264      4.5515      6.1007      8.4585      11.897      16.783      23.551      32.626    
  44.317      58.684      75.424      93.773      112.48      129.89      144.14      153.52      156.79      153.52    
  144.14      129.89      112.48      93.773      75.424      58.684      44.317      32.626      23.551      16.783    
  11.897      8.4585      6.1007      4.5515      3.6264      3.2059      3.2138      3.6052      4.3626      5.4941    
  7.0266      8.9913      11.404      14.241      17.420      20.787      24.117      27.136      29.556      31.125    
  40.341      39.624      37.557      34.372      30.409      26.050      21.662      17.545      13.900      10.830    
  8.3525      6.4337      5.0151      4.0443      3.4920      3.3584      3.6736      4.4996      5.9413      8.1668    
  11.428      16.064      22.477      31.052      42.058      55.526      71.144      88.177      105.45      121.44    
  134.47      143.01      145.98      143.01      134.47      121.44      105.45      88.177      71.144      55.526    
  42.058      31.052      22.477      16.064      11.428      8.1668      5.9413      4.4996      3.6736      3.3584    
  3.4920      4.0443      5.0151      6.4337      8.3525      10.830      13.900      17.545      21.662      26.050    
  30.409      34.372      37.557      39.624      51.032      50.102      47.422      43.295      38.164      32.532    
  26.878      21.592      16.939      13.048      9.9340      7.5399      5.7742      4.5502      3.8094      3.5285    
  3.7187      4.4250      5.7343      7.7939      10.829      15.149      21.114      29.069      39.247      51.653    
  65.978      81.527      97.221      111.68      123.41      131.08      133.75      131.08      123.41      111.68    
  97.221      81.527      65.978      51.653      39.247      29.069      21.114      15.149      10.829      7.7939    
  5.7343      4.4250      3.7187      3.5285      3.8094      4.5502      5.7742      7.5399      9.9340      13.048    
  16.939      21.592      26.878      32.532      38.164      43.295      47.422      50.102      63.470      62.292    
  58.896      53.671      47.179      40.062      32.929      26.278      20.442      15.587      11.728      8.7806    
  6.6155      5.1046      4.1525      3.7070      3.7562      4.3251      5.4803      7.3441      10.111      14.052    
  19.485      26.712      35.932      47.135      60.025      73.963      87.976      100.84      111.25      118.03    
  120.39      118.03      111.25      100.84      87.976      73.963      60.025      47.135      35.932      26.712    
  19.485      14.052      10.111      7.3441      5.4803      4.3251      3.7562      3.7070      4.1525      5.1046    
  6.6155      8.7806      11.728      15.587      20.442      26.278      32.929      40.062      47.179      53.671    
  58.896      62.292      77.200      75.747      71.558      65.114      57.116      48.354      39.585      31.422    
  24.278      18.355      13.669      10.111      7.5080      5.6856      4.5065      3.8843      3.7811      4.1997    
  5.1842      6.8296      9.2957      12.810      17.644      24.059      32.220      42.111      53.460      65.697    
  77.965      89.198      98.267      104.17      106.22      104.17      98.267      89.198      77.965      65.697    
  53.460      42.111      32.220      24.059      17.644      12.810      9.2957      6.8296      5.1842      4.1997    
  3.7811      3.8843      4.5065      5.6856      7.5080      10.111      13.669      18.355      24.278      31.422    
  39.585      48.354      57.116      65.114      71.558      75.747      91.650      89.903      84.870      77.131    
  67.534      57.035      46.541      36.788      28.271      21.226      15.674      11.475      8.4149      6.2690    
  4.8554      4.0511      3.7898      4.0511      4.8554      6.2690      8.4149      11.475      15.674      21.226    
  28.271      36.788      46.541      57.035      67.534      77.131      84.870      89.903      91.650      89.903    
  84.870      77.131      67.534      57.035      46.541      36.788      28.271      21.226      15.674      11.475    
  8.4149      6.2690      4.8554      4.0511      3.7898      4.0511      4.8554      6.2690      8.4149      11.475    
  15.674      21.226      28.271      36.788      46.541      57.035      67.534      77.131      84.870      89.903    
  106.22      104.17      98.267      89.198      77.965      65.697      53.460      42.111      32.220      24.059    
  17.644      12.810      9.2957      6.8296      5.1842      4.1997      3.7811      3.8843      4.5065      5.6856    
  7.5080      10.111      13.669      18.355      24.278      31.422      39.585      48.354      57.116      65.114    
  71.558      75.747      77.200      75.747      71.558      65.114      57.116      48.354      39.585      31.422    
  24.278      18.355      13.669      10.111      7.5080      5.6856      4.5065      3.8843      3.7811      4.1997    
  5.1842      6.8296      9.2957      12.810      17.644      24.059      32.220      42.111      53.460      65.697    
  77.965      89.198      98.267      104.17      120.39      118.03      111.25      100.84      87.976      73.963    
  60.025      47.135      35.932      26.712      19.485      14.052      10.111      7.3441      5.4803      4.3251    
  3.7562      3.7070      4.1525      5.1046      6.6155      8.7806      11.728      15.587      20.442      26.278    
  32.929      40.062      47.179      53.671      58.896      62.292      63.470      62.292      58.896      53.671    
  47.179      40.062      32.929      26.278      20.442      15.587      11.728      8.7806      6.6155      5.1046    
  4.1525      3.7070      3.7562      4.3251      5.4803      7.3441      10.111      14.052      19.485      26.712    
  35.932      47.135      60.025      73.963      87.976      100.84      111.25      118.03      133.75      131.08    
  123.41      111.68      97.221      81.527      65.978      51.653      39.247      29.069      21.114      15.149    
  10.829      7.7939      5.7343      4.4250      3.7187      3.5285      3.8094      4.5502      5.7742      7.5399    
  9.9340      13.048      16.939      21.592      26.878      32.532      38.164      43.295      47.422      50.102    
  51.032      50.102      47.422      43.295      38.164      32.532      26.878      21.592      16.939      13.048    
  9.9340      7.5399      5.7742      4.5502      3.8094      3.5285      3.7187      4.4250      5.7343      7.7939    
  10.829      15.149      21.114      29.069      39.247      51.653      65.978      81.527      97.221      111.68    
  123.41      131.08      145.98      143.01      134.47      121.44      105.45      88.177      71.144      55.526    
  42.058      31.052      22.477      16.064      11.428      8.1668      5.9413      4.4996      3.6736      3.3584    
  3.4920      4.0443      5.0151      6.4337      8.3525      10.830      13.900      17.545      21.662      26.050    
  30.409      34.372      37.557      39.624      40.341      39.624      37.557      34.372      30.409      26.050    
  21.662      17.545      13.900      10.830      8.3525      6.4337      5.0151      4.0443      3.4920      3.3584    
  3.6736      4.4996      5.9413      8.1668      11.428      16.064      22.477      31.052      42.058      55.526    
  71.144      88.177      105.45      121.44      134.47      143.01      156.79      153.52      144.14      129.89    
  112.48      93.773      75.424      58.684      44.317      32.626      23.551      16.783      11.897      8.4585    
  6.1007      4.5515      3.6264      3.2059      3.2138      3.6052      4.3626      5.4941      7.0266      8.9913    
  11.404      14.241      17.420      20.787      24.117      27.136      29.556      31.125      31.669      31.125    
  29.556      27.136      24.117      20.787      17.420      14.241      11.404      8.9913      7.0266      5.4941    
  4.3626      3.6052      3.2138      3.2059      3.6264      4.5515      6.1007      8.4585      11.897      16.783    
  23.551      32.626      44.317      58.684      75.424      93.773      112.48      129.89      144.14      153.52    
  165.81      162.27      152.15      136.81      118.16      98.223      78.769      61.110      46.022      33.797    
  24.341      17.309      12.240      8.6716      6.2156      4.5849      3.5830      3.0790      2.9858      3.2477    
  3.8355      4.7434      5.9810      7.5606      9.4820      11.717      14.195      16.796      19.351      21.656    
  23.498      24.690      25.103      24.690      23.498      21.656      19.351      16.796      14.195      11.717    
  9.4820      7.5606      5.9810      4.7434      3.8355      3.2477      2.9858      3.0790      3.5830      4.5849    
  6.2156      8.6716      12.240      17.309      24.341      33.797      46.022      61.110      78.769      98.223    
  118.16      136.81      152.15      162.27      172.65      168.90      158.17      141.97      122.35      101.46    
  81.164      62.817      47.202      34.594      24.872      17.661      12.469      8.8138      6.2912      4.6043    
  3.5481      2.9839      2.8167      2.9835      3.4481      4.1967      5.2286      6.5441      8.1317      9.9581    
  11.960      14.039      16.064      17.879      19.323      20.254      20.576      20.254      19.323      17.879    
  16.064      14.039      11.960      9.9581      8.1317      6.5441      5.2286      4.1967      3.4481      2.9835    
  2.8167      2.9839      3.5481      4.6043      6.2912      8.8138      12.469      17.661      24.872      34.594    
  47.202      62.817      81.164      101.46      122.35      141.97      158.17      168.90      176.93      173.03    
  161.92      145.16      124.91      103.42      82.602      63.828      47.891      35.053      25.175      17.860    
  12.599      8.8942      6.3336      4.6139      3.5255      2.9251      2.7127      2.8213      3.2111      3.8643    
  4.7754      5.9380      7.3341      8.9271      10.656      12.436      14.156      15.687      16.899      17.680    
  17.949      17.680      16.899      15.687      14.156      12.436      10.656      8.9271      7.3341      5.9380    
  4.7754      3.8643      3.2111      2.8213      2.7127      2.9251      3.5255      4.6139      6.3336      8.8942    
  12.599      17.860      25.175      35.053      47.891      63.828      82.602      103.42      124.91      145.16    
  161.92      173.03      178.39      174.44      163.19      146.24      125.78      104.08      83.082      64.163    
  48.117      35.202      25.273      17.924      12.641      8.9200      6.3472      4.6168      3.5178      2.9051    
  2.6776      2.7666      3.1313      3.7528      4.6241      5.7367      7.0708      8.5881      10.229      11.912    
  13.532      14.970      16.108      16.838      17.091      16.838      16.108      14.970      13.532      11.912    
  10.229      8.5881      7.0708      5.7367      4.6241      3.7528      3.1313      2.7666      2.6776      2.9051    
  3.5178      4.6168      6.3472      8.9200      12.641      17.924      25.273      35.202      48.117      64.163    
  83.082      104.08      125.78      146.24      163.19      174.44      176.93      173.03      161.92      145.16    
  124.91      103.42      82.602      63.828      47.891      35.053      25.175      17.860      12.599      8.8942    
  6.3336      4.6139      3.5255      2.9251      2.7127      2.8213      3.2111      3.8643      4.7754      5.9380    
  7.3341      8.9271      10.656      12.436      14.156      15.687      16.899      17.680      17.949      17.680    
  16.899      15.687      14.156      12.436      10.656      8.9271      7.3341      5.9380      4.7754      3.8643    
  3.2111      2.8213      2.7127      2.9251      3.5255      4.6139      6.3336      8.8942      12.599      17.860    
  25.175      35.053      47.891      63.828      82.602      103.42      124.91      145.16      161.92      173.03    
  172.65      168.90      158.17      141.97      122.35      101.46      81.164      62.817      47.202      34.594    
  24.872      17.661      12.469      8.8138      6.2912      4.6043      3.5481      2.9839      2.8167      2.9835    
  3.4481      4.1967      5.2286      6.5441      8.1317      9.9581      11.960      14.039      16.064      17.879    
  19.323      20.254      20.576      20.254      19.323      17.879      16.064      14.039      11.960      9.9581    
  8.1317      6.5441      5.2286      4.1967      3.4481      2.9835      2.8167      2.9839      3.5481      4.6043    
  6.2912      8.8138      12.469      17.661      24.872      34.594      47.202      62.817      81.164      101.46    
  122.35      141.97      158.17      168.90      165.81      162.27      152.15      136.81      118.16      98.223    
  78.769      61.110      46.022      33.797      24.341      17.309      12.240      8.6716      6.2156      4.5849    
  3.5830      3.0790      2.9858      3.2477      3.8355      4.7434      5.9810      7.5606      9.4820      11.717    
  14.195      16.796      19.351      21.656      23.498      24.690      25.103      24.690      23.498      21.656    
  19.351      16.796      14.195      11.717      9.4820      7.5606      5.9810      4.7434      3.8355      3.2477    
  2.9858      3.0790      3.5830      4.5849      6.2156      8.6716      12.240      17.309      24.341      33.797    
  46.022      61.110      78.769      98.223      118.16      136.81      152.15      162.27      156.79      153.52    
  144.14      129.89      112.48      93.773      75.424      58.684      44.317      32.626      23.551      16.783    
  11.897      8.4585      6.1007      4.5515      3.6264      3.2059      3.2138      3.6052      4.3626      5.4941    
  7.0266      8.9913      11.404      14.241      17.420      20.787      24.117      27.136      29.556      31.125    
  31.669      31.125      29.556      27.136      24.117      20.787      17.420      14.241      11.404      8.9913    
  7.0266      5.4941      4.3626      3.6052      3.2138      3.2059      3.6264      4.5515      6.1007      8.4585    
  11.897      16.783      23.551      32.626      44.317      58.684      75.424      93.773      112.48      129.89    
  144.14      153.52      145.98      143.01      134.47      121.44      105.45      88.177      71.144      55.526    
  42.058      31.052      22.477      16.064      11.428      8.1668      5.9413      4.4996      3.6736      3.3584    
  3.4920      4.0443      5.0151      6.4337      8.3525      10.830      13.900      17.545      21.662      26.050    
  30.409      34.372      37.557      39.624      40.341      39.624      37.557      34.372      30.409      26.050    
  21.662      17.545      13.900      10.830      8.3525      6.4337      5.0151      4.0443      3.4920      3.3584    
  3.6736      4.4996      5.9413      8.1668      11.428      16.064      22.477      31.052      42.058      55.526    
  71.144      88.177      105.45      121.44      134.47      143.01      133.75      131.08      123.41      111.68    
  97.221      81.527      65.978      51.653      39.247      29.069      21.114      15.149      10.829      7.7939    
  5.7343      4.4250      3.7187      3.5285      3.8094      4.5502      5.7742      7.5399      9.9340      13.048    
  16.939      21.592      26.878      32.532      38.164      43.295      47.422      50.102      51.032      50.102    
  47.422      43.295      38.164      32.532      26.878      21.592      16.939      13.048      9.9340      7.5399    
  5.7742      4.5502      3.8094      3.5285      3.7187      4.4250      5.7343      7.7939      10.829      15.149    
  21.114      29.069      39.247      51.653      65.978      81.527      97.221      111.68      123.41      131.08    
  120.39      118.03      111.25      100.84      87.976      73.963      60.025      47.135      35.932      26.712    
  19.485      14.052      10.111      7.3441      5.4803      4.3251      3.7562      3.7070      4.1525      5.1046    
  6.6155      8.7806      11.728      15.587      20.442      26.278      32.929      40.062      47.179      53.671    
  58.896      62.292      63.470      62.292      58.896      53.671      47.179      40.062      32.929      26.278    
  20.442      15.587      11.728      8.7806      6.6155      5.1046      4.1525      3.7070      3.7562      4.3251    
  5.4803      7.3441      10.111      14.052      19.485      26.712      35.932      47.135      60.025      73.963    
  87.976      100.84      111.25      118.03      106.22      104.17      98.267      89.198      77.965      65.697    
  53.460      42.111      32.220      24.059      17.644      12.810      9.2957      6.8296      5.1842      4.1997    
  3.7811      3.8843      4.5065      5.6856      7.5080      10.111      13.669      18.355      24.278      31.422    
  39.585      48.354      57.116      65.114      71.558      75.747      77.200      75.747      71.558      65.114    
  57.116      48.354      39.585      31.422      24.278      18.355      13.669      10.111      7.5080      5.6856    
  4.5065      3.8843      3.7811      4.1997      5.1842      6.8296      9.2957      12.810      17.644      24.059    
  32.220      42.111      53.460      65.697      77.965      89.198      98.267      104.17      91.650      89.903    
  84.870      77.131      67.534      57.035      46.541      36.788      28.271      21.226      15.674      11.475    
  8.4149      6.2690      4.8554      4.0511      3.7898      4.0511      4.8554      6.2690      8.4149      11.475    
  15.674      21.226      28.271      36.788      46.541      57.035      67.534      77.131      84.870      89.903    
  91.650      89.903      84.870      77.131      67.534      57.035      46.541      36.788      28.271      21.226    
  15.674      11.475      8.4149      6.2690      4.8554      4.0511      3.7898      4.0511      4.8554      6.2690    
  8.4149      11.475      15.674      21.226      28.271      36.788      46.541      57.035      67.534      77.131    
  84.870      89.903      77.200      75.747      71.558      65.114      57.116      48.354      39.585      31.422    
  24.278      18.355      13.669      10.111      7.5080      5.6856      4.5065      3.8843      3.7811      4.1997    
  5.1842      6.8296      9.2957      12.810      17.644      24.059      32.220      42.111      53.460      65.697    
  77.965      89.198      98.267      104.17      106.22      104.17      98.267      89.198      77.965      65.697    
  53.460      42.111      32.220      24.059      17.644      12.810      9.2957      6.8296      5.1842      4.1997    
  3.7811      3.8843      4.5065      5.6856      7.5080      10.111      13.669      18.355      24.278      31.422    
  39.585      48.354      57.116      65.114      71.558      75.747      63.470      62.292      58.896      53.671    
  47.179      40.062      32.929      26.278      20.442      15.587      11.728      8.7806      6.6155      5.1046    
  4.1525      3.7070      3.7562      4.3251      5.4803      7.3441      10.111      14.052      19.485      26.712    
  35.932      47.135      60.025      73.963      87.976      100.84      111.25      118.03      120.39      118.03    
  111.25      100.84      87.976      73.963      60.025      47.135      35.932      26.712      19.485      14.052    
  10.111      7.3441      5.4803      4.3251      3.7562      3.7070      4.1525      5.1046      6.6155      8.7806    
  11.728      15.587      20.442      26.278      32.929      40.062      47.179      53.671      58.896      62.292    
  51.032      50.102      47.422      43.295      38.164      32.532      26.878      21.592      16.939      13.048    
  9.9340      7.5399      5.7742      4.5502      3.8094      3.5285      3.7187      4.4250      5.7343      7.7939    
  10.829      15.149      21.114      29.069      39.247      51.653      65.978      81.527      97.221      111.68    
  123.41      131.08      133.75      131.08      123.41      111.68      97.221      81.527      65.978      51.653    
  39.247      29.069      21.114      15.149      10.829      7.7939      5.7343      4.4250      3.7187      3.5285    
  3.8094      4.5502      5.7742      7.5399      9.9340      13.048      16.939      21.592      26.878      32.532    
  38.164      43.295      47.422      50.102      40.341      39.624      37.557      34.372      30.409      26.050    
  21.662      17.545      13.900      10.830      8.3525      6.4337      5.0151      4.0443      3.4920      3.3584    
  3.6736      4.4996      5.9413      8.1668      11.428      16.064      22.477      31.052      42.058      55.526    
  71.144      88.177      105.45      121.44      134.47      143.01      145.98      143.01      134.47      121.44    
  105.45      88.177      71.144      55.526      42.058      31.052      22.477      16.064      11.428      8.1668    
  5.9413      4.4996      3.6736      3.3584      3.4920      4.0443      5.0151      6.4337      8.3525      10.830    
  13.900      17.545      21.662      26.050      30.409      34.372      37.557      39.624      31.669      31.125    
  29.556      27.136      24.117      20.787      17.420      14.241      11.404      8.9913      7.0266      5.4941    
  4.3626      3.6052      3.2138      3.2059      3.6264      4.5515      6.1007      8.4585      11.897      16.783    
  23.551      32.626      44.317      58.684      75.424      93.773      112.48      129.89      144.14      153.52    
  156.79      153.52      144.14      129.89      112.48      93.773      75.424      58.684      44.317      32.626    
  23.551      16.783      11.897      8.4585      6.1007      4.5515      3.6264      3.2059      3.2138      3.6052    
  4.3626      5.4941      7.0266      8.9913      11.404      14.241      17.420      20.787      24.117      27.136    
  29.556      31.125      25.103      24.690      23.498      21.656      19.351      16.796      14.195      11.717    
  9.4820      7.5606      5.9810      4.7434      3.8355      3.2477      2.9858      3.0790      3.5830      4.5849    
  6.2156      8.6716      12.240      17.309      24.341      33.797      46.022      61.110      78.769      98.223    
  118.16      136.81      152.15      162.27      165.81      162.27      152.15      136.81      118.16      98.223    
  78.769      61.110      46.022      33.797      24.341      17.309      12.240      8.6716      6.2156      4.5849    
  3.5830      3.0790      2.9858      3.2477      3.8355      4.7434      5.9810      7.5606      9.4820      11.717    
  14.195      16.796      19.351      21.656      23.498      24.690      20.576      20.254      19.323      17.879    
  16.064      14.039      11.960      9.9581      8.1317      6.5441      5.2286      4.1967      3.4481      2.9835    
  2.8167      2.9839      3.5481      4.6043      6.2912      8.8138      12.469      17.661      24.872      34.594    
  47.202      62.817      81.164      101.46      122.35      141.97      158.17      168.90      172.65      168.90    
  158.17      141.97      122.35      101.46      81.164      62.817      47.202      34.594      24.872      17.661    
  12.469      8.8138      6.2912      4.6043      3.5481      2.9839      2.8167      2.9835      3.4481      4.1967    
  5.2286      6.5441      8.1317      9.9581      11.960      14.039      16.064      17.879      19.323      20.254    
  17.949      17.680      16.899      15.687      14.156      12.436      10.656      8.9271      7.3341      5.9380    
  4.7754      3.8643      3.2111      2.8213      2.7127      2.9251      3.5255      4.6139      6.3336      8.8942    
  12.599      17.860      25.175      35.053      47.891      63.828      82.602      103.42      124.91      145.16    
  161.92      173.03      176.93      173.03      161.92      145.16      124.91      103.42      82.602      63.828    
  47.891      35.053      25.175      17.860      12.599      8.8942      6.3336      4.6139      3.5255      2.9251    
  2.7127      2.8213      3.2111      3.8643      4.7754      5.9380      7.3341      8.9271      10.656      12.436    
  14.156      15.687      16.899      17.680      17.521      17.260      16.503      15.328      13.842      12.171    
  10.440      8.7550      7.2005      5.8364      4.7003      3.8113      3.1773      2.8058      2.7165      2.9512    
  3.5798      4.7063      6.4816      9.1280      12.967      18.431      26.039      36.316      49.665      66.223    
  85.710      107.30      129.57      150.52      167.85      179.33      183.35      179.33      167.85      150.52    
  129.57      107.30      85.710      66.223      49.665      36.316      26.039      18.431      12.967      9.1280    
  6.4816      4.7063      3.5798      2.9512      2.7165      2.8058      3.1773      3.8113      4.7003      5.8364    
  7.2005      8.7550      10.440      12.171      13.842      15.328      16.503      17.260      16.708      16.463    
  15.750      14.642      13.239      11.658      10.016      8.4136      6.9325      5.6311      4.5474      3.7019    
  3.1044      2.7648      2.7054      2.9714      3.6364      4.8102      6.6540      9.4065      13.411      19.127    
  27.096      37.858      51.821      69.111      89.420      111.88      134.99      156.68      174.57      186.40    
  190.54      186.40      174.57      156.68      134.99      111.88      89.420      69.111      51.821      37.858    
  27.096      19.127      13.411      9.4065      6.6540      4.8102      3.6364      2.9714      2.7054      2.7648    
  3.1044      3.7019      4.5474      5.6311      6.9325      8.4136      10.016      11.658      13.239      14.642    
  15.750      16.463      17.557      17.294      16.530      15.344      13.846      12.165      10.424      8.7344    