I                                       
   1.00000000000000     
     8.577010    0.000000    0.000000
     0.000000    4.554220    0.000000
     0.000000    0.000000   10.183810
   I 
     8
Direct
  0.000000  0.364100  0.878570
  0.000000  0.135900  0.378570
  0.000000  0.864100  0.621430
  0.000000  0.635900  0.121430
  0.500000  0.864100  0.878570
  0.500000  0.635900  0.378570
  0.500000  0.364100  0.621430
  0.500000  0.135900  0.121430
 
   64   36   80
 0.17090516539E+02 0.16838388448E+02 0.16107666264E+02 0.14970370309E+02 0.13531559325E+02
 0.11911656728E+02 0.10229220853E+02 0.85881058215E+01 0.70707592224E+01 0.57367240332E+01
 0.46240839616E+01 0.37528243935E+01 0.31312660360E+01 0.27666164754E+01 0.26776494239E+01
 0.29051412103E+01 0.35177549381E+01 0.46167658988E+01 0.63471614188E+01 0.89200183582E+01
 0.12640661889E+02 0.17924032345E+02 0.25272709774E+02 0.35201958443E+02 0.48116726829E+02
 0.64163255403E+02 0.83081605703E+02 0.10408238699E+03 0.12578005012E+03 0.14623830493E+03
 0.16318971216E+03 0.17444306933E+03 0.17839154585E+03 0.17444306933E+03 0.16318971216E+03
 0.14623830493E+03 0.12578005012E+03 0.10408238699E+03 0.83081605703E+02 0.64163255403E+02
 0.48116726829E+02 0.35201958443E+02 0.25272709774E+02 0.17924032345E+02 0.12640661889E+02
 0.89200183582E+01 0.63471614188E+01 0.46167658988E+01 0.35177549381E+01 0.29051412103E+01
 0.26776494239E+01 0.27666164754E+01 0.31312660360E+01 0.37528243935E+01 0.46240839616E+01
 0.57367240332E+01 0.70707592224E+01 0.85881058215E+01 0.10229220853E+02 0.11911656728E+02
 0.13531559325E+02 0.14970370309E+02 0.16107666264E+02 0.16838388448E+02 0.17948871865E+02
 0.17679529831E+02 0.16899394124E+02 0.15686709971E+02 0.14155505527E+02 0.12436185299E+02
 0.10656470375E+02 0.89270526333E+01 0.73341116695E+01 0.59379644842E+01 0.47754216096E+01
 0.38643479658E+01 0.32110622733E+01 0.28212980209E+01 0.27127379241E+01 0.29250538744E+01
 0.35255398199E+01 0.46139089878E+01 0.63336018909E+01 0.88941561636E+01 0.12598955185E+02
 0.17859902673E+02 0.25174837839E+02 0.35052527962E+02 0.47890507324E+02 0.63828307546E+02
 0.82601957024E+02 0.10342289293E+03 0.12491398101E+03 0.14515776706E+03 0.16191650590E+03
 0.17303424798E+03 0.17693365590E+03 0.17303424798E+03 0.16191650590E+03 0.14515776706E+03
 0.12491398101E+03 0.10342289293E+03 0.82601957024E+02 0.63828307546E+02 0.47890507324E+02
 0.35052527962E+02 0.25174837839E+02 0.17859902673E+02 0.12598955185E+02 0.88941561636E+01
 0.63336018909E+01 0.46139089878E+01 0.35255398199E+01 0.29250538744E+01 0.27127379241E+01
 0.28212980209E+01 0.32110622733E+01 0.38643479658E+01 0.47754216096E+01 0.59379644842E+01
 0.73341116695E+01 0.89270526333E+01 0.10656470375E+02 0.12436185299E+02 0.14155505527E+02
 0.15686709971E+02 0.16899394124E+02 0.17679529831E+02 0.20576064047E+02 0.20254070038E+02
 0.19322713491E+02 0.17879076268E+02 0.16064389885E+02 0.14039442819E+02 0.11960029442E+02
 0.99580604443E+01 0.81316567550E+01 0.65440810223E+01 0.52286313611E+01 0.41966890238E+01
 0.34480768080E+01 0.29834659700E+01 0.28167233402E+01 0.29838982035E+01 0.35480771687E+01
 0.46042736668E+01 0.62912445581E+01 0.88138004418E+01 0.12469389883E+02 0.17660859248E+02
 0.24872236271E+02 0.34593656553E+02 0.47201583282E+02 0.62816618557E+02 0.81163698223E+02
 0.10145744768E+03 0.12234604999E+03 0.14196722557E+03 0.15816885948E+03 0.16889560682E+03
 0.17265376074E+03 0.16889560682E+03 0.15816885948E+03 0.14196722557E+03 0.12234604999E+03
 0.10145744768E+03 0.81163698223E+02 0.62816618557E+02 0.47201583282E+02 0.34593656553E+02
 0.24872236271E+02 0.17660859248E+02 0.12469389883E+02 0.88138004418E+01 0.62912445581E+01
 0.46042736668E+01 0.35480771687E+01 0.29838982035E+01 0.28167233402E+01 0.29834659700E+01
 0.34480768080E+01 0.41966890238E+01 0.52286313611E+01 0.65440810223E+01 0.81316567550E+01
 0.99580604443E+01 0.11960029442E+02 0.14039442819E+02 0.16064389885E+02 0.17879076268E+02
 0.19322713491E+02 0.20254070038E+02 0.25102579443E+02 0.24689996249E+02 0.23498233865E+02
 0.21656206190E+02 0.19351278303E+02 0.16796074999E+02 0.14194798879E+02 0.11716720625E+02
 0.94820052459E+01 0.75606424460E+01 0.59810104610E+01 0.47434075741E+01 0.38354884355E+01
 0.32476592825E+01 0.29858119922E+01 0.30789979016E+01 0.35829746057E+01 0.45848951009E+01
 0.62155891923E+01 0.86716401290E+01 0.12240242255E+02 0.17309276269E+02 0.24340962695E+02
 0.33796963418E+02 0.46022227320E+02 0.61109636809E+02 0.78769000945E+02 0.98222642498E+02
 0.11816116701E+03 0.13680991898E+03 0.15214854183E+03 0.16227322124E+03 0.16581455392E+03
 0.16227322124E+03 0.15214854183E+03 0.13680991898E+03 0.11816116701E+03 0.98222642498E+02
 0.78769000945E+02 0.61109636809E+02 0.46022227320E+02 0.33796963418E+02 0.24340962695E+02
 0.17309276269E+02 0.12240242255E+02 0.86716401290E+01 0.62155891923E+01 0.45848951009E+01
 0.35829746057E+01 0.30789979016E+01 0.29858119922E+01 0.32476592825E+01 0.38354884355E+01
 0.47434075741E+01 0.59810104610E+01 0.75606424460E+01 0.94820052459E+01 0.11716720625E+02
 0.14194798879E+02 0.16796074999E+02 0.19351278303E+02 0.21656206190E+02 0.23498233865E+02
 0.24689996249E+02 0.31669091822E+02 0.31125345455E+02 0.29556201451E+02 0.27135771198E+02
 0.24117132557E+02 0.20787180415E+02 0.17420262664E+02 0.14241015306E+02 0.11403895051E+02
 0.89913442249E+01 0.70265570323E+01 0.54941040416E+01 0.43626150565E+01 0.36051860896E+01
 0.32137773269E+01 0.32058952523E+01 0.36264381307E+01 0.45515377457E+01 0.61007481460E+01
 0.84584904372E+01 0.11896888178E+02 0.16783021103E+02 0.23550647904E+02 0.32626109353E+02
 0.44316809172E+02 0.58684157002E+02 0.75423525188E+02 0.93772824729E+02 0.11248238853E+03
 0.12989170681E+03 0.14414412016E+03 0.15351799058E+03 0.15679025458E+03 0.15351799058E+03
 0.14414412016E+03 0.12989170681E+03 0.11248238853E+03 0.93772824729E+02 0.75423525188E+02
 0.58684157002E+02 0.44316809172E+02 0.32626109353E+02 0.23550647904E+02 0.16783021103E+02
 0.11896888178E+02 0.84584904372E+01 0.61007481460E+01 0.45515377457E+01 0.36264381307E+01
 0.32058952523E+01 0.32137773269E+01 0.36051860896E+01 0.43626150565E+01 0.54941040416E+01
 0.70265570323E+01 0.89913442249E+01 0.11403895051E+02 0.14241015306E+02 0.17420262664E+02
 0.20787180415E+02 0.24117132557E+02 0.27135771198E+02 0.29556201451E+02 0.31125345455E+02
 0.40340585890E+02 0.39623929985E+02 0.37556950327E+02 0.34372420931E+02 0.30408837801E+02
 0.26049970991E+02 0.21662421885E+02 0.17544997525E+02 0.13899988315E+02 0.10829521524E+02
 0.83525382699E+01 0.64336545091E+01 0.50150928875E+01 0.40443347090E+01 0.34919801943E+01
 0.33583554173E+01 0.36735573235E+01 0.44995788479E+01 0.59413368088E+01 0.81667894585E+01
 0.11427670725E+02 0.16064407270E+02 0.22476814905E+02 0.31051892263E+02 0.42057903599E+02
 0.55526448956E+02 0.71144467479E+02 0.88177043728E+02 0.10545136193E+03 0.12144071613E+03
 0.13446905271E+03 0.14300706292E+03 0.14598171411E+03 0.14300706292E+03 0.13446905271E+03
 0.12144071613E+03 0.10545136193E+03 0.88177043728E+02 0.71144467479E+02 0.55526448956E+02
 0.42057903599E+02 0.31051892263E+02 0.22476814905E+02 0.16064407270E+02 0.11427670725E+02
 0.81667894585E+01 0.59413368088E+01 0.44995788479E+01 0.36735573235E+01 0.33583554173E+01
 0.34919801943E+01 0.40443347090E+01 0.50150928875E+01 0.64336545091E+01 0.83525382699E+01
 0.10829521524E+02 0.13899988315E+02 0.17544997525E+02 0.21662421885E+02 0.26049970991E+02
 0.30408837801E+02 0.34372420931E+02 0.37556950327E+02 0.39623929985E+02 0.51032168196E+02
 0.50102440536E+02 0.47421779996E+02 0.43294649334E+02 0.38163896624E+02 0.32531649944E+02
 0.26877558359E+02 0.21592311199E+02 0.16939153963E+02 0.13047532921E+02 0.99339988323E+01
 0.75399143832E+01 0.57741862473E+01 0.45502438765E+01 0.38093533504E+01 0.35284711151E+01
 0.37187258179E+01 0.44249713755E+01 0.57343011003E+01 0.77938707167E+01 0.10829495691E+02
 0.15149108850E+02 0.21113880669E+02 0.29069442423E+02 0.39246664778E+02 0.51653297267E+02
 0.65978087925E+02 0.81527444824E+02 0.97221421813E+02 0.11168029064E+03 0.12341349213E+03
 0.13107926533E+03 0.13374564667E+03 0.13107926533E+03 0.12341349213E+03 0.11168029064E+03
 0.97221421813E+02 0.81527444824E+02 0.65978087925E+02 0.51653297267E+02 0.39246664778E+02
 0.29069442423E+02 0.21113880669E+02 0.15149108850E+02 0.10829495691E+02 0.77938707167E+01
 0.57343011003E+01 0.44249713755E+01 0.37187258179E+01 0.35284711151E+01 0.38093533504E+01
 0.45502438765E+01 0.57741862473E+01 0.75399143832E+01 0.99339988323E+01 0.13047532921E+02
 0.16939153963E+02 0.21592311199E+02 0.26877558359E+02 0.32531649944E+02 0.38163896624E+02
 0.43294649334E+02 0.47421779996E+02 0.50102440536E+02 0.63470017695E+02 0.62292014371E+02
 0.58896252207E+02 0.53670650100E+02 0.47179428802E+02 0.40062051507E+02 0.32929008981E+02
 0.26277507192E+02 0.20442453198E+02 0.15587132677E+02 0.11727848734E+02 0.87806033127E+01
 0.66154943199E+01 0.51045979326E+01 0.41525457154E+01 0.37070378310E+01 0.37562406078E+01
 0.43251430520E+01 0.54802697653E+01 0.73441254635E+01 0.10111483814E+02 0.14052290592E+02
 0.19484877187E+02 0.26712445181E+02 0.35931825018E+02 0.47134974513E+02 0.60024537841E+02
 0.73962698600E+02 0.87975969783E+02 0.10083945115E+03 0.11124597979E+03 0.11802991698E+03
 0.12038683166E+03 0.11802991698E+03 0.11124597979E+03 0.10083945115E+03 0.87975969783E+02
 0.73962698600E+02 0.60024537841E+02 0.47134974513E+02 0.35931825018E+02 0.26712445181E+02
 0.19484877187E+02 0.14052290592E+02 0.10111483814E+02 0.73441254635E+01 0.54802697653E+01
 0.43251430520E+01 0.37562406078E+01 0.37070378310E+01 0.41525457154E+01 0.51045979326E+01
 0.66154943199E+01 0.87806033127E+01 0.11727848734E+02 0.15587132677E+02 0.20442453198E+02
 0.26277507192E+02 0.32929008981E+02 0.40062051507E+02 0.47179428802E+02 0.53670650100E+02
 0.58896252207E+02 0.62292014371E+02 0.77200489092E+02 0.75746989137E+02 0.71557874393E+02
 0.65114184054E+02 0.57115558520E+02 0.48354188357E+02 0.39585046797E+02 0.31422014891E+02
 0.24278318314E+02 0.18354946047E+02 0.13669377310E+02 0.10111147744E+02 0.75080363095E+01
 0.56856391213E+01 0.45064709429E+01 0.38843120481E+01 0.37810848067E+01 0.41997329343E+01
 0.51842130940E+01 0.68295951444E+01 0.92956877796E+01 0.12809991397E+02 0.17644460280E+02
 0.24059048747E+02 0.32219857731E+02 0.42110842584E+02 0.53459790195E+02 0.65696978656E+02
 0.77965242443E+02 0.89198071737E+02 0.98266790862E+02 0.10417036515E+03 0.10621998685E+03
 0.10417036515E+03 0.98266790862E+02 0.89198071737E+02 0.77965242443E+02 0.65696978656E+02
 0.53459790195E+02 0.42110842584E+02 0.32219857731E+02 0.24059048747E+02 0.17644460280E+02
 0.12809991397E+02 0.92956877796E+01 0.68295951444E+01 0.51842130940E+01 0.41997329343E+01
 0.37810848067E+01 0.38843120481E+01 0.45064709429E+01 0.56856391213E+01 0.75080363095E+01
 0.10111147744E+02 0.13669377310E+02 0.18354946047E+02 0.24278318314E+02 0.31422014891E+02
 0.39585046797E+02 0.48354188357E+02 0.57115558520E+02 0.65114184054E+02 0.71557874393E+02
 0.75746989137E+02 0.91649682703E+02 0.89902882381E+02 0.84869610419E+02 0.77131472722E+02
 0.67534354914E+02 0.57034618734E+02 0.46540748661E+02 0.36788352063E+02 0.28270660381E+02
 0.21226412574E+02 0.15673874826E+02 0.11475373994E+02 0.84148500194E+01 0.62690080547E+01
 0.48553637969E+01 0.40510748829E+01 0.37897820721E+01 0.40510748829E+01 0.48553637969E+01
 0.62690080547E+01 0.84148500194E+01 0.11475373994E+02 0.15673874826E+02 0.21226412574E+02
 0.28270660381E+02 0.36788352063E+02 0.46540748661E+02 0.57034618734E+02 0.67534354914E+02
 0.77131472722E+02 0.84869610419E+02 0.89902882381E+02 0.91649682703E+02 0.89902882381E+02
 0.84869610419E+02 0.77131472722E+02 0.67534354914E+02 0.57034618734E+02 0.46540748661E+02
 0.36788352063E+02 0.28270660381E+02 0.21226412574E+02 0.15673874826E+02 0.11475373994E+02
 0.84148500194E+01 0.62690080547E+01 0.48553637969E+01 0.40510748829E+01 0.37897820721E+01
 0.40510748829E+01 0.48553637969E+01 0.62690080547E+01 0.84148500194E+01 0.11475373994E+02
 0.15673874826E+02 0.21226412574E+02 0.28270660381E+02 0.36788352063E+02 0.46540748661E+02
 0.57034618734E+02 0.67534354914E+02 0.77131472722E+02 0.84869610419E+02 0.89902882381E+02
 0.10621998685E+03 0.10417036515E+03 0.98266790862E+02 0.89198071737E+02 0.77965242443E+02
 0.65696978656E+02 0.53459790195E+02 0.42110842584E+02 0.32219857731E+02 0.24059048747E+02
 0.17644460280E+02 0.12809991397E+02 0.92956877796E+01 0.68295951444E+01 0.51842130940E+01
 0.41997329343E+01 0.37810848067E+01 0.38843120481E+01 0.45064709429E+01 0.56856391213E+01
 0.75080363095E+01 0.10111147744E+02 0.13669377310E+02 0.18354946047E+02 0.24278318314E+02
 0.31422014891E+02 0.39585046797E+02 0.48354188357E+02 0.57115558520E+02 0.65114184054E+02
 0.71557874393E+02 0.75746989137E+02 0.77200489092E+02 0.75746989137E+02 0.71557874393E+02
 0.65114184054E+02 0.57115558520E+02 0.48354188357E+02 0.39585046797E+02 0.31422014891E+02
 0.24278318314E+02 0.18354946047E+02 0.13669377310E+02 0.10111147744E+02 0.75080363095E+01
 0.56856391213E+01 0.45064709429E+01 0.38843120481E+01 0.37810848067E+01 0.41997329343E+01
 0.51842130940E+01 0.68295951444E+01 0.92956877796E+01 0.12809991397E+02 0.17644460280E+02
 0.24059048747E+02 0.32219857731E+02 0.42110842584E+02 0.53459790195E+02 0.65696978656E+02
 0.77965242443E+02 0.89198071737E+02 0.98266790862E+02 0.10417036515E+03 0.12038683166E+03
 0.11802991698E+03 0.11124597979E+03 0.10083945115E+03 0.87975969783E+02 0.73962698600E+02
 0.60024537841E+02 0.47134974513E+02 0.35931825018E+02 0.26712445181E+02 0.19484877187E+02
 0.14052290592E+02 0.10111483814E+02 0.73441254635E+01 0.54802697653E+01 0.43251430520E+01
 0.37562406078E+01 0.37070378310E+01 0.41525457154E+01 0.51045979326E+01 0.66154943199E+01
 0.87806033127E+01 0.11727848734E+02 0.15587132677E+02 0.20442453198E+02 0.26277507192E+02
 0.32929008981E+02 0.40062051507E+02 0.47179428802E+02 0.53670650100E+02 0.58896252207E+02
 0.62292014371E+02 0.63470017695E+02 0.62292014371E+02 0.58896252207E+02 0.53670650100E+02
 0.47179428802E+02 0.40062051507E+02 0.32929008981E+02 0.26277507192E+02 0.20442453198E+02
 0.15587132677E+02 0.11727848734E+02 0.87806033127E+01 0.66154943199E+01 0.51045979326E+01
 0.41525457154E+01 0.37070378310E+01 0.37562406078E+01 0.43251430520E+01 0.54802697653E+01
 0.73441254635E+01 0.10111483814E+02 0.14052290592E+02 0.19484877187E+02 0.26712445181E+02
 0.35931825018E+02 0.47134974513E+02 0.60024537841E+02 0.73962698600E+02 0.87975969783E+02
 0.10083945115E+03 0.11124597979E+03 0.11802991698E+03 0.13374564667E+03 0.13107926533E+03
 0.12341349213E+03 0.11168029064E+03 0.97221421813E+02 0.81527444824E+02 0.65978087925E+02
 0.51653297267E+02 0.39246664778E+02 0.29069442423E+02 0.21113880669E+02 0.15149108850E+02
 0.10829495691E+02 0.77938707167E+01 0.57343011003E+01 0.44249713755E+01 0.37187258179E+01
 0.35284711151E+01 0.38093533504E+01 0.45502438765E+01 0.57741862473E+01 0.75399143832E+01
 0.99339988323E+01 0.13047532921E+02 0.16939153963E+02 0.21592311199E+02 0.26877558359E+02
 0.32531649944E+02 0.38163896624E+02 0.43294649334E+02 0.47421779996E+02 0.50102440536E+02
 0.51032168196E+02 0.50102440536E+02 0.47421779996E+02 0.43294649334E+02 0.38163896624E+02
 0.32531649944E+02 0.26877558359E+02 0.21592311199E+02 0.16939153963E+02 0.13047532921E+02
 0.99339988323E+01 0.75399143832E+01 0.57741862473E+01 0.45502438765E+01 0.38093533504E+01
 0.35284711151E+01 0.37187258179E+01 0.44249713755E+01 0.57343011003E+01 0.77938707167E+01
 0.10829495691E+02 0.15149108850E+02 0.21113880669E+02 0.29069442423E+02 0.39246664778E+02
 0.51653297267E+02 0.65978087925E+02 0.81527444824E+02 0.97221421813E+02 0.11168029064E+03
 0.12341349213E+03 0.13107926533E+03 0.14598171411E+03 0.14300706292E+03 0.13446905271E+03
 0.12144071613E+03 0.10545136193E+03 0.88177043728E+02 0.71144467479E+02 0.55526448956E+02
 0.42057903599E+02 0.31051892263E+02 0.22476814905E+02 0.16064407270E+02 0.11427670725E+02
 0.81667894585E+01 0.59413368088E+01 0.44995788479E+01 0.36735573235E+01 0.33583554173E+01
 0.34919801943E+01 0.40443347090E+01 0.50150928875E+01 0.64336545091E+01 0.83525382699E+01
 0.10829521524E+02 0.13899988315E+02 0.17544997525E+02 0.21662421885E+02 0.26049970991E+02
 0.30408837801E+02 0.34372420931E+02 0.37556950327E+02 0.39623929985E+02 0.40340585890E+02
 0.39623929985E+02 0.37556950327E+02 0.34372420931E+02 0.30408837801E+02 0.26049970991E+02
 0.21662421885E+02 0.17544997525E+02 0.13899988315E+02 0.10829521524E+02 0.83525382699E+01
 0.64336545091E+01 0.50150928875E+01 0.40443347090E+01 0.34919801943E+01 0.33583554173E+01
 0.36735573235E+01 0.44995788479E+01 0.59413368088E+01 0.81667894585E+01 0.11427670725E+02
 0.16064407270E+02 0.22476814905E+02 0.31051892263E+02 0.42057903599E+02 0.55526448956E+02
 0.71144467479E+02 0.88177043728E+02 0.10545136193E+03 0.12144071613E+03 0.13446905271E+03
 0.14300706292E+03 0.15679025458E+03 0.15351799058E+03 0.14414412016E+03 0.12989170681E+03
 0.11248238853E+03 0.93772824729E+02 0.75423525188E+02 0.58684157002E+02 0.44316809172E+02
 0.32626109354E+02 0.23550647904E+02 0.16783021103E+02 0.11896888178E+02 0.84584904372E+01
 0.61007481460E+01 0.45515377457E+01 0.36264381307E+01 0.32058952523E+01 0.32137773269E+01
 0.36051860896E+01 0.43626150565E+01 0.54941040416E+01 0.70265570323E+01 0.89913442249E+01
 0.11403895051E+02 0.14241015306E+02 0.17420262664E+02 0.20787180415E+02 0.24117132557E+02
 0.27135771198E+02 0.29556201451E+02 0.31125345455E+02 0.31669091822E+02 0.31125345455E+02
 0.29556201451E+02 0.27135771198E+02 0.24117132557E+02 0.20787180415E+02 0.17420262664E+02
 0.14241015306E+02 0.11403895051E+02 0.89913442249E+01 0.70265570323E+01 0.54941040416E+01
 0.43626150565E+01 0.36051860896E+01 0.32137773269E+01 0.32058952523E+01 0.36264381307E+01
 0.45515377457E+01 0.61007481460E+01 0.84584904372E+01 0.11896888178E+02 0.16783021103E+02
 0.23550647904E+02 0.32626109354E+02 0.44316809172E+02 0.58684157002E+02 0.75423525188E+02
 0.93772824729E+02 0.11248238853E+03 0.12989170681E+03 0.14414412016E+03 0.15351799058E+03
 0.16581455392E+03 0.16227322124E+03 0.15214854183E+03 0.13680991898E+03 0.11816116701E+03
 0.98222642498E+02 0.78769000945E+02 0.61109636809E+02 0.46022227320E+02 0.33796963418E+02
 0.24340962695E+02 0.17309276269E+02 0.12240242255E+02 0.86716401290E+01 0.62155891923E+01
 0.45848951009E+01 0.35829746057E+01 0.30789979016E+01 0.29858119922E+01 0.32476592825E+01
 0.38354884355E+01 0.47434075741E+01 0.59810104610E+01 0.75606424460E+01 0.94820052459E+01
 0.11716720625E+02 0.14194798879E+02 0.16796074999E+02 0.19351278303E+02 0.21656206190E+02
 0.23498233865E+02 0.24689996249E+02 0.25102579443E+02 0.24689996249E+02 0.23498233865E+02
 0.21656206190E+02 0.19351278303E+02 0.16796074999E+02 0.14194798879E+02 0.11716720625E+02
 0.94820052459E+01 0.75606424460E+01 0.59810104610E+01 0.47434075741E+01 0.38354884355E+01
 0.32476592825E+01 0.29858119922E+01 0.30789979016E+01 0.35829746057E+01 0.45848951009E+01
 0.62155891923E+01 0.86716401290E+01 0.12240242255E+02 0.17309276269E+02 0.24340962695E+02
 0.33796963418E+02 0.46022227320E+02 0.61109636809E+02 0.78769000945E+02 0.98222642498E+02
 0.11816116701E+03 0.13680991898E+03 0.15214854183E+03 0.16227322124E+03 0.17265376074E+03
 0.16889560682E+03 0.15816885948E+03 0.14196722557E+03 0.12234604999E+03 0.10145744768E+03
 0.81163698223E+02 0.62816618557E+02 0.47201583282E+02 0.34593656553E+02 0.24872236271E+02
 0.17660859248E+02 0.12469389883E+02 0.88138004418E+01 0.62912445581E+01 0.46042736668E+01
 0.35480771687E+01 0.29838982035E+01 0.28167233402E+01 0.29834659700E+01 0.34480768080E+01
 0.41966890238E+01 0.52286313611E+01 0.65440810223E+01 0.81316567550E+01 0.99580604443E+01
 0.11960029442E+02 0.14039442819E+02 0.16064389885E+02 0.17879076268E+02 0.19322713491E+02
 0.20254070038E+02 0.20576064047E+02 0.20254070038E+02 0.19322713491E+02 0.17879076268E+02
 0.16064389885E+02 0.14039442819E+02 0.11960029442E+02 0.99580604443E+01 0.81316567550E+01
 0.65440810223E+01 0.52286313611E+01 0.41966890238E+01 0.34480768080E+01 0.29834659700E+01
 0.28167233402E+01 0.29838982035E+01 0.35480771687E+01 0.46042736668E+01 0.62912445581E+01
 0.88138004418E+01 0.12469389883E+02 0.17660859248E+02 0.24872236271E+02 0.34593656553E+02
 0.47201583282E+02 0.62816618557E+02 0.81163698223E+02 0.10145744768E+03 0.12234604999E+03
 0.14196722557E+03 0.15816885948E+03 0.16889560682E+03 0.17693365590E+03 0.17303424798E+03
 0.16191650590E+03 0.14515776706E+03 0.12491398101E+03 0.10342289293E+03 0.82601957024E+02
 0.63828307546E+02 0.47890507324E+02 0.35052527962E+02 0.25174837839E+02 0.17859902673E+02
 0.12598955185E+02 0.88941561636E+01 0.63336018909E+01 0.46139089878E+01 0.35255398199E+01
 0.29250538744E+01 0.27127379241E+01 0.28212980209E+01 0.32110622733E+01 0.38643479658E+01
 0.47754216096E+01 0.59379644842E+01 0.73341116695E+01 0.89270526333E+01 0.10656470375E+02
 0.12436185299E+02 0.14155505527E+02 0.15686709971E+02 0.16899394124E+02 0.17679529831E+02
 0.17948871865E+02 0.17679529831E+02 0.16899394124E+02 0.15686709971E+02 0.14155505527E+02
 0.12436185299E+02 0.10656470375E+02 0.89270526333E+01 0.73341116695E+01 0.59379644842E+01
 0.47754216096E+01 0.38643479658E+01 0.32110622733E+01 0.28212980209E+01 0.27127379241E+01
 0.29250538744E+01 0.35255398199E+01 0.46139089878E+01 0.63336018909E+01 0.88941561636E+01
 0.12598955185E+02 0.17859902673E+02 0.25174837839E+02 0.35052527962E+02 0.47890507324E+02
 0.63828307546E+02 0.82601957024E+02 0.10342289293E+03 0.12491398101E+03 0.14515776706E+03
 0.16191650590E+03 0.17303424798E+03 0.17839154585E+03 0.17444306933E+03 0.16318971216E+03
 0.14623830493E+03 0.12578005012E+03 0.10408238699E+03 0.83081605703E+02 0.64163255403E+02
 0.48116726829E+02 0.35201958443E+02 0.25272709774E+02 0.17924032345E+02 0.12640661889E+02
 0.89200183582E+01 0.63471614188E+01 0.46167658988E+01 0.35177549381E+01 0.29051412103E+01
 0.26776494239E+01 0.27666164754E+01 0.31312660360E+01 0.37528243935E+01 0.46240839616E+01
 0.57367240332E+01 0.70707592224E+01 0.85881058215E+01 0.10229220853E+02 0.11911656728E+02
 0.13531559325E+02 0.14970370309E+02 0.16107666264E+02 0.16838388448E+02 0.17090516539E+02
 0.16838388448E+02 0.16107666264E+02 0.14970370309E+02 0.13531559325E+02 0.11911656728E+02
 0.10229220853E+02 0.85881058215E+01 0.70707592224E+01 0.57367240332E+01 0.46240839616E+01
 0.37528243935E+01 0.31312660360E+01 0.27666164754E+01 0.26776494239E+01 0.29051412103E+01
 0.35177549381E+01 0.46167658988E+01 0.63471614188E+01 0.89200183582E+01 0.12640661889E+02
 0.17924032345E+02 0.25272709774E+02 0.35201958443E+02 0.48116726829E+02 0.64163255403E+02
 0.83081605703E+02 0.10408238699E+03 0.12578005012E+03 0.14623830493E+03 0.16318971216E+03
 0.17444306933E+03 0.17693365590E+03 0.17303424798E+03 0.16191650590E+03 0.14515776706E+03
 0.12491398101E+03 0.10342289293E+03 0.82601957024E+02 0.63828307546E+02 0.47890507324E+02
 0.35052527962E+02 0.25174837839E+02 0.17859902673E+02 0.12598955185E+02 0.88941561636E+01
 0.63336018909E+01 0.46139089878E+01 0.35255398199E+01 0.29250538744E+01 0.27127379241E+01
 0.28212980209E+01 0.32110622733E+01 0.38643479658E+01 0.47754216096E+01 0.59379644842E+01
 0.73341116695E+01 0.89270526333E+01 0.10656470375E+02 0.12436185299E+02 0.14155505527E+02
 0.15686709971E+02 0.16899394124E+02 0.17679529831E+02 0.17948871865E+02 0.17679529831E+02
 0.16899394124E+02 0.15686709971E+02 0.14155505527E+02 0.12436185299E+02 0.10656470375E+02
 0.89270526333E+01 0.73341116695E+01 0.59379644842E+01 0.47754216096E+01 0.38643479658E+01
 0.32110622733E+01 0.28212980209E+01 0.27127379241E+01 0.29250538744E+01 0.35255398199E+01
 0.46139089878E+01 0.63336018909E+01 0.88941561636E+01 0.12598955185E+02 0.17859902673E+02
 0.25174837839E+02 0.35052527962E+02 0.47890507324E+02 0.63828307546E+02 0.82601957024E+02
 0.10342289293E+03 0.12491398101E+03 0.14515776706E+03 0.16191650590E+03 0.17303424798E+03
 0.17265376074E+03 0.16889560682E+03 0.15816885948E+03 0.14196722557E+03 0.12234604999E+03
 0.10145744768E+03 0.81163698223E+02 0.62816618557E+02 0.47201583282E+02 0.34593656553E+02
 0.24872236271E+02 0.17660859248E+02 0.12469389883E+02 0.88138004418E+01 0.62912445581E+01
 0.46042736668E+01 0.35480771687E+01 0.29838982035E+01 0.28167233402E+01 0.29834659700E+01
 0.34480768080E+01 0.41966890238E+01 0.52286313611E+01 0.65440810223E+01 0.81316567550E+01
 0.99580604443E+01 0.11960029442E+02 0.14039442819E+02 0.16064389885E+02 0.17879076268E+02
 0.19322713491E+02 0.20254070038E+02 0.20576064047E+02 0.20254070038E+02 0.19322713491E+02
 0.17879076268E+02 0.16064389885E+02 0.14039442819E+02 0.11960029442E+02 0.99580604443E+01
 0.81316567550E+01 0.65440810223E+01 0.52286313611E+01 0.41966890238E+01 0.34480768080E+01
 0.29834659700E+01 0.28167233402E+01 0.29838982035E+01 0.35480771687E+01 0.46042736668E+01
 0.62912445581E+01 0.88138004418E+01 0.12469389883E+02 0.17660859248E+02 0.24872236271E+02
 0.34593656553E+02 0.47201583282E+02 0.62816618557E+02 0.81163698223E+02 0.10145744768E+03
 0.12234604999E+03 0.14196722557E+03 0.15816885948E+03 0.16889560682E+03 0.16581455392E+03
 0.16227322124E+03 0.15214854183E+03 0.13680991898E+03 0.11816116701E+03 0.98222642498E+02
 0.78769000945E+02 0.61109636809E+02 0.46022227320E+02 0.33796963418E+02 0.24340962695E+02
 0.17309276269E+02 0.12240242255E+02 0.86716401290E+01 0.62155891923E+01 0.45848951009E+01
 0.35829746057E+01 0.30789979016E+01 0.29858119922E+01 0.32476592825E+01 0.38354884355E+01
 0.47434075741E+01 0.59810104610E+01 0.75606424460E+01 0.94820052459E+01 0.11716720625E+02
 0.14194798879E+02 0.16796074999E+02 0.19351278303E+02 0.21656206190E+02 0.23498233865E+02
 0.24689996249E+02 0.25102579443E+02 0.24689996249E+02 0.23498233865E+02 0.21656206190E+02
 0.19351278303E+02 0.16796074999E+02 0.14194798879E+02 0.11716720625E+02 0.94820052459E+01
 0.75606424460E+01 0.59810104610E+01 0.47434075741E+01 0.38354884355E+01 0.32476592825E+01
 0.29858119922E+01 0.30789979016E+01 0.35829746057E+01 0.45848951009E+01 0.62155891923E+01
 0.86716401290E+01 0.12240242255E+02 0.17309276269E+02 0.24340962695E+02 0.33796963418E+02
 0.46022227320E+02 0.61109636809E+02 0.78769000945E+02 0.98222642498E+02 0.11816116701E+03
 0.13680991898E+03 0.15214854183E+03 0.16227322124E+03 0.15679025458E+03 0.15351799058E+03
 0.14414412016E+03 0.12989170681E+03 0.11248238853E+03 0.93772824729E+02 0.75423525188E+02
 0.58684157002E+02 0.44316809172E+02 0.32626109353E+02 0.23550647904E+02 0.16783021103E+02
 0.11896888178E+02 0.84584904372E+01 0.61007481460E+01 0.45515377457E+01 0.36264381307E+01
 0.32058952523E+01 0.32137773269E+01 0.36051860896E+01 0.43626150565E+01 0.54941040416E+01
 0.70265570323E+01 0.89913442249E+01 0.11403895051E+02 0.14241015306E+02 0.17420262664E+02
 0.20787180415E+02 0.24117132557E+02 0.27135771198E+02 0.29556201451E+02 0.31125345455E+02
 0.31669091822E+02 0.31125345455E+02 0.29556201451E+02 0.27135771198E+02 0.24117132557E+02
 0.20787180415E+02 0.17420262664E+02 0.14241015306E+02 0.11403895051E+02 0.89913442249E+01
 0.70265570323E+01 0.54941040416E+01 0.43626150565E+01 0.36051860896E+01 0.32137773269E+01
 0.32058952523E+01 0.36264381307E+01 0.45515377457E+01 0.61007481460E+01 0.84584904372E+01
 0.11896888178E+02 0.16783021103E+02 0.23550647904E+02 0.32626109353E+02 0.44316809172E+02
 0.58684157002E+02 0.75423525188E+02 0.93772824729E+02 0.11248238853E+03 0.12989170681E+03
 0.14414412016E+03 0.15351799058E+03 0.14598171411E+03 0.14300706292E+03 0.13446905271E+03
 0.12144071613E+03 0.10545136193E+03 0.88177043728E+02 0.71144467479E+02 0.55526448956E+02
 0.42057903599E+02 0.31051892263E+02 0.22476814905E+02 0.16064407270E+02 0.11427670725E+02
 0.81667894585E+01 0.59413368088E+01 0.44995788479E+01 0.36735573235E+01 0.33583554173E+01
 0.34919801943E+01 0.40443347090E+01 0.50150928875E+01 0.64336545091E+01 0.83525382699E+01
 0.10829521524E+02 0.13899988315E+02 0.17544997525E+02 0.21662421885E+02 0.26049970991E+02
 0.30408837801E+02 0.34372420931E+02 0.37556950327E+02 0.39623929985E+02 0.40340585890E+02
 0.39623929985E+02 0.37556950327E+02 0.34372420931E+02 0.30408837801E+02 0.26049970991E+02
 0.21662421885E+02 0.17544997525E+02 0.13899988315E+02 0.10829521524E+02 0.83525382699E+01
 0.64336545091E+01 0.50150928875E+01 0.40443347090E+01 0.34919801943E+01 0.33583554173E+01
 0.36735573235E+01 0.44995788479E+01 0.59413368088E+01 0.81667894585E+01 0.11427670725E+02
 0.16064407270E+02 0.22476814905E+02 0.31051892263E+02 0.42057903599E+02 0.55526448956E+02
 0.71144467479E+02 0.88177043728E+02 0.10545136193E+03 0.12144071613E+03 0.13446905271E+03
 0.14300706292E+03 0.13374564667E+03 0.13107926533E+03 0.12341349213E+03 0.11168029064E+03
 0.97221421813E+02 0.81527444824E+02 0.65978087925E+02 0.51653297267E+02 0.39246664778E+02
 0.29069442423E+02 0.21113880669E+02 0.15149108850E+02 0.10829495691E+02 0.77938707167E+01
 0.57343011003E+01 0.44249713755E+01 0.37187258179E+01 0.35284711151E+01 0.38093533504E+01
 0.45502438765E+01 0.57741862473E+01 0.75399143832E+01 0.99339988323E+01 0.13047532921E+02
 0.16939153963E+02 0.21592311199E+02 0.26877558359E+02 0.32531649944E+02 0.38163896624E+02
 0.43294649334E+02 0.47421779996E+02 0.50102440536E+02 0.51032168196E+02 0.50102440536E+02
 0.47421779996E+02 0.43294649334E+02 0.38163896624E+02 0.32531649944E+02 0.26877558359E+02
 0.21592311199E+02 0.16939153963E+02 0.13047532921E+02 0.99339988323E+01 0.75399143832E+01
 0.57741862473E+01 0.45502438765E+01 0.38093533504E+01 0.35284711151E+01 0.37187258179E+01
 0.44249713755E+01 0.57343011003E+01 0.77938707167E+01 0.10829495691E+02 0.15149108850E+02
 0.21113880669E+02 0.29069442423E+02 0.39246664778E+02 0.51653297267E+02 0.65978087925E+02
 0.81527444824E+02 0.97221421813E+02 0.11168029064E+03 0.12341349213E+03 0.13107926533E+03
 0.12038683166E+03 0.11802991698E+03 0.11124597979E+03 0.10083945115E+03 0.87975969783E+02
 0.73962698600E+02 0.60024537841E+02 0.47134974513E+02 0.35931825018E+02 0.26712445181E+02
 0.19484877187E+02 0.14052290592E+02 0.10111483814E+02 0.73441254635E+01 0.54802697653E+01
 0.43251430520E+01 0.37562406078E+01 0.37070378310E+01 0.41525457154E+01 0.51045979326E+01