   8   8   0   0
  0.4972448E+02  0.8577010E-09  0.4554220E-09  0.1018381E-08  0.5000000E-15
  1.000000000000000E-004
  CAR 
 I                                       
     11.78336217    -13.13453517  301      1.57221549      1.00000000
    -13.135  0.0000E+00  0.0000E+00
    -13.051  0.0000E+00  0.0000E+00
    -12.968  0.0000E+00  0.0000E+00
    -12.885  0.0000E+00  0.0000E+00
    -12.802  0.0000E+00  0.0000E+00
    -12.719  0.0000E+00  0.0000E+00
    -12.636  0.0000E+00  0.0000E+00
    -12.553  0.0000E+00  0.0000E+00
    -12.470  0.0000E+00  0.0000E+00
    -12.387  0.0000E+00  0.0000E+00
    -12.304  0.0000E+00  0.0000E+00
    -12.221  0.2478E-10  0.2058E-11
    -12.138  0.8809E-05  0.7316E-06
    -12.055  0.2487E-01  0.2066E-02
    -11.972  0.1288E+01  0.1090E+00
    -11.889  0.6118E+01  0.6172E+00
    -11.806  0.9596E+01  0.1414E+01
    -11.723  0.1112E+02  0.2338E+01
    -11.639  0.1365E+02  0.3472E+01
    -11.556  0.2029E+02  0.5157E+01
    -11.473  0.2195E+02  0.6980E+01
    -11.390  0.1112E+02  0.7904E+01
    -11.307  0.1152E+01  0.8000E+01
    -11.224  0.5372E-02  0.8000E+01
    -11.141  0.3012E-06  0.8000E+01
    -11.058  0.1111E-12  0.8000E+01
    -10.975  0.0000E+00  0.8000E+01
    -10.892  0.0000E+00  0.8000E+01
    -10.809  0.0000E+00  0.8000E+01
    -10.726  0.0000E+00  0.8000E+01
    -10.643  0.9282E-17  0.8000E+01
    -10.560  0.1998E-09  0.8000E+01
    -10.477  0.2698E-04  0.8000E+01
    -10.394  0.3428E-01  0.8003E+01
    -10.311  0.1063E+01  0.8091E+01
    -10.227  0.3956E+01  0.8420E+01
    -10.144  0.5668E+01  0.8891E+01
    -10.061  0.6696E+01  0.9447E+01
     -9.978  0.8117E+01  0.1012E+02
     -9.895  0.1067E+02  0.1101E+02
     -9.812  0.1494E+02  0.1225E+02
     -9.729  0.1151E+02  0.1320E+02
     -9.646  0.8560E+01  0.1391E+02
     -9.563  0.7462E+01  0.1453E+02
     -9.480  0.6360E+01  0.1506E+02
     -9.397  0.5725E+01  0.1554E+02
     -9.314  0.4507E+01  0.1591E+02
     -9.231  0.1040E+01  0.1600E+02
     -9.148  0.1341E-01  0.1600E+02
     -9.065  0.2670E-05  0.1600E+02
     -8.982  0.4264E-11  0.1600E+02
     -8.898  0.0000E+00  0.1600E+02
     -8.815  0.0000E+00  0.1600E+02
     -8.732  0.0000E+00  0.1600E+02
     -8.649  0.0000E+00  0.1600E+02
     -8.566  0.0000E+00  0.1600E+02
     -8.483  0.0000E+00  0.1600E+02
     -8.400  0.0000E+00  0.1600E+02
     -8.317  0.0000E+00  0.1600E+02
     -8.234  0.0000E+00  0.1600E+02
     -8.151  0.0000E+00  0.1600E+02
     -8.068  0.0000E+00  0.1600E+02
     -7.985  0.0000E+00  0.1600E+02
     -7.902  0.0000E+00  0.1600E+02
     -7.819  0.0000E+00  0.1600E+02
     -7.736  0.0000E+00  0.1600E+02
     -7.653  0.0000E+00  0.1600E+02
     -7.570  0.0000E+00  0.1600E+02
     -7.486  0.0000E+00  0.1600E+02
     -7.403  0.0000E+00  0.1600E+02
     -7.320  0.0000E+00  0.1600E+02
     -7.237  0.0000E+00  0.1600E+02
     -7.154  0.0000E+00  0.1600E+02
     -7.071  0.0000E+00  0.1600E+02
     -6.988  0.0000E+00  0.1600E+02
     -6.905  0.0000E+00  0.1600E+02
     -6.822  0.0000E+00  0.1600E+02
     -6.739  0.0000E+00  0.1600E+02
     -6.656  0.0000E+00  0.1600E+02
     -6.573  0.0000E+00  0.1600E+02
     -6.490  0.0000E+00  0.1600E+02
     -6.407  0.0000E+00  0.1600E+02
     -6.324  0.0000E+00  0.1600E+02
     -6.241  0.0000E+00  0.1600E+02
     -6.158  0.0000E+00  0.1600E+02
     -6.074  0.0000E+00  0.1600E+02
     -5.991  0.0000E+00  0.1600E+02
     -5.908  0.0000E+00  0.1600E+02
     -5.825  0.0000E+00  0.1600E+02
     -5.742  0.0000E+00  0.1600E+02
     -5.659  0.0000E+00  0.1600E+02
     -5.576  0.0000E+00  0.1600E+02
     -5.493  0.0000E+00  0.1600E+02
     -5.410  0.0000E+00  0.1600E+02
     -5.327  0.0000E+00  0.1600E+02
     -5.244  0.0000E+00  0.1600E+02
     -5.161  0.0000E+00  0.1600E+02
     -5.078  0.0000E+00  0.1600E+02
     -4.995  0.0000E+00  0.1600E+02
     -4.912  0.0000E+00  0.1600E+02
     -4.829  0.0000E+00  0.1600E+02
     -4.746  0.0000E+00  0.1600E+02
     -4.662  0.0000E+00  0.1600E+02
     -4.579  0.0000E+00  0.1600E+02
     -4.496  0.0000E+00  0.1600E+02
     -4.413  0.0000E+00  0.1600E+02
     -4.330  0.0000E+00  0.1600E+02
     -4.247  0.0000E+00  0.1600E+02
     -4.164  0.0000E+00  0.1600E+02
     -4.081  0.0000E+00  0.1600E+02
     -3.998  0.0000E+00  0.1600E+02
     -3.915  0.0000E+00  0.1600E+02
     -3.832  0.0000E+00  0.1600E+02
     -3.749  0.0000E+00  0.1600E+02
     -3.666  0.0000E+00  0.1600E+02
     -3.583  0.0000E+00  0.1600E+02
     -3.500  0.7658E-16  0.1600E+02
     -3.417  0.1085E-08  0.1600E+02
     -3.333  0.9480E-04  0.1600E+02
     -3.250  0.8748E-01  0.1601E+02
     -3.167  0.2718E+01  0.1623E+02
     -3.084  0.1076E+02  0.1713E+02
     -3.001  0.1202E+02  0.1813E+02
     -2.918  0.9827E+01  0.1894E+02
     -2.835  0.1175E+02  0.1992E+02
     -2.752  0.9135E+01  0.2068E+02
     -2.669  0.6459E+01  0.2121E+02
     -2.586  0.6482E+01  0.2175E+02
     -2.503  0.3309E+01  0.2203E+02
     -2.420  0.3041E+01  0.2228E+02
     -2.337  0.4384E+01  0.2264E+02
     -2.254  0.2702E+01  0.2287E+02
     -2.171  0.2065E+01  0.2304E+02
     -2.088  0.2049E+01  0.2321E+02
     -2.005  0.2660E+01  0.2343E+02
     -1.921  0.1877E+01  0.2359E+02
     -1.838  0.1356E+01  0.2370E+02
     -1.755  0.2102E+01  0.2387E+02
     -1.672  0.4039E+01  0.2421E+02
     -1.589  0.4894E+01  0.2461E+02
     -1.506  0.5955E+01  0.2511E+02
     -1.423  0.6056E+01  0.2561E+02
     -1.340  0.7106E+01  0.2620E+02
     -1.257  0.7659E+01  0.2684E+02
     -1.174  0.9333E+01  0.2761E+02
     -1.091  0.9368E+01  0.2839E+02
     -1.008  0.1027E+02  0.2925E+02
     -0.925  0.1146E+02  0.3020E+02
     -0.842  0.1068E+02  0.3108E+02
     -0.759  0.1163E+02  0.3205E+02
     -0.676  0.1336E+02  0.3316E+02
     -0.593  0.1501E+02  0.3441E+02
     -0.509  0.1989E+02  0.3606E+02
     -0.426  0.1729E+02  0.3749E+02
     -0.343  0.1152E+02  0.3845E+02
     -0.260  0.8032E+01  0.3912E+02
     -0.177  0.6431E+01  0.3965E+02
     -0.094  0.6693E+01  0.4021E+02
     -0.011  0.7181E+01  0.4081E+02
      0.072  0.8797E+01  0.4154E+02
      0.155  0.9896E+01  0.4236E+02
      0.238  0.1089E+02  0.4326E+02
      0.321  0.9841E+01  0.4408E+02
      0.404  0.8701E+01  0.4480E+02
      0.487  0.1039E+02  0.4567E+02
      0.570  0.1165E+02  0.4663E+02
      0.653  0.1400E+02  0.4780E+02
      0.736  0.1622E+02  0.4914E+02
      0.819  0.1958E+02  0.5077E+02
      0.903  0.1819E+02  0.5228E+02
      0.986  0.1970E+02  0.5392E+02
      1.069  0.1570E+02  0.5522E+02
      1.152  0.5131E+01  0.5565E+02
      1.235  0.2678E+01  0.5587E+02
      1.318  0.1334E+01  0.5598E+02
      1.401  0.2276E+00  0.5600E+02
      1.484  0.2578E-02  0.5600E+02
      1.567  0.4770E-06  0.5600E+02
      1.650  0.6020E-12  0.5600E+02
      1.733  0.0000E+00  0.5600E+02
      1.816  0.0000E+00  0.5600E+02
      1.899  0.5312E-14  0.5600E+02
      1.982  0.3290E-07  0.5600E+02
      2.065  0.1164E-02  0.5600E+02
      2.148  0.3621E+00  0.5603E+02
      2.232  0.2525E+01  0.5624E+02
      2.315  0.2588E+01  0.5645E+02
      2.398  0.3366E+01  0.5673E+02
      2.481  0.2487E+01  0.5694E+02
      2.564  0.2819E+01  0.5718E+02
      2.647  0.7081E+01  0.5776E+02
      2.730  0.1043E+02  0.5863E+02
      2.813  0.6691E+01  0.5918E+02
      2.896  0.7649E+01  0.5982E+02
      2.979  0.6101E+01  0.6033E+02
      3.062  0.7494E+01  0.6095E+02
      3.145  0.7150E+01  0.6154E+02
      3.228  0.1228E+02  0.6256E+02
      3.311  0.1123E+02  0.6350E+02
      3.394  0.5570E+01  0.6396E+02
      3.477  0.4974E+00  0.6400E+02
      3.560  0.1848E-02  0.6400E+02
      3.644  0.7581E-07  0.6400E+02
      3.727  0.1949E-13  0.6400E+02
      3.810  0.0000E+00  0.6400E+02
      3.893  0.0000E+00  0.6400E+02
      3.976  0.0000E+00  0.6400E+02
      4.059  0.0000E+00  0.6400E+02
      4.142  0.0000E+00  0.6400E+02
      4.225  0.0000E+00  0.6400E+02
      4.308  0.0000E+00  0.6400E+02
      4.391  0.0000E+00  0.6400E+02
      4.474  0.0000E+00  0.6400E+02
      4.557  0.0000E+00  0.6400E+02
      4.640  0.0000E+00  0.6400E+02
      4.723  0.0000E+00  0.6400E+02
      4.806  0.0000E+00  0.6400E+02
      4.889  0.0000E+00  0.6400E+02
      4.972  0.0000E+00  0.6400E+02
      5.056  0.0000E+00  0.6400E+02
      5.139  0.0000E+00  0.6400E+02
      5.222  0.0000E+00  0.6400E+02
      5.305  0.0000E+00  0.6400E+02
      5.388  0.0000E+00  0.6400E+02
      5.471  0.0000E+00  0.6400E+02
      5.554  0.0000E+00  0.6400E+02
      5.637  0.0000E+00  0.6400E+02
      5.720  0.2197E-15  0.6400E+02
      5.803  0.1214E-08  0.6400E+02
      5.886  0.3655E-04  0.6400E+02
      5.969  0.9576E-02  0.6400E+02
      6.052  0.1141E+00  0.6401E+02
      6.135  0.3457E+00  0.6404E+02
      6.218  0.4380E+00  0.6408E+02
      6.301  0.6176E+00  0.6413E+02
      6.384  0.8653E+00  0.6420E+02
      6.468  0.9391E+00  0.6428E+02
      6.551  0.1424E+01  0.6439E+02
      6.634  0.1678E+01  0.6453E+02
      6.717  0.2138E+01  0.6471E+02
      6.800  0.2948E+01  0.6496E+02
      6.883  0.5056E+01  0.6538E+02
      6.966  0.6844E+01  0.6594E+02
      7.049  0.9110E+01  0.6670E+02
      7.132  0.8674E+01  0.6742E+02
      7.215  0.8572E+01  0.6813E+02
      7.298  0.7701E+01  0.6877E+02
      7.381  0.7845E+01  0.6943E+02
      7.464  0.8001E+01  0.7009E+02
      7.547  0.8292E+01  0.7078E+02
      7.630  0.8068E+01  0.7145E+02
      7.713  0.8064E+01  0.7212E+02
      7.796  0.9043E+01  0.7287E+02
      7.880  0.1241E+02  0.7390E+02
      7.963  0.1256E+02  0.7494E+02
      8.046  0.9726E+01  0.7575E+02
      8.129  0.9545E+01  0.7654E+02
      8.212  0.9583E+01  0.7734E+02
      8.295  0.9643E+01  0.7814E+02
      8.378  0.1134E+02  0.7908E+02
      8.461  0.1273E+02  0.8014E+02
      8.544  0.1120E+02  0.8107E+02
      8.627  0.1191E+02  0.8206E+02
      8.710  0.1027E+02  0.8291E+02
      8.793  0.9878E+01  0.8373E+02
      8.876  0.8999E+01  0.8448E+02
      8.959  0.9410E+01  0.8526E+02
      9.042  0.1027E+02  0.8612E+02
      9.125  0.1041E+02  0.8698E+02
      9.209  0.1291E+02  0.8805E+02
      9.292  0.1216E+02  0.8906E+02
      9.375  0.1022E+02  0.8991E+02
      9.458  0.9560E+01  0.9071E+02
      9.541  0.9977E+01  0.9154E+02
      9.624  0.8539E+01  0.9225E+02
      9.707  0.7476E+01  0.9287E+02
      9.790  0.7846E+01  0.9352E+02
      9.873  0.6844E+01  0.9409E+02
      9.956  0.5154E+01  0.9451E+02
     10.039  0.4266E+01  0.9487E+02
     10.122  0.4348E+01  0.9523E+02
     10.205  0.2597E+01  0.9545E+02
     10.288  0.2286E+01  0.9564E+02
     10.371  0.1712E+01  0.9578E+02
     10.454  0.1006E+01  0.9586E+02
     10.537  0.8073E+00  0.9593E+02
     10.621  0.5864E+00  0.9598E+02
     10.704  0.2614E+00  0.9600E+02
     10.787  0.1575E-01  0.9600E+02
     10.870  0.1310E-04  0.9600E+02
     10.953  0.6203E-10  0.9600E+02
     11.036  0.0000E+00  0.9600E+02
     11.119  0.0000E+00  0.9600E+02
     11.202  0.0000E+00  0.9600E+02
     11.285  0.0000E+00  0.9600E+02
     11.368  0.0000E+00  0.9600E+02
     11.451  0.0000E+00  0.9600E+02
     11.534  0.0000E+00  0.9600E+02
     11.617  0.0000E+00  0.9600E+02
     11.700  0.0000E+00  0.9600E+02
     11.783  0.0000E+00  0.9600E+02
