       N       E                     dE             d eps       ncg     rms          rms(c)
DAV:   1    -0.120612958386E+02   -0.12061E+02   -0.85742E-06 29904   0.939E-03    0.170E-03
DAV:   2    -0.120612958714E+02   -0.32789E-07   -0.55253E-07 25968   0.248E-03
   1 F= -.12061296E+02 E0= -.12061296E+02  d E =-.447285E-14
       N       E                     dE             ncg
DAV:   1     0.211272089692E+05   -0.99102E+05    14112
DAV:   2    -0.600110761002E+04   -0.27128E+05    21360
DAV:   3    -0.669702616172E+04   -0.69592E+03    15696
DAV:   4    -0.670471163715E+04   -0.76855E+01    27792
DAV:   5    -0.670471299371E+04   -0.13566E-02    20592
DAV:   6    -0.670471299931E+04   -0.56019E-05    27696
