Ne                                      
   1.00000000000000     
     4.622620    0.000000    0.000000
     0.000000    4.622620    0.000000
     0.000000    0.000000    4.622620
   Ne
     4
Direct
  0.000000  0.000000  0.000000
  0.000000  0.500000  0.500000
  0.500000  0.000000  0.500000
  0.500000  0.500000  0.000000
 
   48   48   48
  2127.6      2009.4      1687.5      1248.7      803.94      447.43      222.35      112.06      62.209      34.125    
  18.836      10.730      6.3074      3.7392      2.2200      1.3626     0.86938     0.54753     0.35593     0.28143    
 0.24425     0.18795     0.15243     0.17280     0.19547     0.17280     0.15243     0.18795     0.24425     0.28143    
 0.35593     0.54753     0.86938      1.3626      2.2200      3.7392      6.3074      10.730      18.836      34.125    
  62.209      112.06      222.35      447.43      803.94      1248.7      1687.5      2009.4      2009.4      1896.8    
  1590.4      1174.0      753.83      419.12      209.45      107.24      59.953      33.006      18.300      10.467    
  6.1721      3.6673      2.1819      1.3416     0.85724     0.54087     0.35105     0.27389     0.23263     0.17358    
 0.13539     0.15210     0.17280     0.15210     0.13539     0.17358     0.23263     0.27389     0.35105     0.54087    
 0.85724      1.3416      2.1819      3.6673      6.1721      10.467      18.300      33.006      59.953      107.24    
  209.45      419.12      753.83      1174.0      1590.4      1896.8      1687.5      1590.4      1327.5      973.17    
  620.53      344.88      176.18      94.590      53.725      29.908      16.803      9.7279      5.7869      3.4613    
  2.0725      1.2817     0.82370     0.52521     0.34445     0.26585     0.22079     0.16216     0.12382     0.13539    
 0.15243     0.13539     0.12382     0.16216     0.22079     0.26585     0.34445     0.52521     0.82370      1.2817    
  2.0725      3.4613      5.7869      9.7279      16.803      29.908      53.725      94.590      176.18      344.88    
  620.53      973.17      1327.5      1590.4      1248.7      1174.0      973.17      706.65      447.47      251.24    
  135.24      77.877      44.930      25.498      14.639      8.6370      5.2083      3.1480      1.9053      1.1911    
 0.77556     0.50787     0.34697     0.27557     0.23634     0.19022     0.16216     0.17358     0.18795     0.17358    
 0.16216     0.19022     0.23634     0.27557     0.34697     0.50787     0.77556      1.1911      1.9053      3.1480    
  5.2083      8.6370      14.639      25.498      44.930      77.877      135.24      251.24      447.47      706.65    
  973.17      1174.0      803.94      753.83      620.53      447.47      284.73      166.71      98.520      59.927    
  35.302      20.599      12.173      7.3568      4.5124      2.7658      1.7007      1.0823     0.72111     0.49260    
 0.35744     0.29703     0.26678     0.23634     0.22079     0.23263     0.24425     0.23263     0.22079     0.23634    
 0.26678     0.29703     0.35744     0.49260     0.72111      1.0823      1.7007      2.7658      4.5124      7.3568    
  12.173      20.599      35.302      59.927      98.520      166.71      284.73      447.47      620.53      753.83    
  447.43      419.12      344.88      251.24      166.71      107.23      69.523      43.364      26.326      15.917    
  9.7321      6.0409      3.7770      2.3567      1.4826     0.97038     0.67035     0.48397     0.37446     0.32286    
 0.29703     0.27557     0.26585     0.27389     0.28143     0.27389     0.26585     0.27557     0.29703     0.32286    
 0.37446     0.48397     0.67035     0.97038      1.4826      2.3567      3.7770      6.0409      9.7321      15.917    
  26.326      43.364      69.523      107.23      166.71      251.24      344.88      419.12      222.35      209.45    
  176.18      135.24      98.520      69.523      46.520      29.915      18.876      11.886      7.5337      4.8056    
  3.0688      1.9604      1.2750     0.87131     0.63576     0.49372     0.41259     0.37446     0.35744     0.34697    
 0.34445     0.35105     0.35593     0.35105     0.34445     0.34697     0.35744     0.37446     0.41259     0.49372    
 0.63576     0.87131      1.2750      1.9604      3.0688      4.8056      7.5337      11.886      18.876      29.915    
  46.520      69.523      98.520      135.24      176.18      209.45      112.06      107.24      94.590      77.877    
  59.927      43.364      29.915      20.011      13.191      8.6592      5.6812      3.7225      2.4368      1.6089    
  1.0984     0.79975     0.63054     0.53736     0.49372     0.48397     0.49260     0.50787     0.52521     0.54087    
 0.54753     0.54087     0.52521     0.50787     0.49260     0.48397     0.49372     0.53736     0.63054     0.79975    
  1.0984      1.6089      2.4368      3.7225      5.6812      8.6592      13.191      20.011      29.915      43.364    
  59.927      77.877      94.590      107.24      62.209      59.953      53.725      44.930      35.302      26.326    
  18.876      13.191      9.0810      6.1940      4.1939      2.8257      1.9114      1.3245     0.96899     0.76913    
 0.66831     0.63054     0.63576     0.67035     0.72111     0.77556     0.82370     0.85724     0.86938     0.85724    
 0.82370     0.77556     0.72111     0.67035     0.63576     0.63054     0.66831     0.76913     0.96899      1.3245    
  1.9114      2.8257      4.1939      6.1940      9.0810      13.191      18.876      26.326      35.302      44.930    
  53.725      59.953      34.125      33.006      29.908      25.498      20.599      15.917      11.886      8.6592    
  6.1940      4.3672      3.0475      2.1241      1.5069      1.1202     0.89977     0.79478     0.76913     0.79975    
 0.87131     0.97038      1.0823      1.1911      1.2817      1.3416      1.3626      1.3416      1.2817      1.1911    
  1.0823     0.97038     0.87131     0.79975     0.76913     0.79478     0.89977      1.1202      1.5069      2.1241    
  3.0475      4.3672      6.1940      8.6592      11.886      15.917      20.599      25.498      29.908      33.006    
  18.836      18.300      16.803      14.639      12.173      9.7321      7.5337      5.6812      4.1939      3.0475    
  2.2012      1.6093      1.2250      1.0032     0.90457     0.89977     0.96899      1.0984      1.2750      1.4826    
  1.7007      1.9053      2.0725      2.1819      2.2200      2.1819      2.0725      1.9053      1.7007      1.4826    
  1.2750      1.0984     0.96899     0.89977     0.90457      1.0032      1.2250      1.6093      2.2012      3.0475    
  4.1939      5.6812      7.5337      9.7321      12.173      14.639      16.803      18.300      10.730      10.467    
  9.7279      8.6370      7.3568      6.0409      4.8056      3.7225      2.8257      2.1241      1.6093      1.2627    
  1.0604     0.97972      1.0032      1.1202      1.3245      1.6089      1.9604      2.3567      2.7658      3.1480    
  3.4613      3.6673      3.7392      3.6673      3.4613      3.1480      2.7658      2.3567      1.9604      1.6089    
  1.3245      1.1202      1.0032     0.97972      1.0604      1.2627      1.6093      2.1241      2.8257      3.7225    
  4.8056      6.0409      7.3568      8.6370      9.7279      10.467      6.3074      6.1721      5.7869      5.2083    
  4.5124      3.7770      3.0688      2.4368      1.9114      1.5069      1.2250      1.0604      1.0065      1.0604    
  1.2250      1.5069      1.9114      2.4368      3.0688      3.7770      4.5124      5.2083      5.7869      6.1721    
  6.3074      6.1721      5.7869      5.2083      4.5124      3.7770      3.0688      2.4368      1.9114      1.5069    
  1.2250      1.0604      1.0065      1.0604      1.2250      1.5069      1.9114      2.4368      3.0688      3.7770    
  4.5124      5.2083      5.7869      6.1721      3.7392      3.6673      3.4613      3.1480      2.7658      2.3567    
  1.9604      1.6089      1.3245      1.1202      1.0032     0.97972      1.0604      1.2627      1.6093      2.1241    
  2.8257      3.7225      4.8056      6.0409      7.3568      8.6370      9.7279      10.467      10.730      10.467    
  9.7279      8.6370      7.3568      6.0409      4.8056      3.7225      2.8257      2.1241      1.6093      1.2627    
  1.0604     0.97972      1.0032      1.1202      1.3245      1.6089      1.9604      2.3567      2.7658      3.1480    
  3.4613      3.6673      2.2200      2.1819      2.0725      1.9053      1.7007      1.4826      1.2750      1.0984    
 0.96899     0.89977     0.90457      1.0032      1.2250      1.6093      2.2012      3.0475      4.1939      5.6812    
  7.5337      9.7321      12.173      14.639      16.803      18.300      18.836      18.300      16.803      14.639    
  12.173      9.7321      7.5337      5.6812      4.1939      3.0475      2.2012      1.6093      1.2250      1.0032    
 0.90457     0.89977     0.96899      1.0984      1.2750      1.4826      1.7007      1.9053      2.0725      2.1819    
  1.3626      1.3416      1.2817      1.1911      1.0823     0.97038     0.87131     0.79975     0.76913     0.79478    
 0.89977      1.1202      1.5069      2.1241      3.0475      4.3672      6.1940      8.6592      11.886      15.917    
  20.599      25.498      29.908      33.006      34.125      33.006      29.908      25.498      20.599      15.917    
  11.886      8.6592      6.1940      4.3672      3.0475      2.1241      1.5069      1.1202     0.89977     0.79478    
 0.76913     0.79975     0.87131     0.97038      1.0823      1.1911      1.2817      1.3416     0.86938     0.85724    
 0.82370     0.77556     0.72111     0.67035     0.63576     0.63054     0.66831     0.76913     0.96899      1.3245    
  1.9114      2.8257      4.1939      6.1940      9.0810      13.191      18.876      26.326      35.302      44.930    
  53.725      59.953      62.209      59.953      53.725      44.930      35.302      26.326      18.876      13.191    
  9.0810      6.1940      4.1939      2.8257      1.9114      1.3245     0.96899     0.76913     0.66831     0.63054    
 0.63576     0.67035     0.72111     0.77556     0.82370     0.85724     0.54753     0.54087     0.52521     0.50787    
 0.49260     0.48397     0.49372     0.53736     0.63054     0.79975      1.0984      1.6089      2.4368      3.7225    
  5.6812      8.6592      13.191      20.011      29.915      43.364      59.927      77.877      94.590      107.24    
  112.06      107.24      94.590      77.877      59.927      43.364      29.915      20.011      13.191      8.6592    
  5.6812      3.7225      2.4368      1.6089      1.0984     0.79975     0.63054     0.53736     0.49372     0.48397    
 0.49260     0.50787     0.52521     0.54087     0.35593     0.35105     0.34445     0.34697     0.35744     0.37446    
 0.41259     0.49372     0.63576     0.87131      1.2750      1.9604      3.0688      4.8056      7.5337      11.886    
  18.876      29.915      46.520      69.523      98.520      135.24      176.18      209.45      222.35      209.45    
  176.18      135.24      98.520      69.523      46.520      29.915      18.876      11.886      7.5337      4.8056    
  3.0688      1.9604      1.2750     0.87131     0.63576     0.49372     0.41259     0.37446     0.35744     0.34697    
 0.34445     0.35105     0.28143     0.27389     0.26585     0.27557     0.29703     0.32286     0.37446     0.48397    
 0.67035     0.97038      1.4826      2.3567      3.7770      6.0409      9.7321      15.917      26.326      43.364    
  69.523      107.23      166.71      251.24      344.88      419.12      447.43      419.12      344.88      251.24    
  166.71      107.23      69.523      43.364      26.326      15.917      9.7321      6.0409      3.7770      2.3567    
  1.4826     0.97038     0.67035     0.48397     0.37446     0.32286     0.29703     0.27557     0.26585     0.27389    
 0.24425     0.23263     0.22079     0.23634     0.26678     0.29703     0.35744     0.49260     0.72111      1.0823    
  1.7007      2.7658      4.5124      7.3568      12.173      20.599      35.302      59.927      98.520      166.71    
  284.73      447.47      620.53      753.83      803.94      753.83      620.53      447.47      284.73      166.71    
  98.520      59.927      35.302      20.599      12.173      7.3568      4.5124      2.7658      1.7007      1.0823    
 0.72111     0.49260     0.35744     0.29703     0.26678     0.23634     0.22079     0.23263     0.18795     0.17358    
 0.16216     0.19022     0.23634     0.27557     0.34697     0.50787     0.77556      1.1911      1.9053      3.1480    
  5.2083      8.6370      14.639      25.498      44.930      77.877      135.24      251.24      447.47      706.65    
  973.17      1174.0      1248.7      1174.0      973.17      706.65      447.47      251.24      135.24      77.877    
  44.930      25.498      14.639      8.6370      5.2083      3.1480      1.9053      1.1911     0.77556     0.50787    
 0.34697     0.27557     0.23634     0.19022     0.16216     0.17358     0.15243     0.13539     0.12382     0.16216    
 0.22079     0.26585     0.34445     0.52521     0.82370      1.2817      2.0725      3.4613      5.7869      9.7279    
  16.803      29.908      53.725      94.590      176.18      344.88      620.53      973.17      1327.5      1590.4    
  1687.5      1590.4      1327.5      973.17      620.53      344.88      176.18      94.590      53.725      29.908    
  16.803      9.7279      5.7869      3.4613      2.0725      1.2817     0.82370     0.52521     0.34445     0.26585    
 0.22079     0.16216     0.12382     0.13539     0.17280     0.15210     0.13539     0.17358     0.23263     0.27389    
 0.35105     0.54087     0.85724      1.3416      2.1819      3.6673      6.1721      10.467      18.300      33.006    
  59.953      107.24      209.45      419.12      753.83      1174.0      1590.4      1896.8      2009.4      1896.8    
  1590.4      1174.0      753.83      419.12      209.45      107.24      59.953      33.006      18.300      10.467    
  6.1721      3.6673      2.1819      1.3416     0.85724     0.54087     0.35105     0.27389     0.23263     0.17358    
 0.13539     0.15210     0.19547     0.17280     0.15243     0.18795     0.24425     0.28143     0.35593     0.54753    
 0.86938      1.3626      2.2200      3.7392      6.3074      10.730      18.836      34.125      62.209      112.06    
  222.35      447.43      803.94      1248.7      1687.5      2009.4      2127.6      2009.4      1687.5      1248.7    
  803.94      447.43      222.35      112.06      62.209      34.125      18.836      10.730      6.3074      3.7392    
  2.2200      1.3626     0.86938     0.54753     0.35593     0.28143     0.24425     0.18795     0.15243     0.17280    
 0.17280     0.15210     0.13539     0.17358     0.23263     0.27389     0.35105     0.54087     0.85724      1.3416    
  2.1819      3.6673      6.1721      10.467      18.300      33.006      59.953      107.24      209.45      419.12    
  753.83      1174.0      1590.4      1896.8      2009.4      1896.8      1590.4      1174.0      753.83      419.12    
  209.45      107.24      59.953      33.006      18.300      10.467      6.1721      3.6673      2.1819      1.3416    
 0.85724     0.54087     0.35105     0.27389     0.23263     0.17358     0.13539     0.15210     0.15243     0.13539    
 0.12382     0.16216     0.22079     0.26585     0.34445     0.52521     0.82370      1.2817      2.0725      3.4613    
  5.7869      9.7279      16.803      29.908      53.725      94.590      176.18      344.88      620.53      973.17    
  1327.5      1590.4      1687.5      1590.4      1327.5      973.17      620.53      344.88      176.18      94.590    
  53.725      29.908      16.803      9.7279      5.7869      3.4613      2.0725      1.2817     0.82370     0.52521    
 0.34445     0.26585     0.22079     0.16216     0.12382     0.13539     0.18795     0.17358     0.16216     0.19022    
 0.23634     0.27557     0.34697     0.50787     0.77556      1.1911      1.9053      3.1480      5.2083      8.6370    
  14.639      25.498      44.930      77.877      135.24      251.24      447.47      706.65      973.17      1174.0    
  1248.7      1174.0      973.17      706.65      447.47      251.24      135.24      77.877      44.930      25.498    
  14.639      8.6370      5.2083      3.1480      1.9053      1.1911     0.77556     0.50787     0.34697     0.27557    
 0.23634     0.19022     0.16216     0.17358     0.24425     0.23263     0.22079     0.23634     0.26678     0.29703    
 0.35744     0.49260     0.72111      1.0823      1.7007      2.7658      4.5124      7.3568      12.173      20.599    
  35.302      59.927      98.520      166.71      284.73      447.47      620.53      753.83      803.94      753.83    
  620.53      447.47      284.73      166.71      98.520      59.927      35.302      20.599      12.173      7.3568    
  4.5124      2.7658      1.7007      1.0823     0.72111     0.49260     0.35744     0.29703     0.26678     0.23634    
 0.22079     0.23263     0.28143     0.27389     0.26585     0.27557     0.29703     0.32286     0.37446     0.48397    
 0.67035     0.97038      1.4826      2.3567      3.7770      6.0409      9.7321      15.917      26.326      43.364    
  69.523      107.23      166.71      251.24      344.88      419.12      447.43      419.12      344.88      251.24    
  166.71      107.23      69.523      43.364      26.326      15.917      9.7321      6.0409      3.7770      2.3567    
  1.4826     0.97038     0.67035     0.48397     0.37446     0.32286     0.29703     0.27557     0.26585     0.27389    
 0.35593     0.35105     0.34445     0.34697     0.35744     0.37446     0.41259     0.49372     0.63576     0.87131    
  1.2750      1.9604      3.0688      4.8056      7.5337      11.886      18.876      29.915      46.520      69.523    
  98.520      135.24      176.18      209.45      222.35      209.45      176.18      135.24      98.520      69.523    
  46.520      29.915      18.876      11.886      7.5337      4.8056      3.0688      1.9604      1.2750     0.87131    
 0.63576     0.49372     0.41259     0.37446     0.35744     0.34697     0.34445     0.35105     0.54753     0.54087    
 0.52521     0.50787     0.49260     0.48397     0.49372     0.53736     0.63054     0.79975      1.0984      1.6089    
  2.4368      3.7225      5.6812      8.6592      13.191      20.011      29.915      43.364      59.927      77.877    
  94.590      107.24      112.06      107.24      94.590      77.877      59.927      43.364      29.915      20.011    
  13.191      8.6592      5.6812      3.7225      2.4368      1.6089      1.0984     0.79975     0.63054     0.53736    
 0.49372     0.48397     0.49260     0.50787     0.52521     0.54087     0.86938     0.85724     0.82370     0.77556    
 0.72111     0.67035     0.63576     0.63054     0.66831     0.76913     0.96899      1.3245      1.9114      2.8257    
  4.1939      6.1940      9.0810      13.191      18.876      26.326      35.302      44.930      53.725      59.953    
  62.209      59.953      53.725      44.930      35.302      26.326      18.876      13.191      9.0810      6.1940    
  4.1939      2.8257      1.9114      1.3245     0.96899     0.76913     0.66831     0.63054     0.63576     0.67035    
 0.72111     0.77556     0.82370     0.85724      1.3626      1.3416      1.2817      1.1911      1.0823     0.97038    
 0.87131     0.79975     0.76913     0.79478     0.89977      1.1202      1.5069      2.1241      3.0475      4.3672    
  6.1940      8.6592      11.886      15.917      20.599      25.498      29.908      33.006      34.125      33.006    
  29.908      25.498      20.599      15.917      11.886      8.6592      6.1940      4.3672      3.0475      2.1241    
  1.5069      1.1202     0.89977     0.79478     0.76913     0.79975     0.87131     0.97038      1.0823      1.1911    
  1.2817      1.3416      2.2200      2.1819      2.0725      1.9053      1.7007      1.4826      1.2750      1.0984    
 0.96899     0.89977     0.90457      1.0032      1.2250      1.6093      2.2012      3.0475      4.1939      5.6812    
  7.5337      9.7321      12.173      14.639      16.803      18.300      18.836      18.300      16.803      14.639    
  12.173      9.7321      7.5337      5.6812      4.1939      3.0475      2.2012      1.6093      1.2250      1.0032    
 0.90457     0.89977     0.96899      1.0984      1.2750      1.4826      1.7007      1.9053      2.0725      2.1819    
  3.7392      3.6673      3.4613      3.1480      2.7658      2.3567      1.9604      1.6089      1.3245      1.1202    
  1.0032     0.97972      1.0604      1.2627      1.6093      2.1241      2.8257      3.7225      4.8056      6.0409    
  7.3568      8.6370      9.7279      10.467      10.730      10.467      9.7279      8.6370      7.3568      6.0409    
  4.8056      3.7225      2.8257      2.1241      1.6093      1.2627      1.0604     0.97972      1.0032      1.1202    
  1.3245      1.6089      1.9604      2.3567      2.7658      3.1480      3.4613      3.6673      6.3074      6.1721    
  5.7869      5.2083      4.5124      3.7770      3.0688      2.4368      1.9114      1.5069      1.2250      1.0604    
  1.0065      1.0604      1.2250      1.5069      1.9114      2.4368      3.0688      3.7770      4.5124      5.2083    
  5.7869      6.1721      6.3074      6.1721      5.7869      5.2083      4.5124      3.7770      3.0688      2.4368    
  1.9114      1.5069      1.2250      1.0604      1.0065      1.0604      1.2250      1.5069      1.9114      2.4368    
  3.0688      3.7770      4.5124      5.2083      5.7869      6.1721      10.730      10.467      9.7279      8.6370    
  7.3568      6.0409      4.8056      3.7225      2.8257      2.1241      1.6093      1.2627      1.0604     0.97972    
  1.0032      1.1202      1.3245      1.6089      1.9604      2.3567      2.7658      3.1480      3.4613      3.6673    
  3.7392      3.6673      3.4613      3.1480      2.7658      2.3567      1.9604      1.6089      1.3245      1.1202    
  1.0032     0.97972      1.0604      1.2627      1.6093      2.1241      2.8257      3.7225      4.8056      6.0409    
  7.3568      8.6370      9.7279      10.467      18.836      18.300      16.803      14.639      12.173      9.7321    
  7.5337      5.6812      4.1939      3.0475      2.2012      1.6093      1.2250      1.0032     0.90457     0.89977    
 0.96899      1.0984      1.2750      1.4826      1.7007      1.9053      2.0725      2.1819      2.2200      2.1819    
  2.0725      1.9053      1.7007      1.4826      1.2750      1.0984     0.96899     0.89977     0.90457      1.0032    
  1.2250      1.6093      2.2012      3.0475      4.1939      5.6812      7.5337      9.7321      12.173      14.639    
  16.803      18.300      34.125      33.006      29.908      25.498      20.599      15.917      11.886      8.6592    
  6.1940      4.3672      3.0475      2.1241      1.5069      1.1202     0.89977     0.79478     0.76913     0.79975    
 0.87131     0.97038      1.0823      1.1911      1.2817      1.3416      1.3626      1.3416      1.2817      1.1911    
  1.0823     0.97038     0.87131     0.79975     0.76913     0.79478     0.89977      1.1202      1.5069      2.1241    
  3.0475      4.3672      6.1940      8.6592      11.886      15.917      20.599      25.498      29.908      33.006    
  62.209      59.953      53.725      44.930      35.302      26.326      18.876      13.191      9.0810      6.1940    
  4.1939      2.8257      1.9114      1.3245     0.96899     0.76913     0.66831     0.63054     0.63576     0.67035    
 0.72111     0.77556     0.82370     0.85724     0.86938     0.85724     0.82370     0.77556     0.72111     0.67035    
 0.63576     0.63054     0.66831     0.76913     0.96899      1.3245      1.9114      2.8257      4.1939      6.1940    
  9.0810      13.191      18.876      26.326      35.302      44.930      53.725      59.953      112.06      107.24    
  94.590      77.877      59.927      43.364      29.915      20.011      13.191      8.6592      5.6812      3.7225    
  2.4368      1.6089      1.0984     0.79975     0.63054     0.53736     0.49372     0.48397     0.49260     0.50787    
 0.52521     0.54087     0.54753     0.54087     0.52521     0.50787     0.49260     0.48397     0.49372     0.53736    
 0.63054     0.79975      1.0984      1.6089      2.4368      3.7225      5.6812      8.6592      13.191      20.011    
  29.915      43.364      59.927      77.877      94.590      107.24      222.35      209.45      176.18      135.24    
  98.520      69.523      46.520      29.915      18.876      11.886      7.5337      4.8056      3.0688      1.9604    
  1.2750     0.87131     0.63576     0.49372     0.41259     0.37446     0.35744     0.34697     0.34445     0.35105    
 0.35593     0.35105     0.34445     0.34697     0.35744     0.37446     0.41259     0.49372     0.63576     0.87131    
  1.2750      1.9604      3.0688      4.8056      7.5337      11.886      18.876      29.915      46.520      69.523    
  98.520      135.24      176.18      209.45      447.43      419.12      344.88      251.24      166.71      107.23    
  69.523      43.364      26.326      15.917      9.7321      6.0409      3.7770      2.3567      1.4826     0.97038    
 0.67035     0.48397     0.37446     0.32286     0.29703     0.27557     0.26585     0.27389     0.28143     0.27389    
 0.26585     0.27557     0.29703     0.32286     0.37446     0.48397     0.67035     0.97038      1.4826      2.3567    
  3.7770      6.0409      9.7321      15.917      26.326      43.364      69.523      107.23      166.71      251.24    
  344.88      419.12      803.94      753.83      620.53      447.47      284.73      166.71      98.520      59.927    
  35.302      20.599      12.173      7.3568      4.5124      2.7658      1.7007      1.0823     0.72111     0.49260    
 0.35744     0.29703     0.26678     0.23634     0.22079     0.23263     0.24425     0.23263     0.22079     0.23634    
 0.26678     0.29703     0.35744     0.49260     0.72111      1.0823      1.7007      2.7658      4.5124      7.3568    
  12.173      20.599      35.302      59.927      98.520      166.71      284.73      447.47      620.53      753.83    
  1248.7      1174.0      973.17      706.65      447.47      251.24      135.24      77.877      44.930      25.498    
  14.639      8.6370      5.2083      3.1480      1.9053      1.1911     0.77556     0.50787     0.34697     0.27557    
 0.23634     0.19022     0.16216     0.17358     0.18795     0.17358     0.16216     0.19022     0.23634     0.27557    
 0.34697     0.50787     0.77556      1.1911      1.9053      3.1480      5.2083      8.6370      14.639      25.498    
  44.930      77.877      135.24      251.24      447.47      706.65      973.17      1174.0      1687.5      1590.4    
  1327.5      973.17      620.53      344.88      176.18      94.590      53.725      29.908      16.803      9.7279    
  5.7869      3.4613      2.0725      1.2817     0.82370     0.52521     0.34445     0.26585     0.22079     0.16216    
 0.12382     0.13539     0.15243     0.13539     0.12382     0.16216     0.22079     0.26585     0.34445     0.52521    
 0.82370      1.2817      2.0725      3.4613      5.7869      9.7279      16.803      29.908      53.725      94.590    
  176.18      344.88      620.53      973.17      1327.5      1590.4      2009.4      1896.8      1590.4      1174.0    
  753.83      419.12      209.45      107.24      59.953      33.006      18.300      10.467      6.1721      3.6673    
  2.1819      1.3416     0.85724     0.54087     0.35105     0.27389     0.23263     0.17358     0.13539     0.15210    
 0.17280     0.15210     0.13539     0.17358     0.23263     0.27389     0.35105     0.54087     0.85724      1.3416    
  2.1819      3.6673      6.1721      10.467      18.300      33.006      59.953      107.24      209.45      419.12    
  753.83      1174.0      1590.4      1896.8      2009.4      1896.8      1590.4      1174.0      753.83      419.12    
  209.45      107.24      59.953      33.006      18.300      10.467      6.1721      3.6673      2.1819      1.3416    
 0.85724     0.54087     0.35105     0.27389     0.23263     0.17358     0.13539     0.15210     0.17280     0.15210    
 0.13539     0.17358     0.23263     0.27389     0.35105     0.54087     0.85724      1.3416      2.1819      3.6673    
  6.1721      10.467      18.300      33.006      59.953      107.24      209.45      419.12      753.83      1174.0    
  1590.4      1896.8      1896.8      1789.6      1498.2      1103.3      706.64      392.65      197.50      102.74    
  57.789      31.932      17.782      10.213      6.0403      3.5970      2.1447      1.3211     0.84542     0.53449    
 0.34656     0.26705     0.22209     0.16057     0.11997     0.13326     0.15210     0.13326     0.11997     0.16057    
 0.22209     0.26705     0.34656     0.53449     0.84542      1.3211      2.1447      3.5970      6.0403      10.213    
  17.782      31.932      57.789      102.74      197.50      392.65      706.64      1103.3      1498.2      1789.6    
  1590.4      1498.2      1248.6      913.44      581.33      323.37      166.68      90.879      51.816      28.955    
  16.339      9.4962      5.6651      3.3957      2.0375      1.2624     0.81268     0.51943     0.34067     0.26028    
 0.21222     0.15167     0.11136     0.11997     0.13539     0.11997     0.11136     0.15167     0.21222     0.26028    
 0.34067     0.51943     0.81268      1.2624      2.0375      3.3957      5.6651      9.4962      16.339      28.955    
  51.816      90.879      166.68      323.37      581.33      913.44      1248.6      1498.2      1174.0      1103.3    