Ne                                      
   1.00000000000000     
     4.622620    0.000000    0.000000
     0.000000    4.622620    0.000000
     0.000000    0.000000    4.622620
   Ne
     4
Direct
  0.000000  0.000000  0.000000
  0.000000  0.500000  0.500000
  0.500000  0.000000  0.500000
  0.500000  0.500000  0.000000
 
   48   48   48
 0.21275747925E+04 0.20094283101E+04 0.16875106164E+04 0.12486806433E+04 0.80393606934E+03
 0.44743210050E+03 0.22234682505E+03 0.11205857722E+03 0.62209380723E+02 0.34124826821E+02
 0.18835962713E+02 0.10729837925E+02 0.63074225613E+01 0.37392235147E+01 0.22200061664E+01
 0.13625673777E+01 0.86937779165E+00 0.54752584926E+00 0.35593168333E+00 0.28143086301E+00
 0.24424675686E+00 0.18794500533E+00 0.15242557639E+00 0.17280169687E+00 0.19546617656E+00
 0.17280169687E+00 0.15242557639E+00 0.18794500533E+00 0.24424675686E+00 0.28143086301E+00
 0.35593168333E+00 0.54752584926E+00 0.86937779165E+00 0.13625673777E+01 0.22200061664E+01
 0.37392235147E+01 0.63074225613E+01 0.10729837925E+02 0.18835962713E+02 0.34124826821E+02
 0.62209380723E+02 0.11205857722E+03 0.22234682505E+03 0.44743210050E+03 0.80393606934E+03
 0.12486806433E+04 0.16875106164E+04 0.20094283101E+04 0.20094283101E+04 0.18968165190E+04
 0.15904292678E+04 0.11739931663E+04 0.75382751708E+03 0.41911532859E+03 0.20945475766E+03
 0.10723729004E+03 0.59953063644E+02 0.33006203649E+02 0.18299606488E+02 0.10467456799E+02
 0.61720668581E+01 0.36673118015E+01 0.21819379054E+01 0.13416219824E+01 0.85723960613E+00
 0.54086522879E+00 0.35104720611E+00 0.27388966200E+00 0.23263422818E+00 0.17357514626E+00
 0.13538713327E+00 0.15210129333E+00 0.17280169687E+00 0.15210129333E+00 0.13538713326E+00
 0.17357514626E+00 0.23263422818E+00 0.27388966200E+00 0.35104720611E+00 0.54086522879E+00
 0.85723960613E+00 0.13416219824E+01 0.21819379054E+01 0.36673118015E+01 0.61720668581E+01
 0.10467456799E+02 0.18299606488E+02 0.33006203649E+02 0.59953063644E+02 0.10723729004E+03
 0.20945475766E+03 0.41911532859E+03 0.75382751708E+03 0.11739931663E+04 0.15904292678E+04
 0.18968165190E+04 0.16875106164E+04 0.15904292678E+04 0.13274550824E+04 0.97317109482E+03
 0.62053288347E+03 0.34487550412E+03 0.17617677969E+03 0.94589758154E+02 0.53724719524E+02
 0.29908088913E+02 0.16802964316E+02 0.97279310559E+01 0.57869071538E+01 0.34612880407E+01
 0.20724917359E+01 0.12817027365E+01 0.82369795241E+00 0.52520898011E+00 0.34445137930E+00
 0.26585470234E+00 0.22078989182E+00 0.16216134966E+00 0.12382041769E+00 0.13538713327E+00
 0.15242557639E+00 0.13538713327E+00 0.12382041769E+00 0.16216134966E+00 0.22078989182E+00
 0.26585470234E+00 0.34445137930E+00 0.52520898011E+00 0.82369795241E+00 0.12817027365E+01
 0.20724917359E+01 0.34612880407E+01 0.57869071538E+01 0.97279310559E+01 0.16802964316E+02
 0.29908088913E+02 0.53724719524E+02 0.94589758154E+02 0.17617677969E+03 0.34487550412E+03
 0.62053288347E+03 0.97317109482E+03 0.13274550824E+04 0.15904292678E+04 0.12486806433E+04
 0.11739931663E+04 0.97317109482E+03 0.70665146746E+03 0.44746519951E+03 0.25124193928E+03
 0.13524255116E+03 0.77876792212E+02 0.44929554385E+02 0.25498337059E+02 0.14638944375E+02
 0.86370145342E+01 0.52083175448E+01 0.31480386729E+01 0.19052658380E+01 0.11910889604E+01
 0.77556137592E+00 0.50786848827E+00 0.34697116004E+00 0.27557202023E+00 0.23634498858E+00
 0.19022282792E+00 0.16216134966E+00 0.17357514626E+00 0.18794500533E+00 0.17357514626E+00
 0.16216134966E+00 0.19022282792E+00 0.23634498858E+00 0.27557202023E+00 0.34697116004E+00
 0.50786848827E+00 0.77556137592E+00 0.11910889604E+01 0.19052658380E+01 0.31480386729E+01
 0.52083175448E+01 0.86370145342E+01 0.14638944375E+02 0.25498337059E+02 0.44929554385E+02
 0.77876792212E+02 0.13524255116E+03 0.25124193928E+03 0.44746519951E+03 0.70665146746E+03
 0.97317109482E+03 0.11739931663E+04 0.80393606934E+03 0.75382751708E+03 0.62053288347E+03
 0.44746519951E+03 0.28473421467E+03 0.16671037802E+03 0.98519911635E+02 0.59927216304E+02
 0.35302048971E+02 0.20598838898E+02 0.12173365975E+02 0.73568120749E+01 0.45123578313E+01
 0.27657817281E+01 0.17006531850E+01 0.10822660915E+01 0.72110816999E+00 0.49260441220E+00
 0.35743739428E+00 0.29703228197E+00 0.26678137835E+00 0.23634498858E+00 0.22078989182E+00
 0.23263422818E+00 0.24424675686E+00 0.23263422818E+00 0.22078989182E+00 0.23634498858E+00
 0.26678137835E+00 0.29703228197E+00 0.35743739428E+00 0.49260441220E+00 0.72110816999E+00
 0.10822660915E+01 0.17006531850E+01 0.27657817281E+01 0.45123578313E+01 0.73568120749E+01
 0.12173365975E+02 0.20598838898E+02 0.35302048971E+02 0.59927216304E+02 0.98519911635E+02
 0.16671037802E+03 0.28473421467E+03 0.44746519951E+03 0.62053288347E+03 0.75382751708E+03
 0.44743210050E+03 0.41911532859E+03 0.34487550412E+03 0.25124193928E+03 0.16671037802E+03
 0.10722555957E+03 0.69523357610E+02 0.43363939278E+02 0.26325864298E+02 0.15916799978E+02
 0.97321461001E+01 0.60409444172E+01 0.37769787991E+01 0.23567393520E+01 0.14826180040E+01
 0.97038472084E+00 0.67035329984E+00 0.48397280431E+00 0.37446148856E+00 0.32285911833E+00
 0.29703228197E+00 0.27557202023E+00 0.26585470234E+00 0.27388966200E+00 0.28143086301E+00
 0.27388966200E+00 0.26585470234E+00 0.27557202023E+00 0.29703228197E+00 0.32285911833E+00
 0.37446148856E+00 0.48397280431E+00 0.67035329984E+00 0.97038472084E+00 0.14826180040E+01
 0.23567393520E+01 0.37769787991E+01 0.60409444172E+01 0.97321461001E+01 0.15916799978E+02
 0.26325864298E+02 0.43363939278E+02 0.69523357610E+02 0.10722555957E+03 0.16671037802E+03
 0.25124193928E+03 0.34487550412E+03 0.41911532859E+03 0.22234682505E+03 0.20945475766E+03
 0.17617677969E+03 0.13524255116E+03 0.98519911635E+02 0.69523357610E+02 0.46519556650E+02
 0.29914652556E+02 0.18876207080E+02 0.11886462557E+02 0.75337212482E+01 0.48056396400E+01
 0.30687961173E+01 0.19604336194E+01 0.12749907420E+01 0.87131116912E+00 0.63575662238E+00
 0.49371628687E+00 0.41258524443E+00 0.37446148856E+00 0.35743739428E+00 0.34697116004E+00
 0.34445137930E+00 0.35104720611E+00 0.35593168333E+00 0.35104720611E+00 0.34445137930E+00
 0.34697116004E+00 0.35743739428E+00 0.37446148856E+00 0.41258524443E+00 0.49371628687E+00
 0.63575662238E+00 0.87131116912E+00 0.12749907420E+01 0.19604336194E+01 0.30687961173E+01
 0.48056396400E+01 0.75337212482E+01 0.11886462557E+02 0.18876207080E+02 0.29914652556E+02
 0.46519556650E+02 0.69523357610E+02 0.98519911635E+02 0.13524255116E+03 0.17617677969E+03
 0.20945475766E+03 0.11205857722E+03 0.10723729004E+03 0.94589758154E+02 0.77876792212E+02
 0.59927216304E+02 0.43363939278E+02 0.29914652556E+02 0.20011150757E+02 0.13190980215E+02
 0.86592284458E+01 0.56811533157E+01 0.37224568109E+01 0.24367819830E+01 0.16089105753E+01
 0.10983984110E+01 0.79975166713E+00 0.63053900868E+00 0.53735817292E+00 0.49371628687E+00
 0.48397280431E+00 0.49260441220E+00 0.50786848827E+00 0.52520898011E+00 0.54086522879E+00
 0.54752584926E+00 0.54086522879E+00 0.52520898011E+00 0.50786848827E+00 0.49260441220E+00
 0.48397280431E+00 0.49371628687E+00 0.53735817292E+00 0.63053900868E+00 0.79975166713E+00
 0.10983984110E+01 0.16089105753E+01 0.24367819830E+01 0.37224568109E+01 0.56811533157E+01
 0.86592284458E+01 0.13190980215E+02 0.20011150757E+02 0.29914652556E+02 0.43363939278E+02
 0.59927216304E+02 0.77876792212E+02 0.94589758154E+02 0.10723729004E+03 0.62209380723E+02
 0.59953063644E+02 0.53724719524E+02 0.44929554385E+02 0.35302048971E+02 0.26325864298E+02
 0.18876207080E+02 0.13190980215E+02 0.90809601836E+01 0.61939606624E+01 0.41938583279E+01
 0.28257419867E+01 0.19114247434E+01 0.13244711809E+01 0.96898879783E+00 0.76912694541E+00
 0.66830697840E+00 0.63053900868E+00 0.63575662238E+00 0.67035329984E+00 0.72110816999E+00
 0.77556137592E+00 0.82369795241E+00 0.85723960613E+00 0.86937779165E+00 0.85723960613E+00
 0.82369795241E+00 0.77556137592E+00 0.72110816999E+00 0.67035329984E+00 0.63575662238E+00
 0.63053900868E+00 0.66830697839E+00 0.76912694541E+00 0.96898879783E+00 0.13244711809E+01
 0.19114247434E+01 0.28257419867E+01 0.41938583279E+01 0.61939606624E+01 0.90809601836E+01
 0.13190980215E+02 0.18876207080E+02 0.26325864298E+02 0.35302048971E+02 0.44929554385E+02
 0.53724719524E+02 0.59953063644E+02 0.34124826821E+02 0.33006203649E+02 0.29908088913E+02
 0.25498337059E+02 0.20598838898E+02 0.15916799978E+02 0.11886462557E+02 0.86592284458E+01
 0.61939606624E+01 0.43671514594E+01 0.30474689824E+01 0.21240793706E+01 0.15069157996E+01
 0.11201871427E+01 0.89977113872E+00 0.79477655829E+00 0.76912694541E+00 0.79975166713E+00
 0.87131116912E+00 0.97038472084E+00 0.10822660915E+01 0.11910889604E+01 0.12817027365E+01
 0.13416219824E+01 0.13625673777E+01 0.13416219824E+01 0.12817027365E+01 0.11910889604E+01
 0.10822660915E+01 0.97038472084E+00 0.87131116912E+00 0.79975166713E+00 0.76912694541E+00
 0.79477655829E+00 0.89977113872E+00 0.11201871427E+01 0.15069157996E+01 0.21240793706E+01
 0.30474689824E+01 0.43671514594E+01 0.61939606624E+01 0.86592284458E+01 0.11886462557E+02
 0.15916799978E+02 0.20598838898E+02 0.25498337059E+02 0.29908088913E+02 0.33006203649E+02
 0.18835962713E+02 0.18299606488E+02 0.16802964316E+02 0.14638944375E+02 0.12173365975E+02
 0.97321461001E+01 0.75337212482E+01 0.56811533157E+01 0.41938583279E+01 0.30474689824E+01
 0.22011519258E+01 0.16092964246E+01 0.12250373897E+01 0.10031692471E+01 0.90456814692E+00
 0.89977113872E+00 0.96898879783E+00 0.10983984110E+01 0.12749907420E+01 0.14826180040E+01
 0.17006531850E+01 0.19052658380E+01 0.20724917359E+01 0.21819379054E+01 0.22200061664E+01
 0.21819379054E+01 0.20724917359E+01 0.19052658380E+01 0.17006531850E+01 0.14826180040E+01
 0.12749907420E+01 0.10983984110E+01 0.96898879783E+00 0.89977113872E+00 0.90456814692E+00
 0.10031692471E+01 0.12250373897E+01 0.16092964246E+01 0.22011519258E+01 0.30474689824E+01
 0.41938583279E+01 0.56811533157E+01 0.75337212482E+01 0.97321461001E+01 0.12173365975E+02
 0.14638944375E+02 0.16802964316E+02 0.18299606488E+02 0.10729837925E+02 0.10467456799E+02
 0.97279310559E+01 0.86370145342E+01 0.73568120749E+01 0.60409444172E+01 0.48056396400E+01
 0.37224568109E+01 0.28257419867E+01 0.21240793706E+01 0.16092964246E+01 0.12626524902E+01
 0.10604203371E+01 0.97972408877E+00 0.10031692471E+01 0.11201871427E+01 0.13244711809E+01
 0.16089105753E+01 0.19604336194E+01 0.23567393520E+01 0.27657817281E+01 0.31480386729E+01
 0.34612880407E+01 0.36673118015E+01 0.37392235147E+01 0.36673118015E+01 0.34612880407E+01
 0.31480386729E+01 0.27657817281E+01 0.23567393520E+01 0.19604336194E+01 0.16089105753E+01
 0.13244711809E+01 0.11201871427E+01 0.10031692471E+01 0.97972408877E+00 0.10604203371E+01
 0.12626524902E+01 0.16092964246E+01 0.21240793706E+01 0.28257419867E+01 0.37224568109E+01
 0.48056396400E+01 0.60409444172E+01 0.73568120749E+01 0.86370145342E+01 0.97279310559E+01
 0.10467456799E+02 0.63074225613E+01 0.61720668581E+01 0.57869071538E+01 0.52083175448E+01
 0.45123578313E+01 0.37769787991E+01 0.30687961173E+01 0.24367819830E+01 0.19114247434E+01
 0.15069157996E+01 0.12250373897E+01 0.10604203371E+01 0.10064936110E+01 0.10604203371E+01
 0.12250373897E+01 0.15069157996E+01 0.19114247434E+01 0.24367819830E+01 0.30687961173E+01
 0.37769787991E+01 0.45123578313E+01 0.52083175448E+01 0.57869071538E+01 0.61720668581E+01
 0.63074225613E+01 0.61720668581E+01 0.57869071538E+01 0.52083175448E+01 0.45123578313E+01
 0.37769787991E+01 0.30687961173E+01 0.24367819830E+01 0.19114247434E+01 0.15069157996E+01
 0.12250373897E+01 0.10604203371E+01 0.10064936110E+01 0.10604203371E+01 0.12250373897E+01
 0.15069157996E+01 0.19114247434E+01 0.24367819830E+01 0.30687961173E+01 0.37769787991E+01
 0.45123578313E+01 0.52083175448E+01 0.57869071538E+01 0.61720668581E+01 0.37392235147E+01
 0.36673118015E+01 0.34612880407E+01 0.31480386729E+01 0.27657817281E+01 0.23567393520E+01
 0.19604336194E+01 0.16089105753E+01 0.13244711809E+01 0.11201871427E+01 0.10031692471E+01
 0.97972408877E+00 0.10604203371E+01 0.12626524902E+01 0.16092964246E+01 0.21240793706E+01
 0.28257419867E+01 0.37224568109E+01 0.48056396400E+01 0.60409444172E+01 0.73568120749E+01
 0.86370145343E+01 0.97279310559E+01 0.10467456799E+02 0.10729837925E+02 0.10467456799E+02
 0.97279310559E+01 0.86370145343E+01 0.73568120749E+01 0.60409444172E+01 0.48056396400E+01
 0.37224568109E+01 0.28257419867E+01 0.21240793706E+01 0.16092964246E+01 0.12626524902E+01
 0.10604203371E+01 0.97972408877E+00 0.10031692471E+01 0.11201871427E+01 0.13244711809E+01
 0.16089105753E+01 0.19604336194E+01 0.23567393520E+01 0.27657817281E+01 0.31480386729E+01
 0.34612880407E+01 0.36673118015E+01 0.22200061664E+01 0.21819379054E+01 0.20724917359E+01
 0.19052658380E+01 0.17006531850E+01 0.14826180040E+01 0.12749907420E+01 0.10983984110E+01
 0.96898879783E+00 0.89977113872E+00 0.90456814692E+00 0.10031692471E+01 0.12250373897E+01
 0.16092964246E+01 0.22011519258E+01 0.30474689824E+01 0.41938583279E+01 0.56811533157E+01
 0.75337212482E+01 0.97321461001E+01 0.12173365975E+02 0.14638944375E+02 0.16802964316E+02
 0.18299606488E+02 0.18835962713E+02 0.18299606488E+02 0.16802964316E+02 0.14638944375E+02
 0.12173365975E+02 0.97321461001E+01 0.75337212482E+01 0.56811533157E+01 0.41938583279E+01
 0.30474689824E+01 0.22011519258E+01 0.16092964246E+01 0.12250373897E+01 0.10031692471E+01
 0.90456814692E+00 0.89977113872E+00 0.96898879783E+00 0.10983984110E+01 0.12749907420E+01
 0.14826180040E+01 0.17006531850E+01 0.19052658380E+01 0.20724917359E+01 0.21819379054E+01
 0.13625673777E+01 0.13416219824E+01 0.12817027365E+01 0.11910889604E+01 0.10822660915E+01
 0.97038472084E+00 0.87131116912E+00 0.79975166713E+00 0.76912694541E+00 0.79477655829E+00
 0.89977113872E+00 0.11201871427E+01 0.15069157996E+01 0.21240793706E+01 0.30474689824E+01
 0.43671514594E+01 0.61939606624E+01 0.86592284458E+01 0.11886462557E+02 0.15916799978E+02
 0.20598838898E+02 0.25498337059E+02 0.29908088913E+02 0.33006203649E+02 0.34124826821E+02
 0.33006203649E+02 0.29908088913E+02 0.25498337059E+02 0.20598838898E+02 0.15916799978E+02
 0.11886462557E+02 0.86592284458E+01 0.61939606624E+01 0.43671514594E+01 0.30474689824E+01
 0.21240793706E+01 0.15069157996E+01 0.11201871427E+01 0.89977113872E+00 0.79477655829E+00
 0.76912694541E+00 0.79975166713E+00 0.87131116912E+00 0.97038472084E+00 0.10822660915E+01
 0.11910889604E+01 0.12817027365E+01 0.13416219824E+01 0.86937779165E+00 0.85723960613E+00
 0.82369795241E+00 0.77556137592E+00 0.72110816999E+00 0.67035329984E+00 0.63575662238E+00
 0.63053900868E+00 0.66830697840E+00 0.76912694541E+00 0.96898879783E+00 0.13244711809E+01
 0.19114247434E+01 0.28257419867E+01 0.41938583279E+01 0.61939606624E+01 0.90809601836E+01
 0.13190980215E+02 0.18876207080E+02 0.26325864298E+02 0.35302048971E+02 0.44929554385E+02
 0.53724719524E+02 0.59953063644E+02 0.62209380723E+02 0.59953063644E+02 0.53724719524E+02
 0.44929554385E+02 0.35302048971E+02 0.26325864298E+02 0.18876207080E+02 0.13190980215E+02
 0.90809601836E+01 0.61939606624E+01 0.41938583279E+01 0.28257419867E+01 0.19114247434E+01
 0.13244711809E+01 0.96898879783E+00 0.76912694541E+00 0.66830697839E+00 0.63053900868E+00
 0.63575662238E+00 0.67035329984E+00 0.72110816999E+00 0.77556137592E+00 0.82369795241E+00
 0.85723960613E+00 0.54752584926E+00 0.54086522879E+00 0.52520898011E+00 0.50786848827E+00
 0.49260441220E+00 0.48397280431E+00 0.49371628687E+00 0.53735817292E+00 0.63053900868E+00
 0.79975166713E+00 0.10983984110E+01 0.16089105753E+01 0.24367819830E+01 0.37224568109E+01
 0.56811533157E+01 0.86592284458E+01 0.13190980215E+02 0.20011150757E+02 0.29914652556E+02
 0.43363939278E+02 0.59927216304E+02 0.77876792212E+02 0.94589758154E+02 0.10723729004E+03
 0.11205857722E+03 0.10723729004E+03 0.94589758154E+02 0.77876792212E+02 0.59927216304E+02
 0.43363939278E+02 0.29914652556E+02 0.20011150757E+02 0.13190980215E+02 0.86592284458E+01
 0.56811533157E+01 0.37224568109E+01 0.24367819830E+01 0.16089105753E+01 0.10983984110E+01
 0.79975166713E+00 0.63053900868E+00 0.53735817292E+00 0.49371628687E+00 0.48397280431E+00
 0.49260441220E+00 0.50786848827E+00 0.52520898011E+00 0.54086522879E+00 0.35593168333E+00
 0.35104720611E+00 0.34445137930E+00 0.34697116004E+00 0.35743739428E+00 0.37446148856E+00
 0.41258524443E+00 0.49371628687E+00 0.63575662238E+00 0.87131116912E+00 0.12749907420E+01
 0.19604336194E+01 0.30687961173E+01 0.48056396400E+01 0.75337212482E+01 0.11886462557E+02
 0.18876207080E+02 0.29914652556E+02 0.46519556650E+02 0.69523357610E+02 0.98519911635E+02
 0.13524255116E+03 0.17617677969E+03 0.20945475766E+03 0.22234682505E+03 0.20945475766E+03
 0.17617677969E+03 0.13524255116E+03 0.98519911635E+02 0.69523357610E+02 0.46519556650E+02
 0.29914652556E+02 0.18876207080E+02 0.11886462557E+02 0.75337212482E+01 0.48056396400E+01
 0.30687961173E+01 0.19604336194E+01 0.12749907420E+01 0.87131116912E+00 0.63575662238E+00
 0.49371628687E+00 0.41258524443E+00 0.37446148856E+00 0.35743739428E+00 0.34697116004E+00
 0.34445137930E+00 0.35104720611E+00 0.28143086301E+00 0.27388966200E+00 0.26585470234E+00
 0.27557202023E+00 0.29703228197E+00 0.32285911833E+00 0.37446148856E+00 0.48397280431E+00
 0.67035329984E+00 0.97038472084E+00 0.14826180040E+01 0.23567393520E+01 0.37769787991E+01
 0.60409444172E+01 0.97321461001E+01 0.15916799978E+02 0.26325864298E+02 0.43363939278E+02
 0.69523357610E+02 0.10722555957E+03 0.16671037802E+03 0.25124193928E+03 0.34487550412E+03
 0.41911532859E+03 0.44743210050E+03 0.41911532859E+03 0.34487550412E+03 0.25124193928E+03
 0.16671037802E+03 0.10722555957E+03 0.69523357610E+02 0.43363939278E+02 0.26325864298E+02
 0.15916799978E+02 0.97321461001E+01 0.60409444172E+01 0.37769787991E+01 0.23567393520E+01
 0.14826180040E+01 0.97038472084E+00 0.67035329984E+00 0.48397280431E+00 0.37446148856E+00
 0.32285911833E+00 0.29703228197E+00 0.27557202023E+00 0.26585470234E+00 0.27388966200E+00
 0.24424675686E+00 0.23263422818E+00 0.22078989182E+00 0.23634498858E+00 0.26678137835E+00
 0.29703228197E+00 0.35743739428E+00 0.49260441220E+00 0.72110816999E+00 0.10822660915E+01
 0.17006531850E+01 0.27657817281E+01 0.45123578313E+01 0.73568120749E+01 0.12173365975E+02
 0.20598838898E+02 0.35302048971E+02 0.59927216304E+02 0.98519911635E+02 0.16671037802E+03
 0.28473421467E+03 0.44746519951E+03 0.62053288347E+03 0.75382751708E+03 0.80393606934E+03
 0.75382751708E+03 0.62053288347E+03 0.44746519951E+03 0.28473421467E+03 0.16671037802E+03
 0.98519911635E+02 0.59927216304E+02 0.35302048971E+02 0.20598838898E+02 0.12173365975E+02
 0.73568120749E+01 0.45123578313E+01 0.27657817281E+01 0.17006531850E+01 0.10822660915E+01
 0.72110816999E+00 0.49260441220E+00 0.35743739428E+00 0.29703228197E+00 0.26678137835E+00
 0.23634498858E+00 0.22078989182E+00 0.23263422818E+00 0.18794500533E+00 0.17357514626E+00
 0.16216134966E+00 0.19022282792E+00 0.23634498858E+00 0.27557202023E+00 0.34697116004E+00
 0.50786848827E+00 0.77556137592E+00 0.11910889604E+01 0.19052658380E+01 0.31480386729E+01
 0.52083175448E+01 0.86370145342E+01 0.14638944375E+02 0.25498337059E+02 0.44929554385E+02
 0.77876792212E+02 0.13524255116E+03 0.25124193928E+03 0.44746519951E+03 0.70665146746E+03
 0.97317109482E+03 0.11739931663E+04 0.12486806433E+04 0.11739931663E+04 0.97317109482E+03
 0.70665146746E+03 0.44746519951E+03 0.25124193928E+03 0.13524255116E+03 0.77876792212E+02
 0.44929554385E+02 0.25498337059E+02 0.14638944375E+02 0.86370145342E+01 0.52083175448E+01
 0.31480386729E+01 0.19052658380E+01 0.11910889604E+01 0.77556137592E+00 0.50786848827E+00
 0.34697116004E+00 0.27557202023E+00 0.23634498858E+00 0.19022282792E+00 0.16216134966E+00
 0.17357514626E+00 0.15242557639E+00 0.13538713327E+00 0.12382041769E+00 0.16216134966E+00
 0.22078989182E+00 0.26585470234E+00 0.34445137930E+00 0.52520898011E+00 0.82369795241E+00
 0.12817027365E+01 0.20724917359E+01 0.34612880407E+01 0.57869071538E+01 0.97279310559E+01
 0.16802964316E+02 0.29908088913E+02 0.53724719524E+02 0.94589758154E+02 0.17617677969E+03
 0.34487550412E+03 0.62053288347E+03 0.97317109482E+03 0.13274550824E+04 0.15904292678E+04
 0.16875106164E+04 0.15904292678E+04 0.13274550824E+04 0.97317109482E+03 0.62053288347E+03
 0.34487550412E+03 0.17617677969E+03 0.94589758154E+02 0.53724719524E+02 0.29908088913E+02
 0.16802964316E+02 0.97279310559E+01 0.57869071538E+01 0.34612880407E+01 0.20724917359E+01
 0.12817027365E+01 0.82369795241E+00 0.52520898011E+00 0.34445137930E+00 0.26585470234E+00
 0.22078989182E+00 0.16216134966E+00 0.12382041769E+00 0.13538713326E+00 0.17280169687E+00
 0.15210129333E+00 0.13538713327E+00 0.17357514626E+00 0.23263422818E+00 0.27388966200E+00
 0.35104720611E+00 0.54086522879E+00 0.85723960613E+00 0.13416219824E+01 0.21819379054E+01
 0.36673118015E+01 0.61720668581E+01 0.10467456799E+02 0.18299606488E+02 0.33006203649E+02
 0.59953063644E+02 0.10723729004E+03 0.20945475766E+03 0.41911532859E+03 0.75382751708E+03
 0.11739931663E+04 0.15904292678E+04 0.18968165190E+04 0.20094283101E+04 0.18968165190E+04
 0.15904292678E+04 0.11739931663E+04 0.75382751708E+03 0.41911532859E+03 0.20945475766E+03
 0.10723729004E+03 0.59953063644E+02 0.33006203649E+02 0.18299606488E+02 0.10467456799E+02
 0.61720668581E+01 0.36673118015E+01 0.21819379054E+01 0.13416219824E+01 0.85723960613E+00
 0.54086522879E+00 0.35104720611E+00 0.27388966200E+00 0.23263422818E+00 0.17357514626E+00
 0.13538713326E+00 0.15210129333E+00 0.19546617656E+00 0.17280169687E+00 0.15242557639E+00
 0.18794500533E+00 0.24424675686E+00 0.28143086301E+00 0.35593168333E+00 0.54752584926E+00
 0.86937779165E+00 0.13625673777E+01 0.22200061664E+01 0.37392235147E+01 0.63074225613E+01
 0.10729837925E+02 0.18835962713E+02 0.34124826821E+02 0.62209380723E+02 0.11205857722E+03
 0.22234682505E+03 0.44743210050E+03 0.80393606934E+03 0.12486806433E+04 0.16875106164E+04
 0.20094283101E+04 0.21275747925E+04 0.20094283101E+04 0.16875106164E+04 0.12486806433E+04
 0.80393606934E+03 0.44743210050E+03 0.22234682505E+03 0.11205857722E+03 0.62209380723E+02
 0.34124826821E+02 0.18835962713E+02 0.10729837925E+02 0.63074225613E+01 0.37392235147E+01
 0.22200061664E+01 0.13625673777E+01 0.86937779165E+00 0.54752584926E+00 0.35593168333E+00
 0.28143086301E+00 0.24424675686E+00 0.18794500533E+00 0.15242557639E+00 0.17280169687E+00
 0.17280169687E+00 0.15210129333E+00 0.13538713327E+00 0.17357514626E+00 0.23263422818E+00
 0.27388966200E+00 0.35104720611E+00 0.54086522879E+00 0.85723960613E+00 0.13416219824E+01
 0.21819379054E+01 0.36673118015E+01 0.61720668581E+01 0.10467456799E+02 0.18299606488E+02
 0.33006203649E+02 0.59953063644E+02 0.10723729004E+03 0.20945475766E+03 0.41911532859E+03
 0.75382751708E+03 0.11739931663E+04 0.15904292678E+04 0.18968165190E+04 0.20094283101E+04
 0.18968165190E+04 0.15904292678E+04 0.11739931663E+04 0.75382751708E+03 0.41911532859E+03
 0.20945475766E+03 0.10723729004E+03 0.59953063644E+02 0.33006203649E+02 0.18299606488E+02
 0.10467456799E+02 0.61720668581E+01 0.36673118015E+01 0.21819379054E+01 0.13416219824E+01
 0.85723960613E+00 0.54086522879E+00 0.35104720611E+00 0.27388966200E+00 0.23263422818E+00
 0.17357514626E+00 0.13538713327E+00 0.15210129333E+00 0.15242557639E+00 0.13538713327E+00
 0.12382041769E+00 0.16216134966E+00 0.22078989182E+00 0.26585470234E+00 0.34445137930E+00
 0.52520898011E+00 0.82369795241E+00 0.12817027365E+01 0.20724917359E+01 0.34612880407E+01
 0.57869071538E+01 0.97279310559E+01 0.16802964316E+02 0.29908088913E+02 0.53724719524E+02
 0.94589758154E+02 0.17617677969E+03 0.34487550412E+03 0.62053288347E+03 0.97317109482E+03
 0.13274550824E+04 0.15904292678E+04 0.16875106164E+04 0.15904292678E+04 0.13274550824E+04
 0.97317109482E+03 0.62053288347E+03 0.34487550412E+03 0.17617677969E+03 0.94589758154E+02
 0.53724719524E+02 0.29908088913E+02 0.16802964316E+02 0.97279310559E+01 0.57869071538E+01
 0.34612880407E+01 0.20724917359E+01 0.12817027365E+01 0.82369795241E+00 0.52520898011E+00
 0.34445137930E+00 0.26585470234E+00 0.22078989182E+00 0.16216134966E+00 0.12382041769E+00
 0.13538713327E+00 0.18794500533E+00 0.17357514626E+00 0.16216134966E+00 0.19022282792E+00
 0.23634498858E+00 0.27557202023E+00 0.34697116004E+00 0.50786848827E+00 0.77556137592E+00
 0.11910889604E+01 0.19052658380E+01 0.31480386729E+01 0.52083175448E+01 0.86370145342E+01
 0.14638944375E+02 0.25498337059E+02 0.44929554385E+02 0.77876792212E+02 0.13524255116E+03
 0.25124193928E+03 0.44746519951E+03 0.70665146746E+03 0.97317109482E+03 0.11739931663E+04
 0.12486806433E+04 0.11739931663E+04 0.97317109482E+03 0.70665146746E+03 0.44746519951E+03
 0.25124193928E+03 0.13524255116E+03 0.77876792212E+02 0.44929554385E+02 0.25498337059E+02
 0.14638944375E+02 0.86370145342E+01 0.52083175448E+01 0.31480386729E+01 0.19052658380E+01
 0.11910889604E+01 0.77556137592E+00 0.50786848827E+00 0.34697116004E+00 0.27557202023E+00
 0.23634498858E+00 0.19022282792E+00 0.16216134966E+00 0.17357514626E+00 0.24424675686E+00
 0.23263422818E+00 0.22078989182E+00 0.23634498858E+00 0.26678137835E+00 0.29703228197E+00
 0.35743739428E+00 0.49260441220E+00 0.72110816999E+00 0.10822660915E+01 0.17006531850E+01
 0.27657817281E+01 0.45123578313E+01 0.73568120749E+01 0.12173365975E+02 0.20598838898E+02
 0.35302048971E+02 0.59927216304E+02 0.98519911635E+02 0.16671037802E+03 0.28473421467E+03
 0.44746519951E+03 0.62053288347E+03 0.75382751708E+03 0.80393606934E+03 0.75382751708E+03
 0.62053288347E+03 0.44746519951E+03 0.28473421467E+03 0.16671037802E+03 0.98519911635E+02
 0.59927216304E+02 0.35302048971E+02 0.20598838898E+02 0.12173365975E+02 0.73568120749E+01
 0.45123578313E+01 0.27657817281E+01 0.17006531850E+01 0.10822660915E+01 0.72110816999E+00
 0.49260441220E+00 0.35743739428E+00 0.29703228197E+00 0.26678137835E+00 0.23634498858E+00
 0.22078989182E+00 0.23263422818E+00 0.28143086301E+00 0.27388966200E+00 0.26585470234E+00
 0.27557202023E+00 0.29703228197E+00 0.32285911833E+00 0.37446148856E+00 0.48397280431E+00
 0.67035329984E+00 0.97038472084E+00 0.14826180040E+01 0.23567393520E+01 0.37769787991E+01
 0.60409444172E+01 0.97321461001E+01 0.15916799978E+02 0.26325864298E+02 0.43363939278E+02
 0.69523357610E+02 0.10722555957E+03 0.16671037802E+03 0.25124193928E+03 0.34487550412E+03
 0.41911532859E+03 0.44743210050E+03 0.41911532859E+03 0.34487550412E+03 0.25124193928E+03
 0.16671037802E+03 0.10722555957E+03 0.69523357610E+02 0.43363939278E+02 0.26325864298E+02
 0.15916799978E+02 0.97321461001E+01 0.60409444172E+01 0.37769787991E+01 0.23567393520E+01
 0.14826180040E+01 0.97038472084E+00 0.67035329984E+00 0.48397280431E+00 0.37446148856E+00
 0.32285911833E+00 0.29703228197E+00 0.27557202023E+00 0.26585470234E+00 0.27388966200E+00
 0.35593168333E+00 0.35104720611E+00 0.34445137930E+00 0.34697116004E+00 0.35743739428E+00
 0.37446148856E+00 0.41258524443E+00 0.49371628687E+00 0.63575662238E+00 0.87131116912E+00
 0.12749907420E+01 0.19604336194E+01 0.30687961173E+01 0.48056396400E+01 0.75337212482E+01
 0.11886462557E+02 0.18876207080E+02 0.29914652556E+02 0.46519556650E+02 0.69523357610E+02
 0.98519911635E+02 0.13524255116E+03 0.17617677969E+03 0.20945475766E+03 0.22234682505E+03
 0.20945475766E+03 0.17617677969E+03 0.13524255116E+03 0.98519911635E+02 0.69523357610E+02
 0.46519556650E+02 0.29914652556E+02 0.18876207080E+02 0.11886462557E+02 0.75337212482E+01
 0.48056396400E+01 0.30687961173E+01 0.19604336194E+01 0.12749907420E+01 0.87131116912E+00
 0.63575662238E+00 0.49371628687E+00 0.41258524443E+00 0.37446148856E+00 0.35743739428E+00
 0.34697116004E+00 0.34445137930E+00 0.35104720611E+00 0.54752584926E+00 0.54086522879E+00
 0.52520898011E+00 0.50786848827E+00 0.49260441220E+00 0.48397280431E+00 0.49371628687E+00
 0.53735817292E+00 0.63053900868E+00 0.79975166713E+00 0.10983984110E+01 0.16089105753E+01
 0.24367819830E+01 0.37224568109E+01 0.56811533157E+01 0.86592284458E+01 0.13190980215E+02
 0.20011150757E+02 0.29914652556E+02 0.43363939278E+02 0.59927216304E+02 0.77876792212E+02
 0.94589758154E+02 0.10723729004E+03 0.11205857722E+03 0.10723729004E+03 0.94589758154E+02
 0.77876792212E+02 0.59927216304E+02 0.43363939278E+02 0.29914652556E+02 0.20011150757E+02
 0.13190980215E+02 0.86592284458E+01 0.56811533157E+01 0.37224568109E+01 0.24367819830E+01
 0.16089105753E+01 0.10983984110E+01 0.79975166713E+00 0.63053900868E+00 0.53735817292E+00
 0.49371628687E+00 0.48397280431E+00 0.49260441220E+00 0.50786848827E+00 0.52520898011E+00
 0.54086522879E+00 0.86937779165E+00 0.85723960613E+00 0.82369795241E+00 0.77556137592E+00
 0.72110816999E+00 0.67035329984E+00 0.63575662238E+00 0.63053900868E+00 0.66830697839E+00
 0.76912694541E+00 0.96898879783E+00 0.13244711809E+01 0.19114247434E+01 0.28257419867E+01
 0.41938583279E+01 0.61939606624E+01 0.90809601836E+01 0.13190980215E+02 0.18876207080E+02
 0.26325864298E+02 0.35302048971E+02 0.44929554385E+02 0.53724719524E+02 0.59953063644E+02
 0.62209380723E+02 0.59953063644E+02 0.53724719524E+02 0.44929554385E+02 0.35302048971E+02
 0.26325864298E+02 0.18876207080E+02 0.13190980215E+02 0.90809601836E+01 0.61939606624E+01
 0.41938583279E+01 0.28257419867E+01 0.19114247434E+01 0.13244711809E+01 0.96898879783E+00
 0.76912694541E+00 0.66830697840E+00 0.63053900868E+00 0.63575662238E+00 0.67035329984E+00
 0.72110816999E+00 0.77556137592E+00 0.82369795241E+00 0.85723960613E+00 0.13625673777E+01
 0.13416219824E+01 0.12817027365E+01 0.11910889604E+01 0.10822660915E+01 0.97038472084E+00
 0.87131116912E+00 0.79975166713E+00 0.76912694541E+00 0.79477655829E+00 0.89977113872E+00
 0.11201871427E+01 0.15069157996E+01 0.21240793706E+01 0.30474689824E+01 0.43671514594E+01
 0.61939606624E+01 0.86592284458E+01 0.11886462557E+02 0.15916799978E+02 0.20598838898E+02
 0.25498337059E+02 0.29908088913E+02 0.33006203649E+02 0.34124826821E+02 0.33006203649E+02
 0.29908088913E+02 0.25498337059E+02 0.20598838898E+02 0.15916799978E+02 0.11886462557E+02
 0.86592284458E+01 0.61939606624E+01 0.43671514594E+01 0.30474689824E+01 0.21240793706E+01
 0.15069157996E+01 0.11201871427E+01 0.89977113872E+00 0.79477655829E+00 0.76912694541E+00