   4   4   0   0
  0.2469475E+02  0.4622620E-09  0.4622620E-09  0.4622620E-09  0.5000000E-15
  1.000000000000000E-004
  CAR 
 Ne                                      
     32.23054137    -37.03363158  301    -10.19376456      1.00000000
    -37.034  0.0000E+00  0.0000E+00
    -36.803  0.0000E+00  0.0000E+00
    -36.572  0.0000E+00  0.0000E+00
    -36.341  0.0000E+00  0.0000E+00
    -36.110  0.0000E+00  0.0000E+00
    -35.879  0.0000E+00  0.0000E+00
    -35.648  0.0000E+00  0.0000E+00
    -35.417  0.0000E+00  0.0000E+00
    -35.187  0.0000E+00  0.0000E+00
    -34.956  0.0000E+00  0.0000E+00
    -34.725  0.0000E+00  0.0000E+00
    -34.494  0.0000E+00  0.0000E+00
    -34.263  0.0000E+00  0.0000E+00
    -34.032  0.8048E-05  0.1858E-05
    -33.801  0.2657E+02  0.6134E+01
    -33.570  0.8081E+01  0.8000E+01
    -33.340  0.0000E+00  0.8000E+01
    -33.109  0.0000E+00  0.8000E+01
    -32.878  0.0000E+00  0.8000E+01
    -32.647  0.0000E+00  0.8000E+01
    -32.416  0.0000E+00  0.8000E+01
    -32.185  0.0000E+00  0.8000E+01
    -31.954  0.0000E+00  0.8000E+01
    -31.723  0.0000E+00  0.8000E+01
    -31.492  0.0000E+00  0.8000E+01
    -31.262  0.0000E+00  0.8000E+01
    -31.031  0.0000E+00  0.8000E+01
    -30.800  0.0000E+00  0.8000E+01
    -30.569  0.0000E+00  0.8000E+01
    -30.338  0.0000E+00  0.8000E+01
    -30.107  0.0000E+00  0.8000E+01
    -29.876  0.0000E+00  0.8000E+01
    -29.645  0.0000E+00  0.8000E+01
    -29.415  0.0000E+00  0.8000E+01
    -29.184  0.0000E+00  0.8000E+01
    -28.953  0.0000E+00  0.8000E+01
    -28.722  0.0000E+00  0.8000E+01
    -28.491  0.0000E+00  0.8000E+01
    -28.260  0.0000E+00  0.8000E+01
    -28.029  0.0000E+00  0.8000E+01
    -27.798  0.0000E+00  0.8000E+01
    -27.568  0.0000E+00  0.8000E+01
    -27.337  0.0000E+00  0.8000E+01
    -27.106  0.0000E+00  0.8000E+01
    -26.875  0.0000E+00  0.8000E+01
    -26.644  0.0000E+00  0.8000E+01
    -26.413  0.0000E+00  0.8000E+01
    -26.182  0.0000E+00  0.8000E+01
    -25.951  0.0000E+00  0.8000E+01
    -25.720  0.0000E+00  0.8000E+01
    -25.490  0.0000E+00  0.8000E+01
    -25.259  0.0000E+00  0.8000E+01
    -25.028  0.0000E+00  0.8000E+01
    -24.797  0.0000E+00  0.8000E+01
    -24.566  0.0000E+00  0.8000E+01
    -24.335  0.0000E+00  0.8000E+01
    -24.104  0.0000E+00  0.8000E+01
    -23.873  0.0000E+00  0.8000E+01
    -23.643  0.0000E+00  0.8000E+01
    -23.412  0.0000E+00  0.8000E+01
    -23.181  0.0000E+00  0.8000E+01
    -22.950  0.0000E+00  0.8000E+01
    -22.719  0.0000E+00  0.8000E+01
    -22.488  0.0000E+00  0.8000E+01
    -22.257  0.0000E+00  0.8000E+01
    -22.026  0.0000E+00  0.8000E+01
    -21.796  0.0000E+00  0.8000E+01
    -21.565  0.0000E+00  0.8000E+01
    -21.334  0.0000E+00  0.8000E+01
    -21.103  0.0000E+00  0.8000E+01
    -20.872  0.0000E+00  0.8000E+01
    -20.641  0.0000E+00  0.8000E+01
    -20.410  0.0000E+00  0.8000E+01
    -20.179  0.0000E+00  0.8000E+01
    -19.948  0.0000E+00  0.8000E+01
    -19.718  0.0000E+00  0.8000E+01
    -19.487  0.0000E+00  0.8000E+01
    -19.256  0.0000E+00  0.8000E+01
    -19.025  0.0000E+00  0.8000E+01
    -18.794  0.0000E+00  0.8000E+01
    -18.563  0.0000E+00  0.8000E+01
    -18.332  0.0000E+00  0.8000E+01
    -18.101  0.0000E+00  0.8000E+01
    -17.871  0.0000E+00  0.8000E+01
    -17.640  0.0000E+00  0.8000E+01
    -17.409  0.0000E+00  0.8000E+01
    -17.178  0.0000E+00  0.8000E+01
    -16.947  0.0000E+00  0.8000E+01
    -16.716  0.0000E+00  0.8000E+01
    -16.485  0.0000E+00  0.8000E+01
    -16.254  0.0000E+00  0.8000E+01
    -16.023  0.0000E+00  0.8000E+01
    -15.793  0.0000E+00  0.8000E+01
    -15.562  0.0000E+00  0.8000E+01
    -15.331  0.0000E+00  0.8000E+01
    -15.100  0.0000E+00  0.8000E+01
    -14.869  0.0000E+00  0.8000E+01
    -14.638  0.0000E+00  0.8000E+01
    -14.407  0.0000E+00  0.8000E+01
    -14.176  0.0000E+00  0.8000E+01
    -13.946  0.0000E+00  0.8000E+01
    -13.715  0.0000E+00  0.8000E+01
    -13.484  0.0000E+00  0.8000E+01
    -13.253  0.0000E+00  0.8000E+01
    -13.022  0.0000E+00  0.8000E+01
    -12.791  0.0000E+00  0.8000E+01
    -12.560  0.0000E+00  0.8000E+01
    -12.329  0.0000E+00  0.8000E+01
    -12.099  0.0000E+00  0.8000E+01
    -11.868  0.0000E+00  0.8000E+01
    -11.637  0.0000E+00  0.8000E+01
    -11.406  0.0000E+00  0.8000E+01
    -11.175  0.2119E-02  0.8000E+01
    -10.944  0.1884E+02  0.1235E+02
    -10.713  0.3343E+02  0.2007E+02
    -10.482  0.5158E+02  0.3198E+02
    -10.251  0.9613E-01  0.3200E+02
    -10.021  0.0000E+00  0.3200E+02
     -9.790  0.0000E+00  0.3200E+02
     -9.559  0.0000E+00  0.3200E+02
     -9.328  0.0000E+00  0.3200E+02
     -9.097  0.0000E+00  0.3200E+02
     -8.866  0.0000E+00  0.3200E+02
     -8.635  0.0000E+00  0.3200E+02
     -8.404  0.0000E+00  0.3200E+02
     -8.174  0.0000E+00  0.3200E+02
     -7.943  0.0000E+00  0.3200E+02
     -7.712  0.0000E+00  0.3200E+02
     -7.481  0.0000E+00  0.3200E+02
     -7.250  0.0000E+00  0.3200E+02
     -7.019  0.0000E+00  0.3200E+02
     -6.788  0.0000E+00  0.3200E+02
     -6.557  0.0000E+00  0.3200E+02
     -6.327  0.0000E+00  0.3200E+02
     -6.096  0.0000E+00  0.3200E+02
     -5.865  0.0000E+00  0.3200E+02
     -5.634  0.0000E+00  0.3200E+02
     -5.403  0.0000E+00  0.3200E+02
     -5.172  0.0000E+00  0.3200E+02
     -4.941  0.0000E+00  0.3200E+02
     -4.710  0.0000E+00  0.3200E+02
     -4.479  0.0000E+00  0.3200E+02
     -4.249  0.0000E+00  0.3200E+02
     -4.018  0.0000E+00  0.3200E+02
     -3.787  0.0000E+00  0.3200E+02
     -3.556  0.0000E+00  0.3200E+02
     -3.325  0.0000E+00  0.3200E+02
     -3.094  0.0000E+00  0.3200E+02
     -2.863  0.0000E+00  0.3200E+02
     -2.632  0.0000E+00  0.3200E+02
     -2.402  0.0000E+00  0.3200E+02
     -2.171  0.0000E+00  0.3200E+02
     -1.940  0.0000E+00  0.3200E+02
     -1.709  0.0000E+00  0.3200E+02
     -1.478  0.0000E+00  0.3200E+02
     -1.247  0.0000E+00  0.3200E+02
     -1.016  0.0000E+00  0.3200E+02
     -0.785  0.0000E+00  0.3200E+02
     -0.555  0.0000E+00  0.3200E+02
     -0.324  0.0000E+00  0.3200E+02
     -0.093  0.0000E+00  0.3200E+02
      0.138  0.0000E+00  0.3200E+02
      0.369  0.0000E+00  0.3200E+02
      0.600  0.0000E+00  0.3200E+02
      0.831  0.8512E-04  0.3200E+02
      1.062  0.9700E-01  0.3202E+02
      1.293  0.2882E+00  0.3209E+02
      1.523  0.3629E+00  0.3217E+02
      1.754  0.4783E+00  0.3228E+02
      1.985  0.5225E+00  0.3240E+02
      2.216  0.5677E+00  0.3253E+02
      2.447  0.7436E+00  0.3271E+02
      2.678  0.6757E+00  0.3286E+02
      2.909  0.8619E+00  0.3306E+02
      3.140  0.8179E+00  0.3325E+02
      3.370  0.1075E+01  0.3350E+02
      3.601  0.8427E+00  0.3369E+02
      3.832  0.1338E+01  0.3400E+02
      4.063  0.9465E+00  0.3422E+02
      4.294  0.1060E+01  0.3447E+02
      4.525  0.1571E+01  0.3483E+02
      4.756  0.1208E+01  0.3511E+02
      4.987  0.1329E+01  0.3541E+02
      5.218  0.1476E+01  0.3575E+02
      5.448  0.1732E+01  0.3615E+02
      5.679  0.1444E+01  0.3649E+02
      5.910  0.1650E+01  0.3687E+02
      6.141  0.1954E+01  0.3732E+02
      6.372  0.1815E+01  0.3774E+02
      6.603  0.2000E+01  0.3820E+02
      6.834  0.1448E+01  0.3854E+02
      7.065  0.2469E+01  0.3911E+02
      7.295  0.1733E+01  0.3951E+02
      7.526  0.2164E+01  0.4001E+02
      7.757  0.1649E+01  0.4039E+02
      7.988  0.2009E+01  0.4085E+02
      8.219  0.1786E+01  0.4126E+02
      8.450  0.2122E+01  0.4175E+02
      8.681  0.2199E+01  0.4226E+02
      8.912  0.3141E+01  0.4298E+02
      9.142  0.2339E+01  0.4353E+02
      9.373  0.1897E+01  0.4396E+02
      9.604  0.2214E+01  0.4447E+02
      9.835  0.2949E+01  0.4516E+02
     10.066  0.3110E+01  0.4587E+02
     10.297  0.1826E+01  0.4629E+02
     10.528  0.2374E+01  0.4684E+02
     10.759  0.3118E+01  0.4756E+02
     10.990  0.2641E+01  0.4817E+02
     11.220  0.2057E+01  0.4865E+02
     11.451  0.2432E+01  0.4921E+02
     11.682  0.2597E+01  0.4981E+02
     11.913  0.1590E+01  0.5018E+02
     12.144  0.2582E+01  0.5077E+02
     12.375  0.1490E+01  0.5112E+02
     12.606  0.2209E+01  0.5163E+02
     12.837  0.1771E+01  0.5203E+02
     13.067  0.2004E+01  0.5250E+02
     13.298  0.2648E+01  0.5311E+02
     13.529  0.2070E+01  0.5359E+02
     13.760  0.1617E+01  0.5396E+02
     13.991  0.2639E+01  0.5457E+02
     14.222  0.2578E+01  0.5516E+02
     14.453  0.2340E+01  0.5570E+02
     14.684  0.3323E+01  0.5647E+02
     14.914  0.2775E+01  0.5711E+02
     15.145  0.3833E+01  0.5800E+02
     15.376  0.3140E+01  0.5872E+02
     15.607  0.4064E+01  0.5966E+02
     15.838  0.3226E+01  0.6041E+02
     16.069  0.3955E+01  0.6132E+02
     16.300  0.3457E+01  0.6212E+02
     16.531  0.3337E+01  0.6289E+02
     16.762  0.3880E+01  0.6378E+02
     16.992  0.2373E+01  0.6433E+02
     17.223  0.2913E+01  0.6500E+02
     17.454  0.2216E+01  0.6551E+02
     17.685  0.2170E+01  0.6602E+02
     17.916  0.2597E+01  0.6662E+02
     18.147  0.2185E+01  0.6712E+02
     18.378  0.2270E+01  0.6764E+02
     18.609  0.1979E+01  0.6810E+02
     18.839  0.1837E+01  0.6852E+02
     19.070  0.2467E+01  0.6909E+02
     19.301  0.3212E+01  0.6984E+02
     19.532  0.2515E+01  0.7042E+02
     19.763  0.4208E+01  0.7139E+02
     19.994  0.2200E+01  0.7190E+02
     20.225  0.2508E+01  0.7247E+02
     20.456  0.3975E+01  0.7339E+02
     20.687  0.3245E+01  0.7414E+02
     20.917  0.2740E+01  0.7477E+02
     21.148  0.4557E+01  0.7583E+02
     21.379  0.3342E+01  0.7660E+02
     21.610  0.3191E+01  0.7734E+02
     21.841  0.4083E+01  0.7828E+02
     22.072  0.3191E+01  0.7901E+02
     22.303  0.3418E+01  0.7980E+02
     22.534  0.4168E+01  0.8077E+02
     22.764  0.2624E+01  0.8137E+02
     22.995  0.4297E+01  0.8236E+02
     23.226  0.2319E+01  0.8290E+02
     23.457  0.3332E+01  0.8367E+02
     23.688  0.3886E+01  0.8457E+02
     23.919  0.4274E+01  0.8555E+02
     24.150  0.4735E+01  0.8665E+02
     24.381  0.4212E+01  0.8762E+02
     24.611  0.3637E+01  0.8846E+02
     24.842  0.4696E+01  0.8954E+02
     25.073  0.4829E+01  0.9066E+02
     25.304  0.3632E+01  0.9150E+02
     25.535  0.4075E+01  0.9244E+02
     25.766  0.3747E+01  0.9330E+02
     25.997  0.3578E+01  0.9413E+02
     26.228  0.1784E+01  0.9454E+02
     26.459  0.1333E+01  0.9485E+02
     26.689  0.1605E+01  0.9522E+02
     26.920  0.1161E+01  0.9549E+02
     27.151  0.6773E+00  0.9564E+02
     27.382  0.6582E+00  0.9579E+02
     27.613  0.1550E+00  0.9583E+02
     27.844  0.2996E+00  0.9590E+02
     28.075  0.4499E-02  0.9590E+02
     28.306  0.1459E+00  0.9593E+02
     28.536  0.1202E+00  0.9596E+02
     28.767  0.3198E-01  0.9597E+02
     28.998  0.1181E+00  0.9600E+02
     29.229  0.1559E-01  0.9600E+02
     29.460  0.2439E-06  0.9600E+02
     29.691  0.0000E+00  0.9600E+02
     29.922  0.0000E+00  0.9600E+02
     30.153  0.0000E+00  0.9600E+02
     30.383  0.0000E+00  0.9600E+02
     30.614  0.0000E+00  0.9600E+02
     30.845  0.0000E+00  0.9600E+02
     31.076  0.0000E+00  0.9600E+02
     31.307  0.0000E+00  0.9600E+02
     31.538  0.0000E+00  0.9600E+02
     31.769  0.0000E+00  0.9600E+02
     32.000  0.0000E+00  0.9600E+02
     32.231  0.0000E+00  0.9600E+02
