    4    4    1    1
  0.2469475E+02  0.4622620E-09  0.4622620E-09  0.4622620E-09  0.5000000E-15
  1.000000000000000E-004
  CAR 
 Ne                                      
     32     84     48
 
  0.0000000E+00  0.0000000E+00  0.0000000E+00  0.5787037E-03
      1        -33.885260   1.000000
      2        -33.811619   1.000000
      3        -33.811619   1.000000
      4        -33.811619   1.000000
      5        -11.034857   1.000000
      6        -11.034857   1.000000
      7        -11.034857   1.000000
      8        -10.710673   1.000000
      9        -10.710673   1.000000
     10        -10.710673   1.000000
     11        -10.710673   1.000000
     12        -10.710673   1.000000
     13        -10.710673   1.000000
     14        -10.539598   1.000000
     15        -10.539598   1.000000
     16        -10.539598   1.000000
     17          0.906102   0.000000
     18          7.452450   0.000000
     19          7.452450   0.000000
     20          7.452450   0.000000
     21          7.926671   0.000000
     22          7.926671   0.000000
     23          7.926671   0.000000
     24         11.798747   0.000000
     25         11.798747   0.000000
     26         11.798747   0.000000
     27         14.815767   0.000000
     28         14.815767   0.000000
     29         14.815767   0.000000
     30         14.815767   0.000000
     31         14.815767   0.000000
     32         14.815767   0.000000
     33         17.889200   0.000000
     34         17.889200   0.000000
     35         17.889200   0.000000
     36         18.792018   0.000000
     37         18.792018   0.000000
     38         18.792018   0.000000
     39         19.844507   0.000000
     40         21.836277   0.000000
     41         21.836277   0.000000
     42         21.836277   0.000000
     43         23.685939   0.000000
     44         23.685939   0.000000
     45         24.509354   0.000000
     46         29.082169   0.000000
     47         29.082170   0.000000
     48         29.082170   0.000000
 
  0.8333333E-01  0.1917523E-32  0.0000000E+00  0.3472222E-02
      1        -33.883997   1.000000
      2        -33.812856   1.000000
      3        -33.811599   1.000000
      4        -33.811599   1.000000
      5        -11.029384   1.000000
      6        -11.029384   1.000000
      7        -11.028205   1.000000
      8        -10.716258   1.000000
      9        -10.716258   1.000000
     10        -10.711683   1.000000
     11        -10.711683   1.000000
     12        -10.707763   1.000000
     13        -10.707763   1.000000
     14        -10.550187   1.000000
     15        -10.542525   1.000000
     16        -10.542525   1.000000
     17          0.965683   0.000000
     18          6.733668   0.000000
     19          7.495909   0.000000
     20          7.495909   0.000000
     21          7.957103   0.000000
     22          7.957103   0.000000
     23          8.690934   0.000000
     24         11.570209   0.000000
     25         11.570209   0.000000
     26         11.847021   0.000000
     27         14.580321   0.000000
     28         14.580321   0.000000
     29         14.840329   0.000000
     30         14.840329   0.000000
     31         15.143279   0.000000
     32         15.143279   0.000000
     33         17.390967   0.000000
     34         17.739889   0.000000
     35         17.739889   0.000000
     36         18.868812   0.000000
     37         19.089041   0.000000
     38         19.089041   0.000000
     39         20.439918   0.000000
     40         21.165985   0.000000
     41         22.084734   0.000000
     42         22.084734   0.000000
     43         23.674692   0.000000
     44         23.733002   0.000000
     45         24.891766   0.000000
     46         28.778858   0.000000
     47         28.917580   0.000000
     48         28.917584   0.000000
 
  0.1666667E+00 -0.5192762E-32  0.0000000E+00  0.3472222E-02
      1        -33.880291   1.000000
      2        -33.816515   1.000000
      3        -33.811549   1.000000
      4        -33.811549   1.000000
      5        -11.013336   1.000000
      6        -11.013336   1.000000
      7        -11.008465   1.000000
      8        -10.732602   1.000000
      9        -10.732602   1.000000
     10        -10.714389   1.000000
     11        -10.714389   1.000000
     12        -10.699245   1.000000
     13        -10.699245   1.000000
     14        -10.580653   1.000000
     15        -10.551077   1.000000
     16        -10.551077   1.000000
     17          1.142710   0.000000
     18          5.867042   0.000000
     19          7.620674   0.000000
     20          7.620674   0.000000
     21          8.048768   0.000000
     22          8.048768   0.000000
     23          9.696063   0.000000
     24         11.066285   0.000000
     25         11.066285   0.000000
     26         11.991707   0.000000
     27         14.030710   0.000000
     28         14.030710   0.000000
     29         14.914474   0.000000
     30         14.914474   0.000000
     31         15.943411   0.000000
     32         15.943411   0.000000
     33         16.525765   0.000000
     34         17.377275   0.000000
     35         17.377275   0.000000
     36         19.094910   0.000000
     37         19.828541   0.000000
     38         19.828541   0.000000
     39         19.872085   0.000000
     40         21.596639   0.000000
     41         22.743816   0.000000
     42         22.743816   0.000000
     43         23.435536   0.000000
     44         23.874064   0.000000
     45         25.577692   0.000000
     46         27.742710   0.000000
     47         27.742710   0.000000
     48         28.112263   0.000000
 
  0.2500000E+00 -0.7897472E-32  0.0000000E+00  0.3472222E-02
      1        -33.874395   1.000000
      2        -33.822325   1.000000
      3        -33.811493   1.000000
      4        -33.811493   1.000000
      5        -10.987778   1.000000
      6        -10.987778   1.000000
      7        -10.975985   1.000000
      8        -10.758535   1.000000
      9        -10.758535   1.000000
     10        -10.718068   1.000000
     11        -10.718068   1.000000
     12        -10.685664   1.000000
     13        -10.685664   1.000000
     14        -10.627634   1.000000
     15        -10.564680   1.000000
     16        -10.564680   1.000000
     17          1.432116   0.000000
     18          5.039390   0.000000
     19          7.808253   0.000000
     20          7.808253   0.000000
     21          8.202767   0.000000
     22          8.202767   0.000000
     23         10.500873   0.000000
     24         10.500873   0.000000
     25         10.762197   0.000000
     26         12.232859   0.000000
     27         13.396231   0.000000
     28         13.396231   0.000000
     29         15.039889   0.000000
     30         15.039889   0.000000
     31         15.661545   0.000000
     32         16.936046   0.000000
     33         16.936046   0.000000
     34         17.000125   0.000000
     35         17.000125   0.000000
     36         18.450156   0.000000
     37         19.459225   0.000000
     38         20.797195   0.000000
     39         20.797195   0.000000
     40         22.946680   0.000000
     41         23.004005   0.000000
     42         23.675874   0.000000
     43         23.675874   0.000000
     44         24.108718   0.000000
     45         25.988800   0.000000
     46         25.988800   0.000000
     47         26.212793   0.000000
     48         27.359331   0.000000
 
  0.3333333E+00  0.1723771E-32  0.0000000E+00  0.3472222E-02
      1        -33.866733   1.000000
      2        -33.829934   1.000000
      3        -33.811449   1.000000
      4        -33.811449   1.000000
      5        -10.954409   1.000000
      6        -10.954409   1.000000
      7        -10.931867   1.000000
      8        -10.792299   1.000000
      9        -10.792299   1.000000
     10        -10.721751   1.000000
     11        -10.721751   1.000000
     12        -10.686178   1.000000
     13        -10.668001   1.000000
     14        -10.668001   1.000000
     15        -10.582408   1.000000
     16        -10.582408   1.000000
     17          1.826336   0.000000
     18          4.262075   0.000000
     19          8.021901   0.000000
     20          8.021901   0.000000
     21          8.420750   0.000000
     22          8.420750   0.000000
     23          9.960681   0.000000
     24          9.960681   0.000000
     25         11.887275   0.000000
     26         12.569948   0.000000
     27         12.821781   0.000000
     28         12.821781   0.000000
     29         14.864758   0.000000
     30         15.218555   0.000000
     31         15.218555   0.000000
     32         16.496522   0.000000
     33         16.496522   0.000000
     34         17.027426   0.000000
     35         18.222385   0.000000
     36         18.222385   0.000000
     37         19.941164   0.000000
     38         21.882688   0.000000
     39         21.882688   0.000000
     40         22.443779   0.000000
     41         24.264192   0.000000
     42         24.264192   0.000000
     43         24.423497   0.000000
     44         24.436203   0.000000
     45         24.795305   0.000000
     46         24.795305   0.000000
     47         26.551710   0.000000
     48         26.551712   0.000000
 
  0.4166667E+00  0.1025592E-31  0.0000000E+00  0.3472222E-02
      1        -33.857841   1.000000
      2        -33.838770   1.000000
      3        -33.811421   1.000000
      4        -33.811421   1.000000
      5        -10.915452   1.000000
      6        -10.915452   1.000000
      7        -10.877780   1.000000
      8        -10.831544   1.000000
      9        -10.831544   1.000000
     10        -10.750810   1.000000
     11        -10.724446   1.000000
     12        -10.724446   1.000000
     13        -10.647334   1.000000
     14        -10.647334   1.000000
     15        -10.603047   1.000000
     16        -10.603047   1.000000
     17          2.316107   0.000000
     18          3.543612   0.000000
     19          8.201617   0.000000
     20          8.201617   0.000000
     21          8.704678   0.000000
     22          8.704678   0.000000
     23          9.475721   0.000000
     24          9.475721   0.000000
     25         12.413036   0.000000
     26         12.413036   0.000000
     27         13.003386   0.000000
     28         13.074892   0.000000
     29         14.152509   0.000000
     30         15.453073   0.000000
     31         15.453073   0.000000
     32         15.647806   0.000000
     33         16.094571   0.000000
     34         16.094571   0.000000
     35         19.575206   0.000000
     36         19.575206   0.000000
     37         20.516728   0.000000
     38         21.809188   0.000000
     39         22.608466   0.000000
     40         22.608466   0.000000
     41         23.031667   0.000000
     42         23.031667   0.000000
     43         24.855139   0.000000
     44         25.404041   0.000000
     45         25.404041   0.000000
     46         25.956600   0.000000
     47         26.009849   0.000000
     48         26.057045   0.000000
 
  0.5000000E+00 -0.1579494E-31  0.0000000E+00  0.1736111E-02
      1        -33.848290   1.000000
      2        -33.848290   1.000000
      3        -33.811421   1.000000
      4        -33.811421   1.000000
      5        -10.873561   1.000000
      6        -10.873561   1.000000
      7        -10.873561   1.000000
      8        -10.873561   1.000000
      9        -10.816163   1.000000
     10        -10.816163   1.000000
     11        -10.725425   1.000000
     12        -10.725425   1.000000
     13        -10.625171   1.000000
     14        -10.625171   1.000000
     15        -10.625171   1.000000
     16        -10.625171   1.000000
     17          2.891903   0.000000
     18          2.891903   0.000000
     19          8.273988   0.000000
     20          8.273988   0.000000
     21          9.056172   0.000000
     22          9.056172   0.000000
     23          9.056172   0.000000
     24          9.056172   0.000000
     25         12.262579   0.000000
     26         12.262579   0.000000
     27         13.531244   0.000000
     28         13.531244   0.000000
     29         14.328472   0.000000
     30         14.328472   0.000000
     31         15.745325   0.000000
     32         15.745325   0.000000
     33         15.745325   0.000000
     34         15.745325   0.000000
     35         21.041174   0.000000
     36         21.041174   0.000000
     37         21.041174   0.000000
     38         21.041174   0.000000
     39         21.152262   0.000000
     40         21.152262   0.000000
     41         24.156638   0.000000
     42         24.156638   0.000000
     43         24.274624   0.000000
     44         24.274624   0.000000
     45         25.363353   0.000000
     46         25.363353   0.000000
     47         27.429600   0.000000
     48         27.429651   0.000000
 
  0.8333333E-01  0.8333333E-01  0.0000000E+00  0.6944444E-02
      1        -33.882755   1.000000
      2        -33.812814   1.000000
      3        -33.812814   1.000000
      4        -33.811592   1.000000
      5        -11.023957   1.000000
      6        -11.023240   1.000000
      7        -11.023240   1.000000
      8        -10.728205   1.000000
      9        -10.713302   1.000000
     10        -10.713302   1.000000
     11        -10.708521   1.000000
     12        -10.708521   1.000000
     13        -10.705976   1.000000
     14        -10.565101   1.000000
     15        -10.545488   1.000000
     16        -10.540716   1.000000
     17          1.024961   0.000000
     18          6.776085   0.000000
     19          6.776085   0.000000
     20          7.537777   0.000000
     21          7.987651   0.000000
     22          8.720355   0.000000
     23          8.720355   0.000000
     24         11.337478   0.000000
     25         11.616253   0.000000
     26         11.616253   0.000000
     27         14.612613   0.000000
     28         14.612613   0.000000
     29         14.862132   0.000000
     30         14.961059   0.000000
     31         15.169964   0.000000
     32         15.169964   0.000000
     33         16.801443   0.000000
     34         17.565426   0.000000
     35         17.985374   0.000000
     36         19.160365   0.000000
     37         19.160365   0.000000
     38         19.383687   0.000000
     39         20.629152   0.000000
     40         21.389206   0.000000
     41         21.419503   0.000000
     42         22.435824   0.000000
     43         23.735162   0.000000
     44         23.803777   0.000000
     45         25.218440   0.000000
     46         28.435990   0.000000
     47         28.435991   0.000000
     48         28.781825   0.000000
 
  0.1666667E+00  0.8333333E-01  0.0000000E+00  0.1388889E-01
      1        -33.879110   1.000000
      2        -33.816403   1.000000
      3        -33.812709   1.000000
      4        -33.811610   1.000000
      5        -11.008668   1.000000
      6        -11.008039   1.000000
      7        -11.004909   1.000000
      8        -10.748682   1.000000
      9        -10.729514   1.000000
     10        -10.710496   1.000000
     11        -10.704632   1.000000
     12        -10.703667   1.000000
     13        -10.699285   1.000000
     14        -10.597706   1.000000
     15        -10.554171   1.000000
     16        -10.546035   1.000000
     17          1.201120   0.000000
     18          5.911649   0.000000
     19          6.900766   0.000000
     20          7.656057   0.000000
     21          8.079657   0.000000
     22          8.805027   0.000000
     23          9.716677   0.000000
     24         10.828799   0.000000
     25         11.108846   0.000000
     26         11.754155   0.000000
     27         14.080426   0.000000
     28         14.362881   0.000000
     29         14.709531   0.000000
     30         15.250571   0.000000
     31         15.723848   0.000000
     32         15.973229   0.000000
     33         15.991982   0.000000
     34         17.144934   0.000000
     35         17.842267   0.000000
     36         19.370854   0.000000
     37         19.889407   0.000000
     38         20.118005   0.000000
     39         20.125369   0.000000
     40         21.324511   0.000000
     41         21.995668   0.000000
     42         23.280914   0.000000
     43         23.613660   0.000000
     44         23.974244   0.000000
     45         25.836471   0.000000
     46         27.257142   0.000000
     47         27.701085   0.000000
     48         27.714520   0.000000
 
  0.2500000E+00  0.8333333E-01  0.0000000E+00  0.1388889E-01
      1        -33.873317   1.000000
      2        -33.822122   1.000000
      3        -33.812554   1.000000
      4        -33.811677   1.000000
      5        -10.985483   1.000000
      6        -10.982684   1.000000
      7        -10.974714   1.000000
      8        -10.775525   1.000000
      9        -10.755247   1.000000
     10        -10.713002   1.000000
     11        -10.705095   1.000000
     12        -10.690832   1.000000
     13        -10.684643   1.000000
     14        -10.644214   1.000000
     15        -10.567987   1.000000
     16        -10.558435   1.000000
     17          1.489168   0.000000
     18          5.085873   0.000000
     19          7.099904   0.000000
     20          7.826512   0.000000
     21          8.234211   0.000000
     22          8.932419   0.000000
     23         10.272382   0.000000
     24         10.540594   0.000000
     25         10.767746   0.000000
     26         11.983613   0.000000
     27         13.470128   0.000000
     28         13.733097   0.000000
     29         14.871408   0.000000
     30         15.197364   0.000000
     31         15.386838   0.000000
     32         16.617143   0.000000
     33         16.782464   0.000000
     34         17.031821   0.000000
     35         17.431230   0.000000
     36         18.758233   0.000000
     37         19.711977   0.000000
     38         20.848779   0.000000
     39         21.081560   0.000000
     40         22.394094   0.000000
     41         22.621841   0.000000
     42         23.391790   0.000000
     43         24.323505   0.000000
     44         24.393353   0.000000
     45         25.651197   0.000000
     46         25.999209   0.000000
     47         26.415081   0.000000
     48         26.949692   0.000000
 
  0.3333333E+00  0.8333333E-01  0.0000000E+00  0.1388889E-01
      1        -33.865786   1.000000
      2        -33.829588   1.000000
      3        -33.812376   1.000000
      4        -33.811756   1.000000
      5        -10.955257   1.000000
      6        -10.949555   1.000000
      7        -10.933470   1.000000
      8        -10.807774   1.000000
      9        -10.788735   1.000000
     10        -10.715096   1.000000
     11        -10.708529   1.000000
     12        -10.700749   1.000000
     13        -10.672855   1.000000
     14        -10.665664   1.000000
     15        -10.585996   1.000000
     16        -10.576079   1.000000
     17          1.881719   0.000000
     18          4.310515   0.000000
     19          7.359110   0.000000
     20          7.994445   0.000000
     21          8.453013   0.000000
     22          9.076301   0.000000
     23          9.782418   0.000000
     24          9.998232   0.000000
     25         11.867358   0.000000
     26         12.303883   0.000000
     27         12.931799   0.000000
     28         13.150343   0.000000
     29         14.459667   0.000000
     30         15.101440   0.000000
     31         15.581290   0.000000
     32         16.012245   0.000000
     33         16.968826   0.000000
     34         17.475125   0.000000
     35         18.003530   0.000000
     36         18.255181   0.000000
     37         20.167074   0.000000
     38         21.922892   0.000000
     39         22.163521   0.000000
     40         22.493702   0.000000
     41         23.662685   0.000000
     42         23.766016   0.000000
     43         23.990249   0.000000
     44         24.287989   0.000000
     45         24.934131   0.000000
     46         25.684465   0.000000
     47         26.231044   0.000000
     48         26.574570   0.000000
 
  0.4166667E+00  0.8333333E-01  0.0000000E+00  0.1388889E-01
      1        -33.857026   1.000000
      2        -33.838297   1.000000
      3        -33.812196   1.000000
      4        -33.811869   1.000000
      5        -10.920030   1.000000
      6        -10.910905   1.000000
      7        -10.882654   1.000000
      8        -10.843943   1.000000
      9        -10.827652   1.000000
     10        -10.762467   1.000000
     11        -10.715930   1.000000
     12        -10.712253   1.000000
     13        -10.651925   1.000000
     14        -10.643725   1.000000
     15        -10.606942   1.000000
     16        -10.597269   1.000000
     17          2.369848   0.000000
     18          3.593605   0.000000
     19          7.651801   0.000000
     20          8.056213   0.000000
     21          8.737932   0.000000
     22          9.198261   0.000000
     23          9.443817   0.000000
     24          9.511630   0.000000
     25         12.578267   0.000000
     26         12.709376   0.000000
     27         12.713813   0.000000
     28         13.008025   0.000000
     29         13.795329   0.000000
     30         15.217841   0.000000
     31         15.409684   0.000000
     32         15.836530   0.000000
     33         16.464548   0.000000
     34         16.534583   0.000000
     35         19.350152   0.000000
     36         19.608146   0.000000
     37         20.712984   0.000000
     38         21.937453   0.000000
     39         22.333824   0.000000
     40         22.638034   0.000000
     41         23.097419   0.000000
     42         23.309516   0.000000
     43         24.365433   0.000000
     44         25.060669   0.000000
     45         25.444721   0.000000
     46         25.563792   0.000000
     47         25.696129   0.000000
     48         25.859738   0.000000
 
  0.5000000E+00  0.8333333E-01  0.0000000E+00  0.6944444E-02
      1        -33.847658   1.000000
      2        -33.847658   1.000000
      3        -33.812023   1.000000
      4        -33.812023   1.000000
      5        -10.882119   1.000000
      6        -10.882119   1.000000
      7        -10.869330   1.000000
      8        -10.869330   1.000000
      9        -10.824549   1.000000
     10        -10.824549   1.000000
     11        -10.714959   1.000000
     12        -10.714959   1.000000
     13        -10.629432   1.000000
     14        -10.629432   1.000000
     15        -10.620394   1.000000
     16        -10.620394   1.000000
     17          2.943611   0.000000
     18          2.943611   0.000000
     19          7.920790   0.000000
     20          7.920790   0.000000
     21          9.090650   0.000000
     22          9.090650   0.000000
     23          9.288115   0.000000
     24          9.288115   0.000000
     25         12.498261   0.000000
     26         12.498261   0.000000
     27         13.211762   0.000000
     28         13.211762   0.000000
     29         14.160469   0.000000
     30         14.160469   0.000000
     31         15.828587   0.000000
     32         15.828587   0.000000
     33         16.154579   0.000000
     34         16.154579   0.000000
     35         20.803275   0.000000
     36         20.803275   0.000000
     37         21.073303   0.000000
     38         21.073303   0.000000
     39         21.318058   0.000000
     40         21.318058   0.000000
     41         24.217492   0.000000
     42         24.217492   0.000000
     43         24.543841   0.000000
     44         24.543841   0.000000
     45         24.948946   0.000000
     46         24.948946   0.000000
     47         26.556737   0.000000
     48         26.556738   0.000000
 
  0.1666667E+00  0.1666667E+00  0.0000000E+00  0.6944444E-02
      1        -33.875643   1.000000
      2        -33.816119   1.000000
      3        -33.816119   1.000000
      4        -33.811831   1.000000
      5        -10.994529   1.000000
      6        -10.994529   1.000000
      7        -10.992487   1.000000
      8        -10.775407   1.000000
      9        -10.720441   1.000000
     10        -10.720441   1.000000
     11        -10.699218   1.000000
     12        -10.699218   1.000000
     13        -10.692575   1.000000
     14        -10.634188   1.000000
     15        -10.563241   1.000000
     16        -10.544314   1.000000
     17          1.374785   0.000000
     18          6.043637   0.000000
     19          6.043637   0.000000
     20          7.749208   0.000000
     21          8.172690   0.000000
     22          9.771226   0.000000
     23          9.771226   0.000000
     24         10.325050   0.000000
     25         11.236274   0.000000
     26         11.236274   0.000000
     27         14.229955   0.000000
     28         14.229955   0.000000
     29         15.003258   0.000000
     30         15.206240   0.000000
     31         15.368229   0.000000
     32         16.062930   0.000000
     33         16.062930   0.000000
     34         16.622386   0.000000
     35         18.273795   0.000000
     36         20.070693   0.000000
     37         20.070693   0.000000
     38         20.427337   0.000000
     39         20.840475   0.000000
     40         21.031210   0.000000
     41         21.247540   0.000000
     42         23.758679   0.000000
     43         24.004444   0.000000
     44         24.299650   0.000000
     45         26.299570   0.000000
     46         26.532974   0.000000
     47         26.532974   0.000000
     48         27.328716   0.000000
 
  0.2500000E+00  0.1666667E+00  0.0000000E+00  0.1388889E-01
      1        -33.870142   1.000000
      2        -33.821549   1.000000
      3        -33.815671   1.000000
      4        -33.812180   1.000000
      5        -10.977967   1.000000
      6        -10.970802   1.000000
      7        -10.967703   1.000000
      8        -10.805676   1.000000
      9        -10.745569   1.000000
     10        -10.706020   1.000000
     11        -10.698614   1.000000
     12        -10.686514   1.000000
     13        -10.681680   1.000000
     14        -10.681420   1.000000
     15        -10.577679   1.000000
     16        -10.551114   1.000000
     17          1.659000   0.000000
     18          5.224074   0.000000
     19          6.258176   0.000000
     20          7.851416   0.000000
     21          8.328970   0.000000
     22          9.822447   0.000000
     23          9.835497   0.000000
     24         10.659763   0.000000
     25         10.771926   0.000000
     26         11.448258   0.000000
     27         13.694389   0.000000
     28         14.447568   0.000000
     29         14.481598   0.000000
     30         14.520759   0.000000
     31         15.998286   0.000000
     32         16.214152   0.000000
     33         16.289950   0.000000
     34         17.127502   0.000000
     35         18.214661   0.000000
     36         19.287888   0.000000
     37         20.366576   0.000000
     38         21.001930   0.000000
     39         21.558098   0.000000
     40         21.790597   0.000000
     41         21.834336   0.000000
     42         23.541603   0.000000
     43         24.314890   0.000000
     44         25.005871   0.000000
     45         25.506347   0.000000
     46         25.806384   0.000000
     47         25.979791   0.000000
     48         26.720526   0.000000
 
  0.3333333E+00  0.1666667E+00  0.0000000E+00  0.1388889E-01
      1        -33.862973   1.000000
      2        -33.828633   1.000000
      3        -33.815095   1.000000
      4        -33.812642   1.000000
      5        -10.956135   1.000000
      6        -10.937522   1.000000
      7        -10.935337   1.000000
      8        -10.837628   1.000000
      9        -10.778251   1.000000
     10        -10.735122   1.000000
     11        -10.696961   1.000000
     12        -10.687246   1.000000
     13        -10.685072   1.000000
     14        -10.659527   1.000000
     15        -10.596483   1.000000
     16        -10.565450   1.000000
     17          2.046929   0.000000
     18          4.454211   0.000000
     19          6.546703   0.000000
     20          7.849081   0.000000
     21          8.550121   0.000000
     22          9.505963   0.000000
     23          9.863522   0.000000
     24         10.111223   0.000000
     25         11.744484   0.000000
     26         11.789185   0.000000
     27         13.264251   0.000000
     28         13.751934   0.000000
     29         13.933068   0.000000
     30         14.844224   0.000000
     31         15.325352   0.000000
     32         16.428276   0.000000
     33         17.500476   0.000000
     34         17.859674   0.000000
     35         18.035825   0.000000
     36         18.353634   0.000000
     37         20.766809   0.000000
     38         22.039210   0.000000
     39         22.202022   0.000000
     40         22.856510   0.000000
     41         22.900825   0.000000
     42         23.169274   0.000000
     43         23.418812   0.000000
     44         24.345177   0.000000
     45         24.884611   0.000000
     46         25.108500   0.000000
     47         26.630371   0.000000
     48         26.849675   0.000000
 
  0.4166667E+00  0.1666667E+00  0.0000000E+00  0.1388889E-01
      1        -33.854677   1.000000
      2        -33.836896   1.000000
      3        -33.814471   1.000000
      4        -33.813205   1.000000
      5        -10.930128   1.000000
      6        -10.897575   1.000000
      7        -10.895359   1.000000
      8        -10.869810   1.000000