<?xml version="1.0" encoding="ISO-8859-1"?>
<modeling>
 <generator>
  <i name="program" type="string">vasp </i>
  <i name="version" type="string">6.4.3  </i>
  <i name="subversion" type="string">19Mar24 (build Jun 26 2024 13:02:28) complex                          parallel </i>
  <i name="platform" type="string">LinuxIFC </i>
  <i name="date" type="string">2025 08 08 </i>
  <i name="time" type="string">19:01:19 </i>
 </generator>
 <incar>
  <i type="string" name="SYSTEM">Ne</i>
  <i type="int" name="IBRION">    -1</i>
  <i type="int" name="ISYM">     2</i>
  <i name="ENCUT">    446.68780000</i>
  <i type="int" name="ISMEAR">     0</i>
  <i name="SIGMA">      0.05000000</i>
  <i type="logical" name="LWAVE"> T  </i>
  <i type="logical" name="LCHARG"> T  </i>
 </incar>
 <primitive_cell>
  <structure name="primitive_cell" >
   <crystal>
    <varray name="basis" >
     <v>       2.31131000      -2.31131000       0.00000000 </v>
     <v>       2.31131000       0.00000000       2.31131000 </v>
     <v>      -0.00000000      -2.31131000       2.31131000 </v>
    </varray>
    <i name="volume">     24.69474754 </i>
    <varray name="rec_basis" >
     <v>       0.21632754      -0.21632754      -0.21632754 </v>
     <v>       0.21632754       0.21632754       0.21632754 </v>
     <v>      -0.21632754      -0.21632754       0.21632754 </v>
    </varray>
   </crystal>
   <varray name="positions" >
    <v>       0.00000000       0.00000000       0.00000000 </v>
   </varray>
  </structure>
  <varray name="primitive_index" >
   <v type="int" >        1 </v>
  </varray>
 </primitive_cell>
 <kpoints>
  <generation param="Gamma">
   <v type="int" name="divisions">      12       12       12 </v>
   <v name="usershift">      0.00000000       0.00000000       0.00000000 </v>
   <v name="genvec1">      0.08333333      -0.00000000       0.00000000 </v>
   <v name="genvec2">      0.00000000       0.08333333       0.00000000 </v>
   <v name="genvec3">      0.00000000      -0.00000000       0.08333333 </v>
   <v name="shift">      0.00000000       0.00000000       0.00000000 </v>
  </generation>
  <varray name="kpointlist" >
   <v>       0.00000000       0.00000000       0.00000000 </v>
   <v>       0.08333333       0.00000000       0.00000000 </v>
   <v>       0.16666667      -0.00000000       0.00000000 </v>
   <v>       0.25000000      -0.00000000       0.00000000 </v>
   <v>       0.33333333       0.00000000       0.00000000 </v>
   <v>       0.41666667       0.00000000       0.00000000 </v>
   <v>       0.50000000      -0.00000000       0.00000000 </v>
   <v>       0.08333333       0.08333333       0.00000000 </v>
   <v>       0.16666667       0.08333333       0.00000000 </v>
   <v>       0.25000000       0.08333333       0.00000000 </v>
   <v>       0.33333333       0.08333333       0.00000000 </v>
   <v>       0.41666667       0.08333333       0.00000000 </v>
   <v>       0.50000000       0.08333333       0.00000000 </v>
   <v>       0.16666667       0.16666667       0.00000000 </v>
   <v>       0.25000000       0.16666667       0.00000000 </v>
   <v>       0.33333333       0.16666667       0.00000000 </v>
   <v>       0.41666667       0.16666667       0.00000000 </v>
   <v>       0.50000000       0.16666667       0.00000000 </v>
   <v>       0.25000000       0.25000000       0.00000000 </v>
   <v>       0.33333333       0.25000000       0.00000000 </v>
   <v>       0.41666667       0.25000000       0.00000000 </v>
   <v>       0.50000000       0.25000000       0.00000000 </v>
   <v>       0.33333333       0.33333333       0.00000000 </v>
   <v>       0.41666667       0.33333333       0.00000000 </v>
   <v>       0.50000000       0.33333333       0.00000000 </v>
   <v>       0.41666667       0.41666667       0.00000000 </v>
   <v>       0.50000000       0.41666667       0.00000000 </v>
   <v>       0.50000000       0.50000000       0.00000000 </v>
   <v>       0.08333333       0.08333333       0.08333333 </v>
   <v>       0.16666667       0.08333333       0.08333333 </v>
   <v>       0.25000000       0.08333333       0.08333333 </v>
   <v>       0.33333333       0.08333333       0.08333333 </v>
   <v>       0.41666667       0.08333333       0.08333333 </v>
   <v>       0.50000000       0.08333333       0.08333333 </v>
   <v>       0.16666667       0.16666667       0.08333333 </v>
   <v>       0.25000000       0.16666667       0.08333333 </v>
   <v>       0.33333333       0.16666667       0.08333333 </v>
   <v>       0.41666667       0.16666667       0.08333333 </v>
   <v>       0.50000000       0.16666667       0.08333333 </v>
   <v>       0.25000000       0.25000000       0.08333333 </v>
   <v>       0.33333333       0.25000000       0.08333333 </v>
   <v>       0.41666667       0.25000000       0.08333333 </v>
   <v>       0.50000000       0.25000000       0.08333333 </v>
   <v>       0.33333333       0.33333333       0.08333333 </v>
   <v>       0.41666667       0.33333333       0.08333333 </v>
   <v>       0.50000000       0.33333333       0.08333333 </v>
   <v>       0.41666667       0.41666667       0.08333333 </v>
   <v>       0.50000000       0.41666667       0.08333333 </v>
   <v>       0.50000000       0.50000000       0.08333333 </v>
   <v>       0.16666667       0.16666667       0.16666667 </v>
   <v>       0.25000000       0.16666667       0.16666667 </v>
   <v>       0.33333333       0.16666667       0.16666667 </v>
   <v>       0.41666667       0.16666667       0.16666667 </v>
   <v>       0.50000000       0.16666667       0.16666667 </v>
   <v>       0.25000000       0.25000000       0.16666667 </v>
   <v>       0.33333333       0.25000000       0.16666667 </v>
   <v>       0.41666667       0.25000000       0.16666667 </v>
   <v>       0.50000000       0.25000000       0.16666667 </v>
   <v>       0.33333333       0.33333333       0.16666667 </v>
   <v>       0.41666667       0.33333333       0.16666667 </v>
   <v>       0.50000000       0.33333333       0.16666667 </v>
   <v>       0.41666667       0.41666667       0.16666667 </v>
   <v>       0.50000000       0.41666667       0.16666667 </v>
   <v>       0.50000000       0.50000000       0.16666667 </v>
   <v>       0.25000000       0.25000000       0.25000000 </v>
   <v>       0.33333333       0.25000000       0.25000000 </v>
   <v>       0.41666667       0.25000000       0.25000000 </v>
   <v>       0.50000000       0.25000000       0.25000000 </v>
   <v>       0.33333333       0.33333333       0.25000000 </v>
   <v>       0.41666667       0.33333333       0.25000000 </v>
   <v>       0.50000000       0.33333333       0.25000000 </v>
   <v>       0.41666667       0.41666667       0.25000000 </v>
   <v>       0.50000000       0.41666667       0.25000000 </v>
   <v>       0.50000000       0.50000000       0.25000000 </v>
   <v>       0.33333333       0.33333333       0.33333333 </v>
   <v>       0.41666667       0.33333333       0.33333333 </v>
   <v>       0.50000000       0.33333333       0.33333333 </v>
   <v>       0.41666667       0.41666667       0.33333333 </v>
   <v>       0.50000000       0.41666667       0.33333333 </v>
   <v>       0.50000000       0.50000000       0.33333333 </v>
   <v>       0.41666667       0.41666667       0.41666667 </v>
   <v>       0.50000000       0.41666667       0.41666667 </v>
   <v>       0.50000000       0.50000000       0.41666667 </v>
   <v>       0.50000000       0.50000000       0.50000000 </v>
  </varray>
  <varray name="weights" >
   <v>       0.00057870 </v>
   <v>       0.00347222 </v>
   <v>       0.00347222 </v>
   <v>       0.00347222 </v>
   <v>       0.00347222 </v>
   <v>       0.00347222 </v>
   <v>       0.00173611 </v>
   <v>       0.00694444 </v>
   <v>       0.01388889 </v>
   <v>       0.01388889 </v>
   <v>       0.01388889 </v>
   <v>       0.01388889 </v>
   <v>       0.00694444 </v>
   <v>       0.00694444 </v>
   <v>       0.01388889 </v>
   <v>       0.01388889 </v>
   <v>       0.01388889 </v>
   <v>       0.00694444 </v>
   <v>       0.00694444 </v>
   <v>       0.01388889 </v>
   <v>       0.01388889 </v>
   <v>       0.00694444 </v>
   <v>       0.00694444 </v>
   <v>       0.01388889 </v>
   <v>       0.00694444 </v>
   <v>       0.00694444 </v>
   <v>       0.00694444 </v>
   <v>       0.00173611 </v>
   <v>       0.00462963 </v>
   <v>       0.01388889 </v>
   <v>       0.01388889 </v>
   <v>       0.01388889 </v>
   <v>       0.01388889 </v>
   <v>       0.00694444 </v>
   <v>       0.01388889 </v>
   <v>       0.02777778 </v>
   <v>       0.02777778 </v>
   <v>       0.02777778 </v>
   <v>       0.01388889 </v>
   <v>       0.01388889 </v>
   <v>       0.02777778 </v>
   <v>       0.02777778 </v>
   <v>       0.01388889 </v>
   <v>       0.01388889 </v>
   <v>       0.02777778 </v>
   <v>       0.01388889 </v>
   <v>       0.01388889 </v>
   <v>       0.01388889 </v>
   <v>       0.00347222 </v>
   <v>       0.00462963 </v>
   <v>       0.01388889 </v>
   <v>       0.01388889 </v>
   <v>       0.01388889 </v>
   <v>       0.00694444 </v>
   <v>       0.01388889 </v>
   <v>       0.02777778 </v>
   <v>       0.02777778 </v>
   <v>       0.01388889 </v>
   <v>       0.01388889 </v>
   <v>       0.02777778 </v>
   <v>       0.01388889 </v>
   <v>       0.01388889 </v>
   <v>       0.01388889 </v>
   <v>       0.00347222 </v>
   <v>       0.00462963 </v>
   <v>       0.01388889 </v>
   <v>       0.01388889 </v>
   <v>       0.00694444 </v>
   <v>       0.01388889 </v>
   <v>       0.02777778 </v>
   <v>       0.01388889 </v>
   <v>       0.01388889 </v>
   <v>       0.01388889 </v>
   <v>       0.00347222 </v>
   <v>       0.00462963 </v>
   <v>       0.01388889 </v>
   <v>       0.00694444 </v>
   <v>       0.01388889 </v>
   <v>       0.01388889 </v>
   <v>       0.00347222 </v>
   <v>       0.00462963 </v>
   <v>       0.00694444 </v>
   <v>       0.00347222 </v>
   <v>       0.00057870 </v>
  </varray>
 </kpoints>
 <parameters>
  <separator name="general" >
   <i type="string" name="SYSTEM">Ne</i>
   <i type="logical" name="LCOMPAT"> F  </i>
  </separator>
  <separator name="electronic" >
   <i type="string" name="PREC">normal</i>
   <i name="ENMAX">    446.68780000</i>
   <i name="ENAUG">    589.42700000</i>
   <i name="EDIFF">      0.00010000</i>
   <i type="int" name="IALGO">    38</i>
   <i type="int" name="IWAVPR">    10</i>
   <i type="int" name="NBANDS">    48</i>
   <i type="int" name="NBANDSLOW">    -1</i>
   <i type="int" name="NBANDSHIGH">    -1</i>
   <i name="NELECT">     32.00000000</i>
   <i type="int" name="TURBO">     0</i>
   <i type="int" name="IRESTART">     0</i>
   <i type="int" name="NREBOOT">     0</i>
   <i type="int" name="NMIN">     0</i>
   <i name="EREF">      0.00000000</i>
   <separator name="electronic smearing" >
    <i type="int" name="ISMEAR">     0</i>
    <i name="SIGMA">      0.05000000</i>
    <i name="KSPACING">      0.50000000</i>
    <i type="logical" name="KGAMMA"> T  </i>
    <i type="logical" name="KBLOWUP"> T  </i>
   </separator>
   <separator name="electronic projectors" >
    <i type="logical" name="LREAL"> F  </i>
    <v name="ROPT">      0.00000000</v>
    <i type="int" name="LMAXPAW">  -100</i>
    <i type="int" name="LMAXMIX">     2</i>
    <i type="logical" name="NLSPLINE"> F  </i>
   </separator>
   <separator name="electronic startup" >
    <i type="int" name="ISTART">     1</i>
    <i type="int" name="ICHARG">     0</i>
    <i type="int" name="INIWAV">     1</i>
   </separator>
   <separator name="electronic spin" >
    <i type="int" name="ISPIN">     1</i>
    <i type="logical" name="LNONCOLLINEAR"> F  </i>
    <v name="MAGMOM">      1.00000000      1.00000000      1.00000000      1.00000000</v>
    <i name="NUPDOWN">     -1.00000000</i>
    <i type="logical" name="LSORBIT"> F  </i>
    <v name="SAXIS">      0.00000000      0.00000000      1.00000000</v>
    <i type="logical" name="LSPIRAL"> F  </i>
    <v name="QSPIRAL">      0.00000000      0.00000000      0.00000000</v>
    <i type="logical" name="LZEROZ"> F  </i>
   </separator>
   <separator name="electronic exchange-correlation" >
    <i type="logical" name="LASPH"> F  </i>
   </separator>
   <separator name="electronic convergence" >
    <i type="int" name="NELM">    60</i>
    <i type="int" name="NELMDL">     0</i>
    <i type="int" name="NELMIN">     2</i>
    <i name="ENINI">    446.68780000</i>
    <separator name="electronic convergence detail" >
     <i type="logical" name="LDIAG"> T  </i>
     <i type="logical" name="LSUBROT"> F  </i>
     <i name="WEIMIN">      0.00000000</i>
     <i name="EBREAK">      0.00000052</i>
     <i name="DEPER">      0.30000000</i>
     <i type="int" name="NRMM">     4</i>
     <i name="TIME">      0.40000000</i>
    </separator>
   </separator>
   <separator name="electronic mixer" >
    <i name="AMIX">      0.40000000</i>
    <i name="BMIX">      1.00000000</i>
    <i name="AMIN">      0.10000000</i>
    <i name="AMIX_MAG">      1.60000000</i>
    <i name="BMIX_MAG">      1.00000000</i>
    <separator name="electronic mixer details" >
     <i type="int" name="IMIX">     4</i>
     <i type="logical" name="MIXFIRST"> F  </i>
     <i type="int" name="MAXMIX">   -45</i>
     <i name="WC">    100.00000000</i>
     <i type="int" name="INIMIX">     1</i>
     <i type="int" name="MIXPRE">     1</i>
     <i type="int" name="MREMOVE">     5</i>
    </separator>
   </separator>
   <separator name="electronic dipolcorrection" >
    <i type="logical" name="LDIPOL"> F  </i>
    <i type="logical" name="LMONO"> F  </i>
    <i type="int" name="IDIPOL">     0</i>
    <i name="EPSILON">      1.00000000</i>
    <v name="DIPOL">   -100.00000000   -100.00000000   -100.00000000</v>
    <i name="EFIELD">      0.00000000</i>
    <i type="logical" name="LVACPOTAV"> F  </i>
   </separator>
  </separator>
  <separator name="grids" >
   <i type="int" name="NGX">    24</i>
   <i type="int" name="NGY">    24</i>
   <i type="int" name="NGZ">    24</i>
   <i type="int" name="NGXF">    48</i>
   <i type="int" name="NGYF">    48</i>
   <i type="int" name="NGZF">    48</i>
   <i type="logical" name="ADDGRID"> F  </i>
  </separator>
  <separator name="ionic" >
   <i type="int" name="NSW">     0</i>
   <i type="int" name="IBRION">    -1</i>
   <i type="int" name="MDALGO">     0</i>
   <i type="int" name="ISIF">     2</i>
   <i name="PSTRESS">      0.00000000</i>
   <i name="EDIFFG">      0.00100000</i>
   <i type="int" name="NFREE">     0</i>
   <i name="POTIM">      0.50000000</i>
   <i name="SMASS">     -3.00000000</i>
   <i name="SCALEE">      1.00000000</i>
  </separator>
  <separator name="ionic md" >
   <i name="TEBEG">      0.00010000</i>
   <i name="TEEND">      0.00010000</i>
   <i type="int" name="NBLOCK">     1</i>
   <i type="int" name="KBLOCK">     1</i>
   <i type="int" name="NPACO">   256</i>
   <i name="APACO">     10.00000000</i>
  </separator>
  <separator name="symmetry" >
   <i type="int" name="ISYM">     2</i>
   <i name="SYMPREC">      0.00001000</i>
  </separator>
  <separator name="dos" >
   <i type="int" name="LORBIT">     0</i>
   <v name="RWIGS">     -1.00000000</v>
   <i type="int" name="NEDOS">   301</i>
   <i name="EMIN">     10.00000000</i>
   <i name="EMAX">    -10.00000000</i>
   <i name="EFERMI">      0.00000000</i>
  </separator>
  <separator name="writing" >
   <i type="int" name="NWRITE">     2</i>
   <i type="logical" name="LWAVE"> T  </i>
   <i type="logical" name="LDOWNSAMPLE"> F  </i>
   <i type="logical" name="LCHARG"> T  </i>
   <i type="logical" name="LPARD"> F  </i>
   <i type="logical" name="LVTOT"> F  </i>
   <i type="logical" name="LVHAR"> F  </i>
   <i type="logical" name="LELF"> F  </i>
   <i type="logical" name="LOPTICS"> F  </i>
   <v name="STM">      0.00000000      0.00000000      0.00000000      0.00000000      0.00000000      0.00000000      0.00000000</v>
  </separator>
  <separator name="performance" >
   <i type="int" name="NPAR">    48</i>
   <i type="int" name="NSIM">     4</i>
   <i type="int" name="NBLK">    -1</i>
   <i type="logical" name="LPLANE"> T  </i>
   <i type="logical" name="LSCALAPACK"> T  </i>
   <i type="logical" name="LSCAAWARE"> F  </i>
   <i type="logical" name="LSCALU"> F  </i>
   <i type="logical" name="LASYNC"> F  </i>
   <i type="logical" name="LORBITALREAL"> F  </i>
  </separator>
  <separator name="miscellaneous" >
   <i type="int" name="IDIOT">     3</i>
   <i type="int" name="PHON_NSTRUCT">    -1</i>
   <i type="logical" name="LMUSIC"> F  </i>
   <v name="POMASS">     20.18000000</v>
   <v name="DARWINR">      0.00000000</v>
   <v name="DARWINV">      1.00000000</v>
   <i type="logical" name="LCORR"> T  </i>
  </separator>
  <i type="logical" name="GGA_COMPAT"> T  </i>
  <i type="logical" name="LBERRY"> F  </i>
  <i type="int" name="ICORELEVEL">     0</i>
  <i type="logical" name="LDAU"> F  </i>
  <i type="int" name="I_CONSTRAINED_M">     0</i>
  <separator name="electronic exchange-correlation" >
   <i type="string" name="GGA    ">PE</i>
   <i type="string" name="XC_C">1</i>
   <i type="int" name="VOSKOWN">     0</i>
   <i type="logical" name="LHFCALC"> F  </i>
   <i type="string" name="PRECFOCK"></i>
   <i type="logical" name="LSYMGRAD"> F  </i>
   <i type="logical" name="LHFONE"> F  </i>
   <i type="logical" name="LRHFCALC"> F  </i>
   <i type="logical" name="LTHOMAS"> F  </i>
   <i type="logical" name="LMODELHF"> F  </i>
   <i type="logical" name="LFOCKACE"> F  </i>
   <i name="ENCUT4O">     -1.00000000</i>
   <i type="int" name="EXXOEP">     0</i>
   <i type="int" name="FOURORBIT">     0</i>
   <i name="AEXX">      0.00000000</i>
   <i name="HFALPHA">      0.00000000</i>
   <i name="MCALPHA">      0.00000000</i>
   <i name="ALDAX">      1.00000000</i>
   <i name="AGGAX">      1.00000000</i>
   <i name="AMGGAX">      1.00000000</i>
   <i name="ALDAC">      1.00000000</i>
   <i name="AGGAC">      1.00000000</i>
   <i name="AMGGAC">      1.00000000</i>
   <i type="int" name="NKREDX">     1</i>
   <i type="int" name="NKREDY">     1</i>
   <i type="int" name="NKREDZ">     1</i>
   <i type="logical" name="SHIFTRED"> F  </i>
   <i type="logical" name="ODDONLY"> F  </i>
   <i type="logical" name="EVENONLY"> F  </i>
   <i type="int" name="LMAXFOCK">     0</i>
   <i type="int" name="NMAXFOCKAE">     0</i>
   <i type="logical" name="LFOCKAEDFT"> F  </i>
   <i name="HFSCREEN">      0.00000000</i>
   <i name="HFSCREENC">      0.00000000</i>
   <i type="int" name="NBANDSGWLOW">     0</i>
  </separator>
  <separator name="vdW DFT" >
   <i type="logical" name="LUSE_VDW"> F  </i>
   <i type="int" name="IVDW_NL">    -1</i>
   <i type="logical" name="LSPIN_VDW"> F  </i>
   <i name="ZAB_VDW">     -0.84910000</i>
   <i name="GAMMA_VDW">      1.39626340</i>
   <i name="ALPHA_VDW">      0.00000000</i>
   <i name="PARAM1">      0.12340000</i>
   <i name="PARAM2">      1.00000000</i>
   <i name="BPARAM">      6.30000000</i>
   <i name="CPARAM">      0.00930000</i>
  </separator>
  <separator name="model GW" >
   <i type="int" name="MODEL_GW">     0</i>
   <i name="MODEL_EPS0">     14.81684852</i>
   <i name="MODEL_ALPHA">      1.00000000</i>
  </separator>
  <separator name="linear response parameters" >
   <i type="logical" name="LEPSILON"> F  </i>
   <i type="logical" name="LRPA"> F  </i>
   <i type="logical" name="LNABLA"> F  </i>
   <i type="logical" name="LVEL"> F  </i>
   <i name="CSHIFT">      0.10000000</i>
   <i name="OMEGAMAX">     -1.00000000</i>
   <i name="DEG_THRESHOLD">      0.00200000</i>
   <i name="RTIME">     -0.10000000</i>
   <i name="WPLASMAI">      0.00000000</i>
   <v name="DFIELD">      0.00000000      0.00000000      0.00000000</v>
   <v name="WPLASMA">      0.00000000      0.00000000      0.00000000      0.00000000      0.00000000      0.00000000      0.00000000      0.00000000      0.00000000</v>
  </separator>
  <separator name="orbital magnetization" >
   <i type="logical" name="NUCIND"> F  </i>
   <v name="MAGPOS">      0.00000000      0.00000000      0.00000000</v>
   <i type="logical" name="LNICSALL"> T  </i>
   <i type="logical" name="ORBITALMAG"> F  </i>
   <i type="logical" name="LMAGBLOCH"> F  </i>
   <i type="logical" name="LCHIMAG"> F  </i>
   <i type="logical" name="LGAUGE"> T  </i>
   <i type="int" name="MAGATOM">     0</i>
   <v name="MAGDIPOL">      0.00000000      0.00000000      0.00000000</v>
   <v name="AVECCONST">      0.00000000      0.00000000      0.00000000</v>
  </separator>
  <separator name="response functions" >
   <i type="logical" name="LALL_IN_ONE"> F  </i>
   <i type="int" name="IALL_IN_ONE">    -1</i>
   <i type="int" name="NBANDS_WAVE">    -1</i>
   <i type="logical" name="LFINITE_TEMPERATURE"> F  </i>
   <i type="logical" name="LADDER"> F  </i>
   <i type="logical" name="LRPAFORCE"> F  </i>
   <i type="logical" name="LFXC"> F  </i>
   <i type="logical" name="LHARTREE"> T  </i>
   <i type="int" name="IBSE">     0</i>
   <v type="int" name="KPOINT">    -1     0     0     0</v>
   <i type="logical" name="LTCTC"> F  </i>
   <i type="logical" name="LTCTE"> F  </i>
   <i type="logical" name="LTETE"> F  </i>
   <i type="logical" name="LTRIPLET"> F  </i>
   <i type="logical" name="LFXCEPS"> F  </i>
   <i type="logical" name="LFXHEG"> F  </i>
   <i type="int" name="NATURALO">     2</i>
   <i type="logical" name="LHOLEGF"> F  </i>
   <i type="logical" name="L2ORDER"> F  </i>
   <i type="logical" name="LDMP1"> F  </i>
   <i type="logical" name="LMP2LT"> F  </i>
   <i type="logical" name="LSMP2LT"> F  </i>
   <i type="logical" name="LGWLF"> F  </i>
   <i name="ENCUTGW">     -1.60000002</i>
   <i name="ENCUTGWSOFT">     -1.60000002</i>
   <i name="ENCUTLF">     -1.00000000</i>
   <i type="logical" name="ESF_SPLINES"> F  </i>
   <i name="ESF_CONV">      0.01000000</i>
   <i type="int" name="ESF_NINTER">    15</i>
   <i type="int" name="LMAXMP2">    -1</i>
   <i name="SCISSOR">      0.00000000</i>
   <i type="int" name="NOMEGA">     0</i>
   <i type="int" name="NOMEGAR">     0</i>
   <i type="int" name="NBANDSGW">    -1</i>
   <i type="int" name="NBANDSO">    -1</i>
   <i type="int" name="NBANDSV">    -1</i>
   <i type="int" name="NELMGW">     1</i>
   <i type="int" name="NELMHF">     1</i>
   <i type="int" name="DIM">     3</i>
   <i type="int" name="IESPILON">     4</i>
   <i type="int" name="ANTIRES">     0</i>
   <i name="OMEGAMAX">    -30.00000000</i>
   <i name="OMEGAMIN">    -30.00000000</i>
   <i name="OMEGATL">   -200.00000000</i>
   <i type="int" name="OMEGAGRID">     0</i>
   <i name="CSHIFT">     -0.10000000</i>
   <i type="logical" name="LSELFENERGY"> F  </i>
   <i type="logical" name="LSPECTRAL"> F  </i>
   <i type="logical" name="LSPECTRALGW"> F  </i>
   <i type="logical" name="LSINGLES"> F  </i>
   <i type="logical" name="LFERMIGW"> F  </i>
   <i type="logical" name="ODDONLYGW"> F  </i>
   <i type="logical" name="EVENONLYGW"> F  </i>
   <i type="int" name="NKREDLFX">     1</i>
   <i type="int" name="NKREDLFY">     1</i>
   <i type="int" name="NKREDLFZ">     1</i>
   <i type="int" name="MAXMEM">  2800</i>
   <i type="int" name="TELESCOPE">     0</i>
   <i type="int" name="NTAUPAR">    -1</i>
   <i type="int" name="NOMEGAPAR">    -1</i>
   <i name="DAMP_NEWTON">      0.80000001</i>
   <i name="LAMBDA">      1.00000000</i>
  </separator>
  <separator name="External order field" >
   <i name="OFIELD_KAPPA">      0.00000000</i>
   <v name="OFIELD_K">      0.00000000      0.00000000      0.00000000</v>
   <i name="OFIELD_Q6_NEAR">      0.00000000</i>
   <i name="OFIELD_Q6_FAR">      0.00000000</i>
   <i name="OFIELD_A">      0.00000000</i>
  </separator>
  <separator name="optional k-points parameters" >
   <i type="int" name="KPOINTS_OPT_MODE">     1</i>
   <i type="logical" name="LKPOINTS_OPT"> T  </i>
  </separator>
 </parameters>
 <atominfo>
  <atoms>       4 </atoms>
  <types>       1 </types>
  <array name="atoms" >
   <dimension dim="1">ion</dimension>
   <field type="string">element</field>
   <field type="int">atomtype</field>
   <set>
    <rc><c>Ne</c><c>   1</c></rc>
    <rc><c>Ne</c><c>   1</c></rc>
    <rc><c>Ne</c><c>   1</c></rc>
    <rc><c>Ne</c><c>   1</c></rc>
   </set>
  </array>
  <array name="atomtypes" >
   <dimension dim="1">type</dimension>
   <field type="int">atomspertype</field>
   <field type="string">element</field>
   <field>mass</field>
   <field>valence</field>
   <field type="string">pseudopotential</field>
   <set>
    <rc><c>   4</c><c>Ne</c><c>     20.18000000</c><c>      8.00000000</c><c>PAW_PBE Ne 05Jan2001                    </c></rc>
   </set>
  </array>
 </atominfo>
 <structure name="initialpos" >
  <crystal>
   <varray name="basis" >
    <v>       4.62262000       0.00000000       0.00000000 </v>
    <v>       0.00000000       4.62262000       0.00000000 </v>
    <v>       0.00000000       0.00000000       4.62262000 </v>
   </varray>
   <i name="volume">     98.77899014 </i>
   <varray name="rec_basis" >
    <v>       0.21632754      -0.00000000       0.00000000 </v>
    <v>       0.00000000       0.21632754       0.00000000 </v>
    <v>      -0.00000000      -0.00000000       0.21632754 </v>
   </varray>
  </crystal>
  <varray name="positions" >
   <v>       0.00000000       0.00000000       0.00000000 </v>
   <v>       0.00000000       0.50000000       0.50000000 </v>
   <v>       0.50000000       0.00000000       0.50000000 </v>
   <v>       0.50000000       0.50000000       0.00000000 </v>
  </varray>
 </structure>
 <calculation>
  <scstep>
   <time name="dav">    1.75    1.83</time>
   <time name="total">    1.77    1.85</time>
   <energy>
    <i name="alphaZ">     25.19147649 </i>
    <i name="ewald">  -1828.11759585 </i>
    <i name="hartreedc">  -1629.82111075 </i>
    <i name="XCdc">    191.73754395 </i>
    <i name="pawpsdc">   3155.69785165 </i>
    <i name="pawaedc">  -3207.19539779 </i>
    <i name="eentropy">     -0.00000000 </i>
    <i name="bandstr">   -528.82187506 </i>
    <i name="atom">   3821.20393578 </i>
    <i name="e_fr_energy">     -0.12517158 </i>
    <i name="e_wo_entrp">     -0.12517158 </i>
    <i name="e_0_energy">     -0.12517158 </i>
   </energy>
  </scstep>
  <scstep>
   <time name="dav">    1.02    1.02</time>
   <time name="total">    1.03    1.03</time>
   <energy>
    <i name="alphaZ">     25.19147649 </i>
    <i name="ewald">  -1828.11759585 </i>
    <i name="hartreedc">  -1629.81806884 </i>
    <i name="XCdc">    191.73736180 </i>
    <i name="pawpsdc">   3155.69516920 </i>
    <i name="pawaedc">  -3207.19239903 </i>
    <i name="eentropy">     -0.00000000 </i>
    <i name="bandstr">   -528.82505113 </i>
    <i name="atom">   3821.20393578 </i>
    <i name="e_fr_energy">     -0.12517158 </i>
    <i name="e_wo_entrp">     -0.12517158 </i>
    <i name="e_0_energy">     -0.12517158 </i>
   </energy>
  </scstep>
  <structure>
   <crystal>
    <varray name="basis" >
     <v>       4.62262000       0.00000000       0.00000000 </v>
     <v>       0.00000000       4.62262000       0.00000000 </v>
     <v>       0.00000000       0.00000000       4.62262000 </v>
    </varray>
    <i name="volume">     98.77899014 </i>
    <varray name="rec_basis" >
     <v>       0.21632754      -0.00000000       0.00000000 </v>
     <v>       0.00000000       0.21632754       0.00000000 </v>
     <v>      -0.00000000      -0.00000000       0.21632754 </v>
    </varray>
   </crystal>
   <varray name="positions" >
    <v>       0.00000000       0.00000000       0.00000000 </v>
    <v>       0.00000000       0.50000000       0.50000000 </v>
    <v>       0.50000000       0.00000000       0.50000000 </v>
    <v>       0.50000000       0.50000000       0.00000000 </v>
   </varray>
  </structure>
  <varray name="forces" >
   <v>       0.00000000       0.00000000       0.00000000 </v>
   <v>       0.00000000       0.00000000      -0.00000000 </v>
   <v>      -0.00000000      -0.00000000       0.00000000 </v>
   <v>      -0.00000000      -0.00000000      -0.00000000 </v>
  </varray>
  <varray name="stress" >
   <v>      -0.56428786      -0.00000000      -0.00000000 </v>
   <v>      -0.00000000      -0.56428786      -0.00000000 </v>
   <v>      -0.00000000       0.00000000      -0.56428786 </v>
  </varray>
  <energy>
   <i name="e_fr_energy">     -0.12517158 </i>
   <i name="e_wo_entrp">     -0.12517158 </i>
   <i name="e_0_energy">     -0.12517158 </i>
  </energy>
  <dos comment="kpoints_opt">
   <i name="efermi">     -2.39090189 </i>
   <total>
    <array>
     <dimension dim="1">gridpoints</dimension>
     <dimension dim="2">spin</dimension>
     <field>energy</field>
     <field>total</field>
     <field>integrated</field>
     <set>
      <set comment="spin 1">
       <r>   -37.0336     0.0000     0.0000 </r>
       <r>   -36.8028     0.0000     0.0000 </r>
       <r>   -36.5719     0.0000     0.0000 </r>
       <r>   -36.3410     0.0000     0.0000 </r>
       <r>   -36.1101     0.0000     0.0000 </r>
       <r>   -35.8792     0.0000     0.0000 </r>
       <r>   -35.6483     0.0000     0.0000 </r>
       <r>   -35.4175     0.0000     0.0000 </r>
       <r>   -35.1866     0.0000     0.0000 </r>
       <r>   -34.9557     0.0000     0.0000 </r>
       <r>   -34.7248     0.0000     0.0000 </r>
       <r>   -34.4939     0.0000     0.0000 </r>
       <r>   -34.2631     0.0000     0.0000 </r>
       <r>   -34.0322     0.0000     0.0000 </r>
       <r>   -33.8013    26.5066     6.1199 </r>
       <r>   -33.5704     8.1434     8.0000 </r>
       <r>   -33.3395     0.0000     8.0000 </r>
       <r>   -33.1087     0.0000     8.0000 </r>
       <r>   -32.8778     0.0000     8.0000 </r>
       <r>   -32.6469     0.0000     8.0000 </r>
       <r>   -32.4160     0.0000     8.0000 </r>
       <r>   -32.1851     0.0000     8.0000 </r>
       <r>   -31.9543     0.0000     8.0000 </r>
       <r>   -31.7234     0.0000     8.0000 </r>
       <r>   -31.4925     0.0000     8.0000 </r>
       <r>   -31.2616     0.0000     8.0000 </r>
       <r>   -31.0307     0.0000     8.0000 </r>
       <r>   -30.7999     0.0000     8.0000 </r>
       <r>   -30.5690     0.0000     8.0000 </r>
       <r>   -30.3381     0.0000     8.0000 </r>
       <r>   -30.1072     0.0000     8.0000 </r>
       <r>   -29.8763     0.0000     8.0000 </r>
       <r>   -29.6455     0.0000     8.0000 </r>
       <r>   -29.4146     0.0000     8.0000 </r>
       <r>   -29.1837     0.0000     8.0000 </r>
       <r>   -28.9528     0.0000     8.0000 </r>
       <r>   -28.7219     0.0000     8.0000 </r>
       <r>   -28.4911     0.0000     8.0000 </r>
       <r>   -28.2602     0.0000     8.0000 </r>
       <r>   -28.0293     0.0000     8.0000 </r>
       <r>   -27.7984     0.0000     8.0000 </r>
       <r>   -27.5675     0.0000     8.0000 </r>
       <r>   -27.3366     0.0000     8.0000 </r>
       <r>   -27.1058     0.0000     8.0000 </r>
       <r>   -26.8749     0.0000     8.0000 </r>
       <r>   -26.6440     0.0000     8.0000 </r>
       <r>   -26.4131     0.0000     8.0000 </r>
       <r>   -26.1822     0.0000     8.0000 </r>
       <r>   -25.9514     0.0000     8.0000 </r>
       <r>   -25.7205     0.0000     8.0000 </r>
       <r>   -25.4896     0.0000     8.0000 </r>
       <r>   -25.2587     0.0000     8.0000 </r>
       <r>   -25.0278     0.0000     8.0000 </r>
       <r>   -24.7970     0.0000     8.0000 </r>
       <r>   -24.5661     0.0000     8.0000 </r>
       <r>   -24.3352     0.0000     8.0000 </r>
       <r>   -24.1043     0.0000     8.0000 </r>
       <r>   -23.8734     0.0000     8.0000 </r>
       <r>   -23.6426     0.0000     8.0000 </r>
       <r>   -23.4117     0.0000     8.0000 </r>
       <r>   -23.1808     0.0000     8.0000 </r>
       <r>   -22.9499     0.0000     8.0000 </r>
       <r>   -22.7190     0.0000     8.0000 </r>
       <r>   -22.4882     0.0000     8.0000 </r>
       <r>   -22.2573     0.0000     8.0000 </r>
       <r>   -22.0264     0.0000     8.0000 </r>
       <r>   -21.7955     0.0000     8.0000 </r>
       <r>   -21.5646     0.0000     8.0000 </r>
       <r>   -21.3338     0.0000     8.0000 </r>
       <r>   -21.1029     0.0000     8.0000 </r>
       <r>   -20.8720     0.0000     8.0000 </r>
       <r>   -20.6411     0.0000     8.0000 </r>
       <r>   -20.4102     0.0000     8.0000 </r>
       <r>   -20.1793     0.0000     8.0000 </r>
       <r>   -19.9485     0.0000     8.0000 </r>
       <r>   -19.7176     0.0000     8.0000 </r>
       <r>   -19.4867     0.0000     8.0000 </r>
       <r>   -19.2558     0.0000     8.0000 </r>
       <r>   -19.0249     0.0000     8.0000 </r>
       <r>   -18.7941     0.0000     8.0000 </r>
       <r>   -18.5632     0.0000     8.0000 </r>
       <r>   -18.3323     0.0000     8.0000 </r>
       <r>   -18.1014     0.0000     8.0000 </r>
       <r>   -17.8705     0.0000     8.0000 </r>
       <r>   -17.6397     0.0000     8.0000 </r>
       <r>   -17.4088     0.0000     8.0000 </r>
       <r>   -17.1779     0.0000     8.0000 </r>
       <r>   -16.9470     0.0000     8.0000 </r>
       <r>   -16.7161     0.0000     8.0000 </r>
       <r>   -16.4853     0.0000     8.0000 </r>
       <r>   -16.2544     0.0000     8.0000 </r>
       <r>   -16.0235     0.0000     8.0000 </r>
       <r>   -15.7926     0.0000     8.0000 </r>
       <r>   -15.5617     0.0000     8.0000 </r>
       <r>   -15.3309     0.0000     8.0000 </r>
       <r>   -15.1000     0.0000     8.0000 </r>
       <r>   -14.8691     0.0000     8.0000 </r>
       <r>   -14.6382     0.0000     8.0000 </r>
       <r>   -14.4073     0.0000     8.0000 </r>
       <r>   -14.1765     0.0000     8.0000 </r>
       <r>   -13.9456     0.0000     8.0000 </r>
       <r>   -13.7147     0.0000     8.0000 </r>
       <r>   -13.4838     0.0000     8.0000 </r>
       <r>   -13.2529     0.0000     8.0000 </r>
       <r>   -13.0221     0.0000     8.0000 </r>
       <r>   -12.7912     0.0000     8.0000 </r>
       <r>   -12.5603     0.0000     8.0000 </r>
       <r>   -12.3294     0.0000     8.0000 </r>
       <r>   -12.0985     0.0000     8.0000 </r>
       <r>   -11.8676     0.0000     8.0000 </r>
       <r>   -11.6368     0.0000     8.0000 </r>
       <r>   -11.4059     0.0000     8.0000 </r>
       <r>   -11.1750     0.0001     8.0000 </r>
       <r>   -10.9441    22.3140    13.1519 </r>
       <r>   -10.7132    30.4242    20.1763 </r>
       <r>   -10.4824    50.9672    31.9436 </r>
       <r>   -10.2515     0.2443    32.0000 </r>
       <r>   -10.0206     0.0000    32.0000 </r>
       <r>    -9.7897     0.0000    32.0000 </r>
       <r>    -9.5588     0.0000    32.0000 </r>
       <r>    -9.3280     0.0000    32.0000 </r>
       <r>    -9.0971     0.0000    32.0000 </r>
       <r>    -8.8662     0.0000    32.0000 </r>
       <r>    -8.6353     0.0000    32.0000 </r>
       <r>    -8.4044     0.0000    32.0000 </r>
       <r>    -8.1736     0.0000    32.0000 </r>
       <r>    -7.9427     0.0000    32.0000 </r>
       <r>    -7.7118     0.0000    32.0000 </r>
       <r>    -7.4809     0.0000    32.0000 </r>
       <r>    -7.2500     0.0000    32.0000 </r>
       <r>    -7.0192     0.0000    32.0000 </r>
       <r>    -6.7883     0.0000    32.0000 </r>
       <r>    -6.5574     0.0000    32.0000 </r>
       <r>    -6.3265     0.0000    32.0000 </r>
       <r>    -6.0956     0.0000    32.0000 </r>
       <r>    -5.8648     0.0000    32.0000 </r>
       <r>    -5.6339     0.0000    32.0000 </r>
       <r>    -5.4030     0.0000    32.0000 </r>
       <r>    -5.1721     0.0000    32.0000 </r>
       <r>    -4.9412     0.0000    32.0000 </r>
       <r>    -4.7104     0.0000    32.0000 </r>
       <r>    -4.4795     0.0000    32.0000 </r>
       <r>    -4.2486     0.0000    32.0000 </r>
       <r>    -4.0177     0.0000    32.0000 </r>
       <r>    -3.7868     0.0000    32.0000 </r>
       <r>    -3.5559     0.0000    32.0000 </r>
       <r>    -3.3251     0.0000    32.0000 </r>
       <r>    -3.0942     0.0000    32.0000 </r>
       <r>    -2.8633     0.0000    32.0000 </r>
       <r>    -2.6324     0.0000    32.0000 </r>
       <r>    -2.4015     0.0000    32.0000 </r>
       <r>    -2.1707     0.0000    32.0000 </r>
       <r>    -1.9398     0.0000    32.0000 </r>
       <r>    -1.7089     0.0000    32.0000 </r>
       <r>    -1.4780     0.0000    32.0000 </r>
       <r>    -1.2471     0.0000    32.0000 </r>
       <r>    -1.0163     0.0000    32.0000 </r>
       <r>    -0.7854     0.0000    32.0000 </r>
       <r>    -0.5545     0.0000    32.0000 </r>
       <r>    -0.3236     0.0000    32.0000 </r>
       <r>    -0.0927     0.0000    32.0000 </r>
       <r>     0.1381     0.0000    32.0000 </r>
       <r>     0.3690     0.0000    32.0000 </r>
       <r>     0.5999     0.0000    32.0000 </r>
       <r>     0.8308     0.0050    32.0012 </r>
       <r>     1.0617     1.0027    32.2327 </r>
       <r>     1.2925     0.5625    32.3625 </r>
       <r>     1.5234     0.4096    32.4571 </r>
       <r>     1.7543     0.3390    32.5354 </r>
       <r>     1.9852     0.3013    32.6049 </r>
       <r>     2.2161     0.2745    32.6683 </r>
       <r>     2.4469     0.2485    32.7257 </r>
       <r>     2.6778     0.2395    32.7810 </r>
       <r>     2.9087     0.2340    32.8350 </r>
       <r>     3.1396     0.2041    32.8821 </r>
       <r>     3.3705     0.2175    32.9323 </r>
       <r>     3.6013     0.4114    33.0273 </r>
       <r>     3.8322     1.1987    33.3041 </r>
       <r>     4.0631     0.8893    33.5094 </r>
       <r>     4.2940     0.7947    33.6929 </r>
       <r>     4.5249     0.7186    33.8588 </r>
       <r>     4.7558     4.0932    34.8038 </r>
       <r>     4.9866     4.7325    35.8965 </r>
       <r>     5.2175     3.7804    36.7693 </r>
       <r>     5.4484     1.9468    37.2188 </r>
       <r>     5.6793     1.3233    37.5243 </r>
       <r>     5.9102     1.1754    37.7957 </r>
       <r>     6.1410     1.1576    38.0629 </r>
       <r>     6.3719     1.1318    38.3242 </r>
       <r>     6.6028     1.2769    38.6191 </r>
       <r>     6.8337     0.7145    38.7840 </r>
       <r>     7.0646     0.6970    38.9449 </r>
       <r>     7.2954     1.9044    39.3846 </r>
       <r>     7.5263     2.1396    39.8786 </r>
       <r>     7.7572     1.0089    40.1116 </r>
       <r>     7.9881     2.0810    40.5920 </r>
       <r>     8.2190     1.9895    41.0514 </r>
       <r>     8.4498     1.9164    41.4938 </r>
       <r>     8.6807     2.8795    42.1587 </r>
       <r>     8.9116     2.4322    42.7202 </r>
       <r>     9.1425     1.9543    43.1714 </r>
       <r>     9.3734     1.8674    43.6026 </r>
       <r>     9.6042     2.2879    44.1308 </r>
       <r>     9.8351     2.1593    44.6293 </r>
       <r>    10.0660     3.3949    45.4132 </r>
       <r>    10.2969     3.7358    46.2757 </r>
       <r>    10.5278     3.8542    47.1655 </r>
       <r>    10.7586     1.6161    47.5387 </r>
       <r>    10.9895     1.5748    47.9023 </r>
       <r>    11.2204     2.3045    48.4343 </r>
       <r>    11.4513     4.7065    49.5210 </r>
       <r>    11.6822     3.9408    50.4308 </r>
       <r>    11.9131     3.4846    51.2353 </r>
       <r>    12.1439     1.5475    51.5926 </r>
       <r>    12.3748     1.4839    51.9352 </r>
       <r>    12.6057     1.5108    52.2840 </r>
       <r>    12.8366     1.5362    52.6387 </r>
       <r>    13.0675     1.4863    52.9819 </r>
       <r>    13.2983     1.6042    53.3523 </r>
       <r>    13.5292     1.9948    53.8128 </r>
       <r>    13.7601     1.3113    54.1156 </r>
       <r>    13.9910     0.5106    54.2335 </r>
       <r>    14.2219     1.8552    54.6618 </r>
       <r>    14.4527     2.3212    55.1977 </r>
       <r>    14.6836     2.5547    55.7875 </r>
       <r>    14.9145     5.4740    57.0514 </r>
       <r>    15.1454     3.2597    57.8040 </r>
       <r>    15.3763     2.4312    58.3653 </r>
       <r>    15.6071     2.1367    58.8586 </r>
       <r>    15.8380     3.9720    59.7757 </r>
       <r>    16.0689     3.6222    60.6120 </r>
       <r>    16.2998     3.7824    61.4852 </r>
       <r>    16.5307     3.6494    62.3278 </r>
       <r>    16.7615     4.2337    63.3053 </r>
       <r>    16.9924     2.0117    63.7698 </r>
       <r>    17.2233     2.1608    64.2687 </r>
       <r>    17.4542     2.5196    64.8504 </r>
       <r>    17.6851     1.2288    65.1341 </r>
       <r>    17.9159     2.3076    65.6669 </r>
       <r>    18.1468     3.2248    66.4114 </r>
       <r>    18.3777     2.2230    66.9247 </r>
       <r>    18.6086     1.5038    67.2719 </r>
       <r>    18.8395     3.0555    67.9773 </r>
       <r>    19.0703     4.5083    69.0182 </r>
       <r>    19.3012     3.7562    69.8854 </r>
       <r>    19.5321     3.4169    70.6743 </r>
       <r>    19.7630     4.1890    71.6415 </r>
       <r>    19.9939     3.7362    72.5041 </r>
       <r>    20.2248     2.1840    73.0084 </r>
       <r>    20.4556     5.4569    74.2683 </r>
       <r>    20.6865     4.0247    75.1975 </r>
       <r>    20.9174     3.8543    76.0874 </r>
       <r>    21.1483     4.6344    77.1574 </r>
       <r>    21.3792     4.3667    78.1656 </r>
       <r>    21.6100     3.6100    78.9990 </r>
       <r>    21.8409     3.7985    79.8760 </r>
       <r>    22.0718     2.9364    80.5540 </r>
       <r>    22.3027     3.0412    81.2562 </r>
       <r>    22.5336     1.4810    81.5981 </r>
       <r>    22.7644     1.5425    81.9542 </r>
       <r>    22.9953     1.5082    82.3025 </r>
       <r>    23.2262     1.5810    82.6675 </r>
       <r>    23.4571     2.2892    83.1960 </r>
       <r>    23.6880     4.7690    84.2971 </r>
       <r>    23.9188     7.8425    86.1078 </r>
       <r>    24.1497     4.7404    87.2022 </r>
       <r>    24.3806     2.0866    87.6840 </r>
       <r>    24.6115     2.3684    88.2308 </r>
       <r>    24.8424     2.2355    88.7469 </r>
       <r>    25.0732     5.9406    90.1185 </r>
       <r>    25.3041     6.2005    91.5501 </r>
       <r>    25.5350     3.9188    92.4548 </r>
       <r>    25.7659     3.3324    93.2242 </r>
       <r>    25.9968     2.4095    93.7805 </r>
       <r>    26.2276     1.3075    94.0824 </r>
       <r>    26.4585     0.8804    94.2857 </r>
       <r>    26.6894     0.8188    94.4747 </r>
       <r>    26.9203     0.9359    94.6908 </r>
       <r>    27.1512     0.8680    94.8912 </r>
       <r>    27.3820     0.3468    94.9713 </r>
       <r>    27.6129     0.3167    95.0444 </r>
       <r>    27.8438     0.3472    95.1245 </r>
       <r>    28.0747     0.3485    95.2050 </r>
       <r>    28.3056     0.3435    95.2843 </r>
       <r>    28.5365     0.3643    95.3684 </r>
       <r>    28.7673     0.5382    95.4927 </r>
       <r>    28.9982     0.9362    95.7088 </r>
       <r>    29.2291     1.2611    96.0000 </r>
       <r>    29.4600     0.0000    96.0000 </r>
       <r>    29.6909     0.0000    96.0000 </r>
       <r>    29.9217     0.0000    96.0000 </r>
       <r>    30.1526     0.0000    96.0000 </r>
       <r>    30.3835     0.0000    96.0000 </r>
       <r>    30.6144     0.0000    96.0000 </r>
       <r>    30.8453     0.0000    96.0000 </r>
       <r>    31.0761     0.0000    96.0000 </r>
       <r>    31.3070     0.0000    96.0000 </r>
       <r>    31.5379     0.0000    96.0000 </r>
       <r>    31.7688     0.0000    96.0000 </r>
       <r>    31.9997     0.0000    96.0000 </r>
       <r>    32.2305     0.0000    96.0000 </r>
      </set>
     </set>
    </array>
   </total>
  </dos>
  <eigenvalues_kpoints_opt comment="kpoints_opt">
   <kpoints>
    <varray name="kpointlist" >
     <v>       0.00000000       0.00000000       0.00000000 </v>
     <v>       0.01041667       0.00000000       0.01041667 </v>
     <v>       0.02083333       0.00000000       0.02083333 </v>
     <v>       0.03125000       0.00000000       0.03125000 </v>
     <v>       0.04166667       0.00000000       0.04166667 </v>
     <v>       0.05208333       0.00000000       0.05208333 </v>
     <v>       0.06250000       0.00000000       0.06250000 </v>
     <v>       0.07291667       0.00000000       0.07291667 </v>
     <v>       0.08333333       0.00000000       0.08333333 </v>
     <v>       0.09375000       0.00000000       0.09375000 </v>
     <v>       0.10416667       0.00000000       0.10416667 </v>
     <v>       0.11458333       0.00000000       0.11458333 </v>
     <v>       0.12500000       0.00000000       0.12500000 </v>
     <v>       0.13541667       0.00000000       0.13541667 </v>
     <v>       0.14583333       0.00000000       0.14583333 </v>
     <v>       0.15625000       0.00000000       0.15625000 </v>
     <v>       0.16666667       0.00000000       0.16666667 </v>
     <v>       0.17708333       0.00000000       0.17708333 </v>
     <v>       0.18750000       0.00000000       0.18750000 </v>
     <v>       0.19791667       0.00000000       0.19791667 </v>
     <v>       0.20833333       0.00000000       0.20833333 </v>
     <v>       0.21875000       0.00000000       0.21875000 </v>
     <v>       0.22916667       0.00000000       0.22916667 </v>
     <v>       0.23958333       0.00000000       0.23958333 </v>
     <v>       0.25000000       0.00000000       0.25000000 </v>
     <v>       0.26041667       0.00000000       0.26041667 </v>
     <v>       0.27083333       0.00000000       0.27083333 </v>
     <v>       0.28125000       0.00000000       0.28125000 </v>
     <v>       0.29166667       0.00000000       0.29166667 </v>
     <v>       0.30208333       0.00000000       0.30208333 </v>
     <v>       0.31250000       0.00000000       0.31250000 </v>
     <v>       0.32291667       0.00000000       0.32291667 </v>
     <v>       0.33333333       0.00000000       0.33333333 </v>
     <v>       0.34375000       0.00000000       0.34375000 </v>
     <v>       0.35416667       0.00000000       0.35416667 </v>
     <v>       0.36458333       0.00000000       0.36458333 </v>
     <v>       0.37500000       0.00000000       0.37500000 </v>
     <v>       0.38541667       0.00000000       0.38541667 </v>
     <v>       0.39583333       0.00000000       0.39583333 </v>
     <v>       0.40625000       0.00000000       0.40625000 </v>
     <v>       0.41666667       0.00000000       0.41666667 </v>
     <v>       0.42708333       0.00000000       0.42708333 </v>
     <v>       0.43750000       0.00000000       0.43750000 </v>
     <v>       0.44791667       0.00000000       0.44791667 </v>
     <v>       0.45833333       0.00000000       0.45833333 </v>
     <v>       0.46875000       0.00000000       0.46875000 </v>
     <v>       0.47916667       0.00000000       0.47916667 </v>
     <v>       0.48958333       0.00000000       0.48958333 </v>
     <v>       0.50000000       0.00000000       0.50000000 </v>
     <v>       0.50000000       0.00000000       0.50000000 </v>
     <v>       0.50260417       0.00520833       0.50260417 </v>
     <v>       0.50520833       0.01041667       0.50520833 </v>
     <v>       0.50781250       0.01562500       0.50781250 </v>
     <v>       0.51041667       0.02083333       0.51041667 </v>
     <v>       0.51302083       0.02604167       0.51302083 </v>
     <v>       0.51562500       0.03125000       0.51562500 </v>
     <v>       0.51822917       0.03645833       0.51822917 </v>
     <v>       0.52083333       0.04166667       0.52083333 </v>
     <v>       0.52343750       0.04687500       0.52343750 </v>
     <v>       0.52604167       0.05208333       0.52604167 </v>
     <v>       0.52864583       0.05729167       0.52864583 </v>
     <v>       0.53125000       0.06250000       0.53125000 </v>
     <v>       0.53385417       0.06770833       0.53385417 </v>
     <v>       0.53645833       0.07291667       0.53645833 </v>
     <v>       0.53906250       0.07812500       0.53906250 </v>
     <v>       0.54166667       0.08333333       0.54166667 </v>
     <v>       0.54427083       0.08854167       0.54427083 </v>
     <v>       0.54687500       0.09375000       0.54687500 </v>
     <v>       0.54947917       0.09895833       0.54947917 </v>
     <v>       0.55208333       0.10416667       0.55208333 </v>
     <v>       0.55468750       0.10937500       0.55468750 </v>
     <v>       0.55729167       0.11458333       0.55729167 </v>
     <v>       0.55989583       0.11979167       0.55989583 </v>
     <v>       0.56250000       0.12500000       0.56250000 </v>
     <v>       0.56510417       0.13020833       0.56510417 </v>
     <v>       0.56770833       0.13541667       0.56770833 </v>
     <v>       0.57031250       0.14062500       0.57031250 </v>
     <v>       0.57291667       0.14583333       0.57291667 </v>
     <v>       0.57552083       0.15104167       0.57552083 </v>
     <v>       0.57812500       0.15625000       0.57812500 </v>
     <v>       0.58072917       0.16145833       0.58072917 </v>
     <v>       0.58333333       0.16666667       0.58333333 </v>
     <v>       0.58593750       0.17187500       0.58593750 </v>
     <v>       0.58854167       0.17708333       0.58854167 </v>
     <v>       0.59114583       0.18229167       0.59114583 </v>
     <v>       0.59375000       0.18750000       0.59375000 </v>
     <v>       0.59635417       0.19270833       0.59635417 </v>
     <v>       0.59895833       0.19791667       0.59895833 </v>
     <v>       0.60156250       0.20312500       0.60156250 </v>
     <v>       0.60416667       0.20833333       0.60416667 </v>
     <v>       0.60677083       0.21354167       0.60677083 </v>
     <v>       0.60937500       0.21875000       0.60937500 </v>
     <v>       0.61197917       0.22395833       0.61197917 </v>
     <v>       0.61458333       0.22916667       0.61458333 </v>
     <v>       0.61718750       0.23437500       0.61718750 </v>
     <v>       0.61979167       0.23958333       0.61979167 </v>
     <v>       0.62239583       0.24479167       0.62239583 </v>
     <v>       0.62500000       0.25000000       0.62500000 </v>
     <v>       0.62500000       0.25000000       0.62500000 </v>
     <v>       0.61197917       0.24479167       0.61197917 </v>
     <v>       0.59895833       0.23958333       0.59895833 </v>
     <v>       0.58593750       0.23437500       0.58593750 </v>
     <v>       0.57291667       0.22916667       0.57291667 </v>
     <v>       0.55989583       0.22395833       0.55989583 </v>
     <v>       0.54687500       0.21875000       0.54687500 </v>
     <v>       0.53385417       0.21354167       0.53385417 </v>
     <v>       0.52083333       0.20833333       0.52083333 </v>
     <v>       0.50781250       0.20312500       0.50781250 </v>
     <v>       0.49479167       0.19791667       0.49479167 </v>
     <v>       0.48177083       0.19270833       0.48177083 </v>
     <v>       0.46875000       0.18750000       0.46875000 </v>
     <v>       0.45572917       0.18229167       0.45572917 </v>
     <v>       0.44270833       0.17708333       0.44270833 </v>
     <v>       0.42968750       0.17187500       0.42968750 </v>
     <v>       0.41666667       0.16666667       0.41666667 </v>
     <v>       0.40364583       0.16145833       0.40364583 </v>
     <v>       0.39062500       0.15625000       0.39062500 </v>
     <v>       0.37760417       0.15104167       0.37760417 </v>
     <v>       0.36458333       0.14583333       0.36458333 </v>
     <v>       0.35156250       0.14062500       0.35156250 </v>
     <v>       0.33854167       0.13541667       0.33854167 </v>
     <v>       0.32552083       0.13020833       0.32552083 </v>
     <v>       0.31250000       0.12500000       0.31250000 </v>
     <v>       0.29947917       0.11979167       0.29947917 </v>
     <v>       0.28645833       0.11458333       0.28645833 </v>
     <v>       0.27343750       0.10937500       0.27343750 </v>
     <v>       0.26041667       0.10416667       0.26041667 </v>
     <v>       0.24739583       0.09895833       0.24739583 </v>
     <v>       0.23437500       0.09375000       0.23437500 </v>
     <v>       0.22135417       0.08854167       0.22135417 </v>
     <v>       0.20833333       0.08333333       0.20833333 </v>
     <v>       0.19531250       0.07812500       0.19531250 </v>
     <v>       0.18229167       0.07291667       0.18229167 </v>
     <v>       0.16927083       0.06770833       0.16927083 </v>
     <v>       0.15625000       0.06250000       0.15625000 </v>
     <v>       0.14322917       0.05729167       0.14322917 </v>
     <v>       0.13020833       0.05208333       0.13020833 </v>
     <v>       0.11718750       0.04687500       0.11718750 </v>
     <v>       0.10416667       0.04166667       0.10416667 </v>
     <v>       0.09114583       0.03645833       0.09114583 </v>
     <v>       0.07812500       0.03125000       0.07812500 </v>
     <v>       0.06510417       0.02604167       0.06510417 </v>
     <v>       0.05208333       0.02083333       0.05208333 </v>
     <v>       0.03906250       0.01562500       0.03906250 </v>
     <v>       0.02604167       0.01041667       0.02604167 </v>
     <v>       0.01302083       0.00520833       0.01302083 </v>
     <v>      -0.00000000       0.00000000      -0.00000000 </v>
    </varray>
    <varray name="weights" >
     <v>       0.00680272 </v>
     <v>       0.00680272 </v>
     <v>       0.00680272 </v>
     <v>       0.00680272 </v>
     <v>       0.00680272 </v>
     <v>       0.00680272 </v>
     <v>       0.00680272 </v>
     <v>       0.00680272 </v>
     <v>       0.00680272 </v>
     <v>       0.00680272 </v>
     <v>       0.00680272 </v>
     <v>       0.00680272 </v>
     <v>       0.00680272 </v>
     <v>       0.00680272 </v>
     <v>       0.00680272 </v>
     <v>       0.00680272 </v>
     <v>       0.00680272 </v>
     <v>       0.00680272 </v>
     <v>       0.00680272 </v>
     <v>       0.00680272 </v>
     <v>       0.00680272 </v>
     <v>       0.00680272 </v>
     <v>       0.00680272 </v>
     <v>       0.00680272 </v>
     <v>       0.00680272 </v>
     <v>       0.00680272 </v>
     <v>       0.00680272 </v>
     <v>       0.00680272 </v>
     <v>       0.00680272 </v>
     <v>       0.00680272 </v>
     <v>       0.00680272 </v>
     <v>       0.00680272 </v>
     <v>       0.00680272 </v>
     <v>       0.00680272 </v>
     <v>       0.00680272 </v>
     <v>       0.00680272 </v>
     <v>       0.00680272 </v>
     <v>       0.00680272 </v>
     <v>       0.00680272 </v>
     <v>       0.00680272 </v>
     <v>       0.00680272 </v>
     <v>       0.00680272 </v>
     <v>       0.00680272 </v>
     <v>       0.00680272 </v>
     <v>       0.00680272 </v>
     <v>       0.00680272 </v>
     <v>       0.00680272 </v>
     <v>       0.00680272 </v>
     <v>       0.00680272 </v>
     <v>       0.00680272 </v>
     <v>       0.00680272 </v>
     <v>       0.00680272 </v>
     <v>       0.00680272 </v>
     <v>       0.00680272 </v>
     <v>       0.00680272 </v>
     <v>       0.00680272 </v>
     <v>       0.00680272 </v>
     <v>       0.00680272 </v>
     <v>       0.00680272 </v>
     <v>       0.00680272 </v>
     <v>       0.00680272 </v>
     <v>       0.00680272 </v>
     <v>       0.00680272 </v>
     <v>       0.00680272 </v>
     <v>       0.00680272 </v>
     <v>       0.00680272 </v>
     <v>       0.00680272 </v>
     <v>       0.00680272 </v>
     <v>       0.00680272 </v>
     <v>       0.00680272 </v>
     <v>       0.00680272 </v>
     <v>       0.00680272 </v>
     <v>       0.00680272 </v>
     <v>       0.00680272 </v>
     <v>       0.00680272 </v>
     <v>       0.00680272 </v>
     <v>       0.00680272 </v>
     <v>       0.00680272 </v>
     <v>       0.00680272 </v>
     <v>       0.00680272 </v>
     <v>       0.00680272 </v>
     <v>       0.00680272 </v>
     <v>       0.00680272 </v>
     <v>       0.00680272 </v>
     <v>       0.00680272 </v>
     <v>       0.00680272 </v>
     <v>       0.00680272 </v>
     <v>       0.00680272 </v>
     <v>       0.00680272 </v>
     <v>       0.00680272 </v>
     <v>       0.00680272 </v>
     <v>       0.00680272 </v>
     <v>       0.00680272 </v>
     <v>       0.00680272 </v>
     <v>       0.00680272 </v>
     <v>       0.00680272 </v>
     <v>       0.00680272 </v>
     <v>       0.00680272 </v>
     <v>       0.00680272 </v>
     <v>       0.00680272 </v>
     <v>       0.00680272 </v>
     <v>       0.00680272 </v>
     <v>       0.00680272 </v>
     <v>       0.00680272 </v>
     <v>       0.00680272 </v>
     <v>       0.00680272 </v>
     <v>       0.00680272 </v>
     <v>       0.00680272 </v>
     <v>       0.00680272 </v>
     <v>       0.00680272 </v>
     <v>       0.00680272 </v>
     <v>       0.00680272 </v>
     <v>       0.00680272 </v>
     <v>       0.00680272 </v>
     <v>       0.00680272 </v>
     <v>       0.00680272 </v>
     <v>       0.00680272 </v>
     <v>       0.00680272 </v>
     <v>       0.00680272 </v>
     <v>       0.00680272 </v>
     <v>       0.00680272 </v>
     <v>       0.00680272 </v>
     <v>       0.00680272 </v>
     <v>       0.00680272 </v>
     <v>       0.00680272 </v>
     <v>       0.00680272 </v>
     <v>       0.00680272 </v>
     <v>       0.00680272 </v>
     <v>       0.00680272 </v>
     <v>       0.00680272 </v>
     <v>       0.00680272 </v>
     <v>       0.00680272 </v>
     <v>       0.00680272 </v>
     <v>       0.00680272 </v>
     <v>       0.00680272 </v>
     <v>       0.00680272 </v>
     <v>       0.00680272 </v>
     <v>       0.00680272 </v>
     <v>       0.00680272 </v>
     <v>       0.00680272 </v>
     <v>       0.00680272 </v>
     <v>       0.00680272 </v>
     <v>       0.00680272 </v>
     <v>       0.00680272 </v>
     <v>       0.00680272 </v>
     <v>       0.00680272 </v>
     <v>       0.00680272 </v>
    </varray>
   </kpoints>
   <eigenvalues>
    <array>
     <dimension dim="1">band</dimension>
     <dimension dim="2">kpoint</dimension>
     <dimension dim="3">spin</dimension>
     <field>eigene</field>
     <set>
      <set comment="spin 1">
       <set comment="kpoint 1">
        <r>  -33.8853 </r>
        <r>  -33.8116 </r>
        <r>  -33.8116 </r>
        <r>  -33.8116 </r>
        <r>  -11.0349 </r>
        <r>  -11.0349 </r>
        <r>  -11.0349 </r>
        <r>  -10.7107 </r>
        <r>  -10.7107 </r>
        <r>  -10.7107 </r>
        <r>  -10.7107 </r>
        <r>  -10.7107 </r>
        <r>  -10.7107 </r>
        <r>  -10.5396 </r>
        <r>  -10.5396 </r>
        <r>  -10.5396 </r>
        <r>    0.9061 </r>
        <r>    7.4524 </r>
        <r>    7.4524 </r>
        <r>    7.4524 </r>
        <r>    7.9267 </r>
        <r>    7.9267 </r>
        <r>    7.9267 </r>
        <r>   11.7987 </r>
        <r>   11.7987 </r>
        <r>   11.7987 </r>
        <r>   14.8158 </r>
        <r>   14.8158 </r>
        <r>   14.8158 </r>
        <r>   14.8158 </r>
        <r>   14.8158 </r>
        <r>   14.8158 </r>
        <r>   17.8892 </r>
        <r>   17.8892 </r>
        <r>   17.8892 </r>
        <r>   18.7920 </r>
        <r>   18.7920 </r>
        <r>   18.7920 </r>
        <r>   19.8445 </r>
        <r>   21.8363 </r>
        <r>   21.8363 </r>
        <r>   21.8363 </r>
        <r>   23.6859 </r>
        <r>   23.6859 </r>
        <r>   24.5094 </r>
        <r>   29.0836 </r>
        <r>   29.0857 </r>
        <r>   29.1018 </r>
       </set>
       <set comment="kpoint 2">
        <r>  -33.8852 </r>
        <r>  -33.8116 </r>
        <r>  -33.8116 </r>
        <r>  -33.8116 </r>
        <r>  -11.0347 </r>
        <r>  -11.0347 </r>
        <r>  -11.0347 </r>
        <r>  -10.7110 </r>
        <r>  -10.7107 </r>
        <r>  -10.7107 </r>
        <r>  -10.7107 </r>
        <r>  -10.7107 </r>
        <r>  -10.7106 </r>
        <r>  -10.5400 </r>
        <r>  -10.5397 </r>
        <r>  -10.5396 </r>
        <r>    0.9080 </r>
        <r>    7.4254 </r>
        <r>    7.4254 </r>
        <r>    7.4538 </r>
        <r>    7.9276 </r>
        <r>    7.9555 </r>
        <r>    7.9555 </r>
        <r>   11.7908 </r>
        <r>   11.7955 </r>
        <r>   11.7955 </r>
        <r>   14.8122 </r>
        <r>   14.8122 </r>
        <r>   14.8165 </r>
        <r>   14.8181 </r>
        <r>   14.8217 </r>
        <r>   14.8217 </r>
        <r>   17.8627 </r>
        <r>   17.8842 </r>
        <r>   17.8907 </r>
        <r>   18.7982 </r>
        <r>   18.7982 </r>
        <r>   18.8019 </r>
        <r>   19.8675 </r>
        <r>   21.8265 </r>
        <r>   21.8284 </r>
        <r>   21.8444 </r>
        <r>   23.6877 </r>
        <r>   23.6883 </r>
        <r>   24.5231 </r>
        <r>   29.0749 </r>
        <r>   29.0859 </r>
        <r>   29.0974 </r>
       </set>
       <set comment="kpoint 3">
        <r>  -33.8851 </r>
        <r>  -33.8117 </r>
        <r>  -33.8117 </r>
        <r>  -33.8116 </r>
        <r>  -11.0342 </r>
        <r>  -11.0341 </r>
        <r>  -11.0341 </r>
        <r>  -10.7118 </r>
        <r>  -10.7108 </r>
        <r>  -10.7108 </r>
        <r>  -10.7106 </r>
        <r>  -10.7106 </r>
        <r>  -10.7104 </r>
        <r>  -10.5412 </r>
        <r>  -10.5400 </r>
        <r>  -10.5397 </r>
        <r>    0.9136 </r>
        <r>    7.3582 </r>
        <r>    7.3582 </r>
        <r>    7.4579 </r>
        <r>    7.9305 </r>
        <r>    8.0284 </r>
        <r>    8.0284 </r>
        <r>   11.7672 </r>
        <r>   11.7860 </r>
        <r>   11.7860 </r>
        <r>   14.8015 </r>
        <r>   14.8015 </r>
        <r>   14.8187 </r>
        <r>   14.8251 </r>
        <r>   14.8393 </r>
        <r>   14.8393 </r>
        <r>   17.7872 </r>
        <r>   17.8693 </r>
        <r>   17.8952 </r>
        <r>   18.8165 </r>
        <r>   18.8165 </r>
        <r>   18.8313 </r>
        <r>   19.9323 </r>
        <r>   21.7981 </r>
        <r>   21.8049 </r>
        <r>   21.8690 </r>
        <r>   23.6925 </r>
        <r>   23.6952 </r>
        <r>   24.5637 </r>
        <r>   29.0526 </r>
        <r>   29.0565 </r>
        <r>   29.0680 </r>
       </set>
       <set comment="kpoint 4">
        <r>  -33.8849 </r>
        <r>  -33.8118 </r>
        <r>  -33.8118 </r>
        <r>  -33.8116 </r>
        <r>  -11.0333 </r>
        <r>  -11.0332 </r>
        <r>  -11.0332 </r>
        <r>  -10.7132 </r>
        <r>  -10.7111 </r>
        <r>  -10.7111 </r>
        <r>  -10.7104 </r>
        <r>  -10.7104 </r>
        <r>  -10.7100 </r>
        <r>  -10.5433 </r>
        <r>  -10.5404 </r>
        <r>  -10.5398 </r>
        <r>    0.9229 </r>
        <r>    7.2709 </r>
        <r>    7.2709 </r>
        <r>    7.4648 </r>
        <r>    7.9352 </r>
        <r>    8.1249 </r>
        <r>    8.1249 </r>
        <r>   11.7284 </r>
        <r>   11.7704 </r>
        <r>   11.7704 </r>
        <r>   14.7840 </r>
        <r>   14.7840 </r>
        <r>   14.8223 </r>
        <r>   14.8367 </r>
        <r>   14.8683 </r>
        <r>   14.8683 </r>
        <r>   17.6720 </r>
        <r>   17.8443 </r>
        <r>   17.9027 </r>
        <r>   18.8468 </r>
        <r>   18.8468 </r>
        <r>   18.8800 </r>
        <r>   20.0287 </r>
        <r>   21.7536 </r>
        <r>   21.7665 </r>
        <r>   21.9111 </r>
        <r>   23.6993 </r>
        <r>   23.7063 </r>
        <r>   24.6293 </r>
        <r>   29.0120 </r>
        <r>   29.0243 </r>
        <r>   29.0498 </r>
       </set>
       <set comment="kpoint 5">
        <r>  -33.8846 </r>
        <r>  -33.8119 </r>
        <r>  -33.8119 </r>
        <r>  -33.8116 </r>
        <r>  -11.0321 </r>
        <r>  -11.0319 </r>
        <r>  -11.0319 </r>
        <r>  -10.7152 </r>
        <r>  -10.7113 </r>
        <r>  -10.7113 </r>
        <r>  -10.7102 </r>
        <r>  -10.7102 </r>
        <r>  -10.7095 </r>
        <r>  -10.5461 </r>
        <r>  -10.5411 </r>
        <r>  -10.5399 </r>
        <r>    0.9359 </r>
        <r>    7.1751 </r>
        <r>    7.1751 </r>
        <r>    7.4743 </r>
        <r>    7.9419 </r>
        <r>    8.2338 </r>
        <r>    8.2338 </r>
        <r>   11.6750 </r>
        <r>   11.7490 </r>
        <r>   11.7490 </r>
        <r>   14.7600 </r>
        <r>   14.7600 </r>
        <r>   14.8273 </r>
        <r>   14.8529 </r>
        <r>   14.9085 </r>
        <r>   14.9085 </r>
        <r>   17.5274 </r>
        <r>   17.8091 </r>
        <r>   17.9132 </r>
        <r>   18.8886 </r>
        <r>   18.8886 </r>
        <r>   18.9472 </r>
        <r>   20.1447 </r>
        <r>   21.6967 </r>
        <r>   21.7139 </r>
        <r>   21.9720 </r>
        <r>   23.7070 </r>
        <r>   23.7208 </r>
        <r>   24.7173 </r>
        <r>   28.9465 </r>
        <r>   28.9470 </r>
        <r>   29.0034 </r>
       </set>
       <set comment="kpoint 6">
        <r>  -33.8843 </r>
        <r>  -33.8121 </r>
        <r>  -33.8121 </r>
        <r>  -33.8116 </r>
        <r>  -11.0306 </r>
        <r>  -11.0302 </r>
        <r>  -11.0302 </r>
        <r>  -10.7177 </r>
        <r>  -10.7117 </r>
        <r>  -10.7117 </r>
        <r>  -10.7099 </r>
        <r>  -10.7099 </r>
        <r>  -10.7088 </r>
        <r>  -10.5497 </r>
        <r>  -10.5419 </r>
        <r>  -10.5400 </r>
        <r>    0.9527 </r>
        <r>    7.0758 </r>
        <r>    7.0758 </r>
        <r>    7.4864 </r>
        <r>    7.9504 </r>
        <r>    8.3497 </r>
        <r>    8.3497 </r>
        <r>   11.6081 </r>
        <r>   11.7223 </r>
        <r>   11.7223 </r>
        <r>   14.7303 </r>
        <r>   14.7303 </r>
        <r>   14.8338 </r>
        <r>   14.8735 </r>
        <r>   14.9593 </r>
        <r>   14.9593 </r>
        <r>   17.3625 </r>
        <r>   17.7637 </r>
        <r>   17.9268 </r>
        <r>   18.9415 </r>
        <r>   18.9415 </r>
        <r>   19.0322 </r>
        <r>   20.2698 </r>
        <r>   21.6314 </r>
        <r>   21.6487 </r>
        <r>   22.0536 </r>
        <r>   23.7149 </r>
        <r>   23.7386 </r>
        <r>   24.8240 </r>
        <r>   28.8595 </r>
        <r>   28.8639 </r>
        <r>   28.9620 </r>
       </set>
       <set comment="kpoint 7">
        <r>  -33.8839 </r>
        <r>  -33.8123 </r>
        <r>  -33.8123 </r>
        <r>  -33.8116 </r>
        <r>  -11.0287 </r>
        <r>  -11.0282 </r>
        <r>  -11.0282 </r>
        <r>  -10.7207 </r>
        <r>  -10.7122 </r>
        <r>  -10.7122 </r>
        <r>  -10.7095 </r>
        <r>  -10.7095 </r>
        <r>  -10.7080 </r>
        <r>  -10.5541 </r>
        <r>  -10.5429 </r>
        <r>  -10.5402 </r>
        <r>    0.9731 </r>
        <r>    6.9755 </r>
        <r>    6.9755 </r>
        <r>    7.5010 </r>
        <r>    7.9609 </r>
        <r>    8.4702 </r>
        <r>    8.4702 </r>
        <r>   11.5287 </r>
        <r>   11.6909 </r>
        <r>   11.6909 </r>
        <r>   14.6953 </r>
        <r>   14.6953 </r>
        <r>   14.8418 </r>
        <r>   14.8985 </r>
        <r>   15.0202 </r>
        <r>   15.0202 </r>
        <r>   17.1836 </r>
        <r>   17.7080 </r>
        <r>   17.9433 </r>
        <r>   19.0048 </r>
        <r>   19.0048 </r>
        <r>   19.1340 </r>
        <r>   20.3957 </r>
        <r>   21.5614 </r>
        <r>   21.5719 </r>
        <r>   22.1574 </r>
        <r>   23.7223 </r>
        <r>   23.7588 </r>
        <r>   24.9455 </r>
        <r>   28.7453 </r>
        <r>   28.7498 </r>
        <r>   28.9105 </r>
       </set>
       <set comment="kpoint 8">
        <r>  -33.8833 </r>
        <r>  -33.8125 </r>
        <r>  -33.8125 </r>
        <r>  -33.8116 </r>
        <r>  -11.0265 </r>
        <r>  -11.0259 </r>
        <r>  -11.0259 </r>
        <r>  -10.7242 </r>
        <r>  -10.7127 </r>
        <r>  -10.7127 </r>
        <r>  -10.7091 </r>
        <r>  -10.7091 </r>
        <r>  -10.7071 </r>
        <r>  -10.5593 </r>
        <r>  -10.5441 </r>
        <r>  -10.5405 </r>
        <r>    0.9972 </r>
        <r>    6.8753 </r>
        <r>    6.8753 </r>
        <r>    7.5183 </r>
        <r>    7.9733 </r>
        <r>    8.5940 </r>
        <r>    8.5940 </r>
        <r>   11.4381 </r>
        <r>   11.6553 </r>
        <r>   11.6553 </r>
        <r>   14.6558 </r>
        <r>   14.6558 </r>
        <r>   14.8512 </r>
        <r>   14.9277 </r>
        <r>   15.0906 </r>
        <r>   15.0906 </r>
        <r>   16.9955 </r>
        <r>   17.6419 </r>
        <r>   17.9628 </r>
        <r>   19.0780 </r>
        <r>   19.0780 </r>
        <r>   19.2516 </r>
        <r>   20.5167 </r>
        <r>   21.4850 </r>
        <r>   21.4899 </r>
        <r>   22.2847 </r>
        <r>   23.7291 </r>
        <r>   23.7806 </r>
        <r>   25.0782 </r>
        <r>   28.6039 </r>
        <r>   28.6045 </r>
        <r>   28.8511 </r>
       </set>
       <set comment="kpoint 9">
        <r>  -33.8828 </r>
        <r>  -33.8128 </r>
        <r>  -33.8128 </r>
        <r>  -33.8116 </r>
        <r>  -11.0240 </r>
        <r>  -11.0232 </r>
        <r>  -11.0232 </r>
        <r>  -10.7282 </r>
        <r>  -10.7133 </r>
        <r>  -10.7133 </r>
        <r>  -10.7085 </r>
        <r>  -10.7085 </r>
        <r>  -10.7060 </r>
        <r>  -10.5651 </r>
        <r>  -10.5455 </r>
        <r>  -10.5407 </r>
        <r>    1.0250 </r>
        <r>    6.7761 </r>
        <r>    6.7761 </r>
        <r>    7.5378 </r>
        <r>    7.9876 </r>
        <r>    8.7204 </r>
        <r>    8.7204 </r>
        <r>   11.3375 </r>
        <r>   11.6163 </r>
        <r>   11.6163 </r>
        <r>   14.6126 </r>
        <r>   14.6126 </r>
        <r>   14.8621 </r>
        <r>   14.9611 </r>
        <r>   15.1700 </r>
        <r>   15.1700 </r>
        <r>   16.8014 </r>
        <r>   17.5654 </r>
        <r>   17.9854 </r>
        <r>   19.1604 </r>
        <r>   19.1604 </r>
        <r>   19.3837 </r>
        <r>   20.6292 </r>
        <r>   21.3892 </r>
        <r>   21.4195 </r>
        <r>   22.4358 </r>
        <r>   23.7352 </r>
        <r>   23.8038 </r>
        <r>   25.2184 </r>
        <r>   28.4361 </r>
        <r>   28.4363 </r>
        <r>   28.7839 </r>
       </set>
       <set comment="kpoint 10">
        <r>  -33.8821 </r>
        <r>  -33.8131 </r>
        <r>  -33.8131 </r>
        <r>  -33.8116 </r>
        <r>  -11.0211 </r>
        <r>  -11.0203 </r>
        <r>  -11.0203 </r>
        <r>  -10.7327 </r>
        <r>  -10.7140 </r>
        <r>  -10.7140 </r>
        <r>  -10.7079 </r>
        <r>  -10.7079 </r>
        <r>  -10.7048 </r>
        <r>  -10.5717 </r>
        <r>  -10.5471 </r>
        <r>  -10.5410 </r>
        <r>    1.0563 </r>
        <r>    6.6781 </r>
        <r>    6.6781 </r>
        <r>    7.5594 </r>
        <r>    8.0039 </r>
        <r>    8.8487 </r>
        <r>    8.8487 </r>
        <r>   11.2281 </r>
        <r>   11.5741 </r>
        <r>   11.5741 </r>
        <r>   14.5665 </r>
        <r>   14.5665 </r>
        <r>   14.8745 </r>
        <r>   14.9985 </r>
        <r>   15.2576 </r>
        <r>   15.2576 </r>
        <r>   16.6036 </r>
        <r>   17.4788 </r>
        <r>   18.0109 </r>
        <r>   19.2511 </r>
        <r>   19.2511 </r>
        <r>   19.5292 </r>
        <r>   20.7316 </r>
        <r>   21.2857 </r>
        <r>   21.3522 </r>
        <r>   22.6099 </r>
        <r>   23.7405 </r>
        <r>   23.8278 </r>
        <r>   25.3630 </r>
        <r>   28.2443 </r>
        <r>   28.2446 </r>
        <r>   28.7096 </r>
       </set>
       <set comment="kpoint 11">
        <r>  -33.8814 </r>
        <r>  -33.8135 </r>
        <r>  -33.8135 </r>
        <r>  -33.8116 </r>
        <r>  -11.0179 </r>
        <r>  -11.0172 </r>
        <r>  -11.0172 </r>
        <r>  -10.7377 </r>
        <r>  -10.7147 </r>
        <r>  -10.7147 </r>
        <r>  -10.7071 </r>
        <r>  -10.7071 </r>
        <r>  -10.7034 </r>
        <r>  -10.5789 </r>
        <r>  -10.5488 </r>
        <r>  -10.5414 </r>
        <r>    1.0913 </r>
        <r>    6.5817 </r>
        <r>    6.5817 </r>
        <r>    7.5830 </r>
        <r>    8.0221 </r>
        <r>    8.9785 </r>
        <r>    8.9785 </r>
        <r>   11.1113 </r>
        <r>   11.5296 </r>
        <r>   11.5296 </r>
        <r>   14.5184 </r>
        <r>   14.5184 </r>
        <r>   14.8883 </r>
        <r>   15.0396 </r>
        <r>   15.3531 </r>
        <r>   15.3531 </r>
        <r>   16.4035 </r>
        <r>   17.3822 </r>
        <r>   18.0395 </r>
        <r>   19.3498 </r>
        <r>   19.3498 </r>
        <r>   19.6870 </r>
        <r>   20.8242 </r>
        <r>   21.1757 </r>
        <r>   21.2893 </r>
        <r>   22.8052 </r>
        <r>   23.7450 </r>
        <r>   23.8523 </r>
        <r>   25.5089 </r>
        <r>   28.0332 </r>
        <r>   28.0333 </r>
        <r>   28.6306 </r>
       </set>
       <set comment="kpoint 12">
        <r>  -33.8806 </r>
        <r>  -33.8139 </r>
        <r>  -33.8139 </r>
        <r>  -33.8116 </r>
        <r>  -11.0144 </r>
        <r>  -11.0138 </r>
        <r>  -11.0138 </r>
        <r>  -10.7431 </r>
        <r>  -10.7155 </r>
        <r>  -10.7155 </r>
        <r>  -10.7062 </r>
        <r>  -10.7062 </r>
        <r>  -10.7019 </r>
        <r>  -10.5867 </r>
        <r>  -10.5507 </r>
        <r>  -10.5417 </r>
        <r>    1.1299 </r>
        <r>    6.4870 </r>
        <r>    6.4870 </r>
        <r>    7.6084 </r>
        <r>    8.0422 </r>
        <r>    9.1096 </r>
        <r>    9.1096 </r>
        <r>   10.9883 </r>
        <r>   11.4830 </r>
        <r>   11.4830 </r>
        <r>   14.4689 </r>
        <r>   14.4689 </r>
        <r>   14.9036 </r>
        <r>   15.0849 </r>
        <r>   15.4557 </r>
        <r>   15.4557 </r>
        <r>   16.2025 </r>
        <r>   17.2760 </r>
        <r>   18.0710 </r>
        <r>   19.4551 </r>
        <r>   19.4551 </r>
        <r>   19.8563 </r>
        <r>   20.9080 </r>
        <r>   21.0601 </r>
        <r>   21.2318 </r>
        <r>   23.0196 </r>
        <r>   23.7489 </r>
        <r>   23.8772 </r>
        <r>   25.6538 </r>
        <r>   27.8065 </r>
        <r>   27.8065 </r>
        <r>   28.4717 </r>
       </set>
       <set comment="kpoint 13">
        <r>  -33.8797 </r>
        <r>  -33.8143 </r>
        <r>  -33.8143 </r>
        <r>  -33.8116 </r>
        <r>  -11.0106 </r>
        <r>  -11.0102 </r>
        <r>  -11.0102 </r>
        <r>  -10.7488 </r>
        <r>  -10.7164 </r>
        <r>  -10.7164 </r>
        <r>  -10.7052 </r>
        <r>  -10.7052 </r>
        <r>  -10.7003 </r>
        <r>  -10.5952 </r>
        <r>  -10.5529 </r>
        <r>  -10.5422 </r>
        <r>    1.1719 </r>
        <r>    6.3942 </r>
        <r>    6.3942 </r>
        <r>    7.6355 </r>
        <r>    8.0644 </r>
        <r>    9.2415 </r>
        <r>    9.2415 </r>
        <r>   10.8606 </r>
        <r>   11.4350 </r>
        <r>   11.4350 </r>
        <r>   14.4188 </r>
        <r>   14.4188 </r>
        <r>   14.9205 </r>
        <r>   15.1343 </r>
        <r>   15.5652 </r>
        <r>   15.5652 </r>
        <r>   16.0014 </r>
        <r>   17.1608 </r>
        <r>   18.1056 </r>
        <r>   19.5673 </r>
        <r>   19.5673 </r>
        <r>   20.0365 </r>
        <r>   20.9399 </r>
        <r>   20.9844 </r>
        <r>   21.1802 </r>
        <r>   23.2506 </r>
        <r>   23.7521 </r>
        <r>   23.9023 </r>
        <r>   25.7953 </r>
        <r>   27.5671 </r>
        <r>   27.5671 </r>
        <r>   28.2410 </r>
       </set>
       <set comment="kpoint 14">
        <r>  -33.8788 </r>
        <r>  -33.8147 </r>
        <r>  -33.8147 </r>
        <r>  -33.8117 </r>
        <r>  -11.0065 </r>
        <r>  -11.0065 </r>
        <r>  -11.0065 </r>
        <r>  -10.7550 </r>
        <r>  -10.7174 </r>
        <r>  -10.7174 </r>
        <r>  -10.7039 </r>
        <r>  -10.7039 </r>
        <r>  -10.6985 </r>
        <r>  -10.6042 </r>
        <r>  -10.5552 </r>
        <r>  -10.5426 </r>
        <r>    1.2175 </r>
        <r>    6.3034 </r>
        <r>    6.3034 </r>
        <r>    7.6635 </r>
        <r>    8.0884 </r>
        <r>    9.3741 </r>
        <r>    9.3741 </r>
        <r>   10.7290 </r>
        <r>   11.3861 </r>
        <r>   11.3861 </r>
        <r>   14.3692 </r>
        <r>   14.3692 </r>
        <r>   14.9389 </r>
        <r>   15.1871 </r>
        <r>   15.6811 </r>
        <r>   15.6811 </r>
        <r>   15.8007 </r>
        <r>   17.0372 </r>
        <r>   18.1431 </r>
        <r>   19.6855 </r>
        <r>   19.6855 </r>
        <r>   20.2254 </r>
        <r>   20.8158 </r>
        <r>   21.0552 </r>
        <r>   21.1346 </r>
        <r>   23.4960 </r>
        <r>   23.7546 </r>
        <r>   23.9276 </r>
        <r>   25.9318 </r>
        <r>   27.3186 </r>
        <r>   27.3186 </r>
        <r>   28.0101 </r>
       </set>
       <set comment="kpoint 15">
        <r>  -33.8778 </r>
        <r>  -33.8151 </r>
        <r>  -33.8151 </r>
        <r>  -33.8117 </r>
        <r>  -11.0026 </r>
        <r>  -11.0026 </r>
        <r>  -11.0021 </r>
        <r>  -10.7615 </r>
        <r>  -10.7183 </r>
        <r>  -10.7183 </r>
        <r>  -10.7026 </r>
        <r>  -10.7026 </r>
        <r>  -10.6967 </r>
        <r>  -10.6137 </r>
        <r>  -10.5577 </r>
        <r>  -10.5432 </r>
        <r>    1.2665 </r>
        <r>    6.2147 </r>
        <r>    6.2147 </r>
        <r>    7.6922 </r>
        <r>    8.1145 </r>
        <r>    9.5068 </r>
        <r>    9.5068 </r>
        <r>   10.5950 </r>
        <r>   11.3364 </r>
        <r>   11.3364 </r>
        <r>   14.3206 </r>
        <r>   14.3206 </r>
        <r>   14.9588 </r>
        <r>   15.2439 </r>
        <r>   15.6011 </r>
        <r>   15.8028 </r>
        <r>   15.8028 </r>
        <r>   16.9057 </r>
        <r>   18.1837 </r>
        <r>   19.8092 </r>
        <r>   19.8092 </r>
        <r>   20.4230 </r>
        <r>   20.6886 </r>
        <r>   21.0949 </r>
        <r>   21.1219 </r>
        <r>   23.7537 </r>
        <r>   23.7565 </r>
        <r>   23.9531 </r>
        <r>   26.0619 </r>
        <r>   27.0625 </r>
        <r>   27.0625 </r>
        <r>   27.7823 </r>
       </set>
       <set comment="kpoint 16">
        <r>  -33.8768 </r>
        <r>  -33.8156 </r>
        <r>  -33.8156 </r>
        <r>  -33.8118 </r>
        <r>  -10.9986 </r>
        <r>  -10.9986 </r>
        <r>  -10.9974 </r>
        <r>  -10.7683 </r>
        <r>  -10.7194 </r>
        <r>  -10.7194 </r>
        <r>  -10.7010 </r>
        <r>  -10.7010 </r>
        <r>  -10.6947 </r>
        <r>  -10.6237 </r>
        <r>  -10.5604 </r>
        <r>  -10.5437 </r>
        <r>    1.3190 </r>
        <r>    6.1281 </r>
        <r>    6.1281 </r>
        <r>    7.7211 </r>
        <r>    8.1426 </r>
        <r>    9.6393 </r>
        <r>    9.6393 </r>
        <r>   10.4599 </r>
        <r>   11.2864 </r>
        <r>   11.2864 </r>
        <r>   14.2740 </r>
        <r>   14.2740 </r>
        <r>   14.9803 </r>
        <r>   15.3043 </r>
        <r>   15.4028 </r>
        <r>   15.9302 </r>
        <r>   15.9302 </r>
        <r>   16.7672 </r>
        <r>   18.2272 </r>
        <r>   19.9377 </r>
        <r>   19.9377 </r>
        <r>   20.5589 </r>
        <r>   20.6282 </r>
        <r>   21.0606 </r>
        <r>   21.1856 </r>
        <r>   23.7578 </r>
        <r>   23.9787 </r>
        <r>   24.0220 </r>
        <r>   26.1847 </r>
        <r>   26.8001 </r>
        <r>   26.8001 </r>
        <r>   27.5550 </r>
       </set>
       <set comment="kpoint 17">
        <r>  -33.8757 </r>
        <r>  -33.8161 </r>
        <r>  -33.8161 </r>
        <r>  -33.8118 </r>
        <r>  -10.9945 </r>
        <r>  -10.9945 </r>
        <r>  -10.9925 </r>
        <r>  -10.7754 </r>
        <r>  -10.7204 </r>
        <r>  -10.7204 </r>
        <r>  -10.6992 </r>
        <r>  -10.6992 </r>
        <r>  -10.6926 </r>
        <r>  -10.6342 </r>
        <r>  -10.5632 </r>
        <r>  -10.5443 </r>
        <r>    1.3748 </r>
        <r>    6.0436 </r>
        <r>    6.0436 </r>
        <r>    7.7492 </r>
[...]
       <r>   20.8461    0.0000 </r>
       <r>   21.0264    0.0000 </r>
       <r>   21.0264    0.0000 </r>
       <r>   23.4546    0.0000 </r>
       <r>   23.4546    0.0000 </r>
       <r>   23.8881    0.0000 </r>
       <r>   23.8881    0.0000 </r>
      </set>
      <set comment="kpoint 83">
       <r>  -33.8294    1.0000 </r>
       <r>  -33.8294    1.0000 </r>
       <r>  -33.8294    1.0000 </r>
       <r>  -33.8294    1.0000 </r>
       <r>  -11.0830    1.0000 </r>
       <r>  -11.0830    1.0000 </r>
       <r>  -11.0830    1.0000 </r>
       <r>  -11.0830    1.0000 </r>
       <r>  -10.6045    1.0000 </r>
       <r>  -10.6045    1.0000 </r>
       <r>  -10.6045    1.0000 </r>
       <r>  -10.6045    1.0000 </r>
       <r>  -10.5976    1.0000 </r>
       <r>  -10.5976    1.0000 </r>
       <r>  -10.5976    1.0000 </r>
       <r>  -10.5976    1.0000 </r>
       <r>    5.7787    0.0000 </r>
       <r>    5.7787    0.0000 </r>
       <r>    5.7787    0.0000 </r>
       <r>    5.7787    0.0000 </r>
       <r>    6.9005    0.0000 </r>
       <r>    6.9005    0.0000 </r>
       <r>    6.9005    0.0000 </r>
       <r>    6.9005    0.0000 </r>
       <r>   16.0792    0.0000 </r>
       <r>   16.0792    0.0000 </r>
       <r>   16.0792    0.0000 </r>
       <r>   16.0792    0.0000 </r>
       <r>   16.6336    0.0000 </r>
       <r>   16.6336    0.0000 </r>
       <r>   16.6336    0.0000 </r>
       <r>   16.6336    0.0000 </r>
       <r>   18.9963    0.0000 </r>
       <r>   18.9963    0.0000 </r>
       <r>   18.9963    0.0000 </r>
       <r>   18.9963    0.0000 </r>
       <r>   20.4646    0.0000 </r>
       <r>   20.4646    0.0000 </r>
       <r>   20.4646    0.0000 </r>
       <r>   20.4646    0.0000 </r>
       <r>   20.6516    0.0000 </r>
       <r>   20.6516    0.0000 </r>
       <r>   20.6516    0.0000 </r>
       <r>   20.6516    0.0000 </r>
       <r>   23.3987    0.0000 </r>
       <r>   23.3987    0.0000 </r>
       <r>   23.3987    0.0000 </r>
       <r>   23.3987    0.0000 </r>
      </set>
      <set comment="kpoint 84">
       <r>  -33.8294    1.0000 </r>
       <r>  -33.8294    1.0000 </r>
       <r>  -33.8294    1.0000 </r>
       <r>  -33.8294    1.0000 </r>
       <r>  -11.0903    1.0000 </r>
       <r>  -11.0903    1.0000 </r>
       <r>  -11.0903    1.0000 </r>
       <r>  -11.0903    1.0000 </r>
       <r>  -10.5975    1.0000 </r>
       <r>  -10.5975    1.0000 </r>
       <r>  -10.5975    1.0000 </r>
       <r>  -10.5975    1.0000 </r>
       <r>  -10.5975    1.0000 </r>
       <r>  -10.5975    1.0000 </r>
       <r>  -10.5975    1.0000 </r>
       <r>  -10.5975    1.0000 </r>
       <r>    6.1170    0.0000 </r>
       <r>    6.1170    0.0000 </r>
       <r>    6.1170    0.0000 </r>
       <r>    6.1170    0.0000 </r>
       <r>    6.4828    0.0000 </r>
       <r>    6.4828    0.0000 </r>
       <r>    6.4828    0.0000 </r>
       <r>    6.4828    0.0000 </r>
       <r>   16.6293    0.0000 </r>
       <r>   16.6293    0.0000 </r>
       <r>   16.6293    0.0000 </r>
       <r>   16.6293    0.0000 </r>
       <r>   16.6293    0.0000 </r>
       <r>   16.6293    0.0000 </r>
       <r>   16.6293    0.0000 </r>
       <r>   16.6293    0.0000 </r>
       <r>   18.5031    0.0000 </r>
       <r>   18.5031    0.0000 </r>
       <r>   18.5031    0.0000 </r>
       <r>   18.5031    0.0000 </r>
       <r>   20.6151    0.0000 </r>
       <r>   20.6151    0.0000 </r>
       <r>   20.6151    0.0000 </r>
       <r>   20.6151    0.0000 </r>
       <r>   20.6151    0.0000 </r>
       <r>   20.6151    0.0000 </r>
       <r>   20.6151    0.0000 </r>
       <r>   20.6151    0.0000 </r>
       <r>   23.0358    0.0000 </r>
       <r>   23.0358    0.0000 </r>
       <r>   23.0358    0.0000 </r>
       <r>   23.0358    0.0000 </r>
      </set>
     </set>
    </set>
   </array>
  </eigenvalues>
  <separator name="orbital magnetization" >
   <v name="MAGDIPOLOUT">      0.00000000      0.00000000      0.00000000</v>
  </separator>
  <dos>
   <i name="efermi">    -10.19376456 </i>
   <total>
    <array>
     <dimension dim="1">gridpoints</dimension>
     <dimension dim="2">spin</dimension>
     <field>energy</field>
     <field>total</field>
     <field>integrated</field>
     <set>
      <set comment="spin 1">
       <r>   -37.0336     0.0000     0.0000 </r>
       <r>   -36.8028     0.0000     0.0000 </r>
       <r>   -36.5719     0.0000     0.0000 </r>
       <r>   -36.3410     0.0000     0.0000 </r>
       <r>   -36.1101     0.0000     0.0000 </r>
       <r>   -35.8792     0.0000     0.0000 </r>
       <r>   -35.6483     0.0000     0.0000 </r>
       <r>   -35.4175     0.0000     0.0000 </r>
       <r>   -35.1866     0.0000     0.0000 </r>
       <r>   -34.9557     0.0000     0.0000 </r>
       <r>   -34.7248     0.0000     0.0000 </r>
       <r>   -34.4939     0.0000     0.0000 </r>
       <r>   -34.2631     0.0000     0.0000 </r>
       <r>   -34.0322     0.0000     0.0000 </r>
       <r>   -33.8013    26.5692     6.1343 </r>
       <r>   -33.5704     8.0807     8.0000 </r>
       <r>   -33.3395     0.0000     8.0000 </r>
       <r>   -33.1087     0.0000     8.0000 </r>
       <r>   -32.8778     0.0000     8.0000 </r>
       <r>   -32.6469     0.0000     8.0000 </r>
       <r>   -32.4160     0.0000     8.0000 </r>
       <r>   -32.1851     0.0000     8.0000 </r>
       <r>   -31.9543     0.0000     8.0000 </r>
       <r>   -31.7234     0.0000     8.0000 </r>
       <r>   -31.4925     0.0000     8.0000 </r>
       <r>   -31.2616     0.0000     8.0000 </r>
       <r>   -31.0307     0.0000     8.0000 </r>
       <r>   -30.7999     0.0000     8.0000 </r>
       <r>   -30.5690     0.0000     8.0000 </r>
       <r>   -30.3381     0.0000     8.0000 </r>
       <r>   -30.1072     0.0000     8.0000 </r>
       <r>   -29.8763     0.0000     8.0000 </r>
       <r>   -29.6455     0.0000     8.0000 </r>
       <r>   -29.4146     0.0000     8.0000 </r>
       <r>   -29.1837     0.0000     8.0000 </r>
       <r>   -28.9528     0.0000     8.0000 </r>
       <r>   -28.7219     0.0000     8.0000 </r>
       <r>   -28.4911     0.0000     8.0000 </r>
       <r>   -28.2602     0.0000     8.0000 </r>
       <r>   -28.0293     0.0000     8.0000 </r>
       <r>   -27.7984     0.0000     8.0000 </r>
       <r>   -27.5675     0.0000     8.0000 </r>
       <r>   -27.3366     0.0000     8.0000 </r>
       <r>   -27.1058     0.0000     8.0000 </r>
       <r>   -26.8749     0.0000     8.0000 </r>
       <r>   -26.6440     0.0000     8.0000 </r>
       <r>   -26.4131     0.0000     8.0000 </r>
       <r>   -26.1822     0.0000     8.0000 </r>
       <r>   -25.9514     0.0000     8.0000 </r>
       <r>   -25.7205     0.0000     8.0000 </r>
       <r>   -25.4896     0.0000     8.0000 </r>
       <r>   -25.2587     0.0000     8.0000 </r>
       <r>   -25.0278     0.0000     8.0000 </r>
       <r>   -24.7970     0.0000     8.0000 </r>
       <r>   -24.5661     0.0000     8.0000 </r>
       <r>   -24.3352     0.0000     8.0000 </r>
       <r>   -24.1043     0.0000     8.0000 </r>
       <r>   -23.8734     0.0000     8.0000 </r>
       <r>   -23.6426     0.0000     8.0000 </r>
       <r>   -23.4117     0.0000     8.0000 </r>
       <r>   -23.1808     0.0000     8.0000 </r>
       <r>   -22.9499     0.0000     8.0000 </r>
       <r>   -22.7190     0.0000     8.0000 </r>
       <r>   -22.4882     0.0000     8.0000 </r>
       <r>   -22.2573     0.0000     8.0000 </r>
       <r>   -22.0264     0.0000     8.0000 </r>
       <r>   -21.7955     0.0000     8.0000 </r>
       <r>   -21.5646     0.0000     8.0000 </r>
       <r>   -21.3338     0.0000     8.0000 </r>
       <r>   -21.1029     0.0000     8.0000 </r>
       <r>   -20.8720     0.0000     8.0000 </r>
       <r>   -20.6411     0.0000     8.0000 </r>
       <r>   -20.4102     0.0000     8.0000 </r>
       <r>   -20.1793     0.0000     8.0000 </r>
       <r>   -19.9485     0.0000     8.0000 </r>
       <r>   -19.7176     0.0000     8.0000 </r>
       <r>   -19.4867     0.0000     8.0000 </r>
       <r>   -19.2558     0.0000     8.0000 </r>
       <r>   -19.0249     0.0000     8.0000 </r>
       <r>   -18.7941     0.0000     8.0000 </r>
       <r>   -18.5632     0.0000     8.0000 </r>
       <r>   -18.3323     0.0000     8.0000 </r>
       <r>   -18.1014     0.0000     8.0000 </r>
       <r>   -17.8705     0.0000     8.0000 </r>
       <r>   -17.6397     0.0000     8.0000 </r>
       <r>   -17.4088     0.0000     8.0000 </r>
       <r>   -17.1779     0.0000     8.0000 </r>
       <r>   -16.9470     0.0000     8.0000 </r>
       <r>   -16.7161     0.0000     8.0000 </r>
       <r>   -16.4853     0.0000     8.0000 </r>
       <r>   -16.2544     0.0000     8.0000 </r>
       <r>   -16.0235     0.0000     8.0000 </r>
       <r>   -15.7926     0.0000     8.0000 </r>
       <r>   -15.5617     0.0000     8.0000 </r>
       <r>   -15.3309     0.0000     8.0000 </r>
       <r>   -15.1000     0.0000     8.0000 </r>
       <r>   -14.8691     0.0000     8.0000 </r>
       <r>   -14.6382     0.0000     8.0000 </r>
       <r>   -14.4073     0.0000     8.0000 </r>
       <r>   -14.1765     0.0000     8.0000 </r>
       <r>   -13.9456     0.0000     8.0000 </r>
       <r>   -13.7147     0.0000     8.0000 </r>
       <r>   -13.4838     0.0000     8.0000 </r>
       <r>   -13.2529     0.0000     8.0000 </r>
       <r>   -13.0221     0.0000     8.0000 </r>
       <r>   -12.7912     0.0000     8.0000 </r>
       <r>   -12.5603     0.0000     8.0000 </r>
       <r>   -12.3294     0.0000     8.0000 </r>
       <r>   -12.0985     0.0000     8.0000 </r>
       <r>   -11.8676     0.0000     8.0000 </r>
       <r>   -11.6368     0.0000     8.0000 </r>
       <r>   -11.4059     0.0000     8.0000 </r>
       <r>   -11.1750     0.0021     8.0005 </r>
       <r>   -10.9441    18.8409    12.3505 </r>
       <r>   -10.7132    33.4272    20.0682 </r>
       <r>   -10.4824    51.5836    31.9778 </r>
       <r>   -10.2515     0.0961    32.0000 </r>
       <r>   -10.0206     0.0000    32.0000 </r>
       <r>    -9.7897     0.0000    32.0000 </r>
       <r>    -9.5588     0.0000    32.0000 </r>
       <r>    -9.3280     0.0000    32.0000 </r>
       <r>    -9.0971     0.0000    32.0000 </r>
       <r>    -8.8662     0.0000    32.0000 </r>
       <r>    -8.6353     0.0000    32.0000 </r>
       <r>    -8.4044     0.0000    32.0000 </r>
       <r>    -8.1736     0.0000    32.0000 </r>
       <r>    -7.9427     0.0000    32.0000 </r>
       <r>    -7.7118     0.0000    32.0000 </r>
       <r>    -7.4809     0.0000    32.0000 </r>
       <r>    -7.2500     0.0000    32.0000 </r>
       <r>    -7.0192     0.0000    32.0000 </r>
       <r>    -6.7883     0.0000    32.0000 </r>
       <r>    -6.5574     0.0000    32.0000 </r>
       <r>    -6.3265     0.0000    32.0000 </r>
       <r>    -6.0956     0.0000    32.0000 </r>
       <r>    -5.8648     0.0000    32.0000 </r>
       <r>    -5.6339     0.0000    32.0000 </r>
       <r>    -5.4030     0.0000    32.0000 </r>
       <r>    -5.1721     0.0000    32.0000 </r>
       <r>    -4.9412     0.0000    32.0000 </r>
       <r>    -4.7104     0.0000    32.0000 </r>
       <r>    -4.4795     0.0000    32.0000 </r>
       <r>    -4.2486     0.0000    32.0000 </r>
       <r>    -4.0177     0.0000    32.0000 </r>
       <r>    -3.7868     0.0000    32.0000 </r>
       <r>    -3.5559     0.0000    32.0000 </r>
       <r>    -3.3251     0.0000    32.0000 </r>
       <r>    -3.0942     0.0000    32.0000 </r>
       <r>    -2.8633     0.0000    32.0000 </r>
       <r>    -2.6324     0.0000    32.0000 </r>
       <r>    -2.4015     0.0000    32.0000 </r>
       <r>    -2.1707     0.0000    32.0000 </r>
       <r>    -1.9398     0.0000    32.0000 </r>
       <r>    -1.7089     0.0000    32.0000 </r>
       <r>    -1.4780     0.0000    32.0000 </r>
       <r>    -1.2471     0.0000    32.0000 </r>
       <r>    -1.0163     0.0000    32.0000 </r>
       <r>    -0.7854     0.0000    32.0000 </r>
       <r>    -0.5545     0.0000    32.0000 </r>
       <r>    -0.3236     0.0000    32.0000 </r>
       <r>    -0.0927     0.0000    32.0000 </r>
       <r>     0.1381     0.0000    32.0000 </r>
       <r>     0.3690     0.0000    32.0000 </r>
       <r>     0.5999     0.0000    32.0000 </r>
       <r>     0.8308     0.0001    32.0000 </r>
       <r>     1.0617     0.0970    32.0224 </r>
       <r>     1.2925     0.2882    32.0889 </r>
       <r>     1.5234     0.3629    32.1727 </r>
       <r>     1.7543     0.4783    32.2832 </r>
       <r>     1.9852     0.5225    32.4038 </r>
       <r>     2.2161     0.5677    32.5349 </r>
       <r>     2.4469     0.7436    32.7066 </r>
       <r>     2.6778     0.6757    32.8626 </r>
       <r>     2.9087     0.8619    33.0616 </r>
       <r>     3.1396     0.8179    33.2504 </r>
       <r>     3.3705     1.0755    33.4987 </r>
       <r>     3.6013     0.8427    33.6933 </r>
       <r>     3.8322     1.3383    34.0023 </r>
       <r>     4.0631     0.9465    34.2208 </r>
       <r>     4.2940     1.0595    34.4654 </r>
       <r>     4.5249     1.5706    34.8281 </r>
       <r>     4.7558     1.2080    35.1070 </r>
       <r>     4.9866     1.3285    35.4137 </r>
       <r>     5.2175     1.4759    35.7545 </r>
       <r>     5.4484     1.7321    36.1544 </r>
       <r>     5.6793     1.4443    36.4878 </r>
       <r>     5.9102     1.6504    36.8689 </r>
       <r>     6.1410     1.9542    37.3201 </r>
       <r>     6.3719     1.8149    37.7391 </r>
       <r>     6.6028     2.0000    38.2008 </r>
       <r>     6.8337     1.4483    38.5352 </r>
       <r>     7.0646     2.4691    39.1053 </r>
       <r>     7.2954     1.7332    39.5054 </r>
       <r>     7.5263     2.1638    40.0050 </r>
       <r>     7.7572     1.6495    40.3858 </r>
       <r>     7.9881     2.0094    40.8498 </r>
       <r>     8.2190     1.7862    41.2622 </r>
       <r>     8.4498     2.1217    41.7520 </r>
       <r>     8.6807     2.1992    42.2598 </r>
       <r>     8.9116     3.1406    42.9849 </r>
       <r>     9.1425     2.3393    43.5250 </r>
       <r>     9.3734     1.8972    43.9630 </r>
       <r>     9.6042     2.2140    44.4742 </r>
       <r>     9.8351     2.9493    45.1551 </r>
       <r>    10.0660     3.1097    45.8731 </r>
       <r>    10.2969     1.8262    46.2947 </r>
       <r>    10.5278     2.3740    46.8428 </r>
       <r>    10.7586     3.1178    47.5627 </r>
       <r>    10.9895     2.6412    48.1725 </r>
       <r>    11.2204     2.0566    48.6473 </r>
       <r>    11.4513     2.4318    49.2088 </r>
       <r>    11.6822     2.5966    49.8083 </r>
       <r>    11.9131     1.5902    50.1754 </r>
       <r>    12.1439     2.5816    50.7714 </r>
       <r>    12.3748     1.4898    51.1154 </r>
       <r>    12.6057     2.2089    51.6254 </r>
       <r>    12.8366     1.7707    52.0342 </r>
       <r>    13.0675     2.0043    52.4970 </r>
       <r>    13.2983     2.6478    53.1083 </r>
       <r>    13.5292     2.0696    53.5861 </r>
       <r>    13.7601     1.6170    53.9595 </r>
       <r>    13.9910     2.6391    54.5688 </r>
       <r>    14.2219     2.5775    55.1639 </r>
       <r>    14.4527     2.3399    55.7042 </r>
       <r>    14.6836     3.3226    56.4713 </r>
       <r>    14.9145     2.7750    57.1120 </r>
       <r>    15.1454     3.8329    57.9969 </r>
       <r>    15.3763     3.1399    58.7219 </r>
       <r>    15.6071     4.0644    59.6603 </r>
       <r>    15.8380     3.2258    60.4050 </r>
       <r>    16.0689     3.9554    61.3183 </r>
       <r>    16.2998     3.4566    62.1163 </r>
       <r>    16.5307     3.3371    62.8868 </r>
       <r>    16.7615     3.8801    63.7826 </r>
       <r>    16.9924     2.3726    64.3304 </r>
       <r>    17.2233     2.9131    65.0030 </r>
       <r>    17.4542     2.2161    65.5147 </r>
       <r>    17.6851     2.1697    66.0156 </r>
       <r>    17.9159     2.5965    66.6151 </r>
       <r>    18.1468     2.1845    67.1195 </r>
       <r>    18.3777     2.2697    67.6435 </r>
       <r>    18.6086     1.9785    68.1003 </r>
       <r>    18.8395     1.8370    68.5244 </r>
       <r>    19.0703     2.4670    69.0940 </r>
       <r>    19.3012     3.2119    69.8356 </r>
       <r>    19.5321     2.5153    70.4163 </r>
       <r>    19.7630     4.2078    71.3878 </r>
       <r>    19.9939     2.1998    71.8957 </r>
       <r>    20.2248     2.5084    72.4748 </r>
       <r>    20.4556     3.9748    73.3925 </r>
       <r>    20.6865     3.2454    74.1418 </r>
       <r>    20.9174     2.7402    74.7745 </r>
       <r>    21.1483     4.5571    75.8266 </r>
       <r>    21.3792     3.3422    76.5983 </r>
       <r>    21.6100     3.1913    77.3351 </r>
       <r>    21.8409     4.0826    78.2777 </r>
       <r>    22.0718     3.1913    79.0145 </r>
       <r>    22.3027     3.4180    79.8036 </r>
       <r>    22.5336     4.1681    80.7660 </r>
       <r>    22.7644     2.6243    81.3719 </r>
       <r>    22.9953     4.2973    82.3640 </r>
       <r>    23.2262     2.3191    82.8995 </r>
       <r>    23.4571     3.3316    83.6687 </r>
       <r>    23.6880     3.8860    84.5659 </r>
       <r>    23.9188     4.2738    85.5527 </r>
       <r>    24.1497     4.7347    86.6458 </r>
       <r>    24.3806     4.2120    87.6183 </r>
       <r>    24.6115     3.6369    88.4580 </r>
       <r>    24.8424     4.6961    89.5422 </r>
       <r>    25.0732     4.8292    90.6572 </r>
       <r>    25.3041     3.6316    91.4956 </r>
       <r>    25.5350     4.0754    92.4366 </r>
       <r>    25.7659     3.7469    93.3017 </r>
       <r>    25.9968     3.5783    94.1278 </r>
       <r>    26.2276     1.7839    94.5397 </r>
       <r>    26.4585     1.3325    94.8473 </r>
       <r>    26.6894     1.6050    95.2179 </r>
       <r>    26.9203     1.1610    95.4860 </r>
       <r>    27.1512     0.6773    95.6423 </r>
       <r>    27.3820     0.6582    95.7943 </r>
       <r>    27.6129     0.1550    95.8301 </r>
       <r>    27.8438     0.2996    95.8993 </r>
       <r>    28.0747     0.0045    95.9003 </r>
       <r>    28.3056     0.1459    95.9340 </r>
       <r>    28.5365     0.1202    95.9617 </r>
       <r>    28.7673     0.0320    95.9691 </r>
       <r>    28.9982     0.1181    95.9964 </r>
       <r>    29.2291     0.0156    96.0000 </r>
       <r>    29.4600     0.0000    96.0000 </r>
       <r>    29.6909     0.0000    96.0000 </r>
       <r>    29.9217     0.0000    96.0000 </r>
       <r>    30.1526     0.0000    96.0000 </r>
       <r>    30.3835     0.0000    96.0000 </r>
       <r>    30.6144     0.0000    96.0000 </r>
       <r>    30.8453     0.0000    96.0000 </r>
       <r>    31.0761     0.0000    96.0000 </r>
       <r>    31.3070     0.0000    96.0000 </r>
       <r>    31.5379     0.0000    96.0000 </r>
       <r>    31.7688     0.0000    96.0000 </r>
       <r>    31.9997     0.0000    96.0000 </r>
       <r>    32.2305     0.0000    96.0000 </r>
      </set>
     </set>
    </array>
   </total>
  </dos>
 </calculation>
 <structure name="finalpos" >
  <crystal>
   <varray name="basis" >
    <v>       4.62262000       0.00000000       0.00000000 </v>
    <v>       0.00000000       4.62262000       0.00000000 </v>
    <v>       0.00000000       0.00000000       4.62262000 </v>
   </varray>
   <i name="volume">     98.77899014 </i>
   <varray name="rec_basis" >
    <v>       0.21632754      -0.00000000       0.00000000 </v>
    <v>       0.00000000       0.21632754       0.00000000 </v>
    <v>      -0.00000000      -0.00000000       0.21632754 </v>
   </varray>
  </crystal>
  <varray name="positions" >
   <v>       0.00000000       0.00000000       0.00000000 </v>
   <v>       0.00000000       0.50000000       0.50000000 </v>
   <v>       0.50000000       0.00000000       0.50000000 </v>
   <v>       0.50000000       0.50000000       0.00000000 </v>
  </varray>
 </structure>
</modeling>
