 DBCSR| CPU Multiplication driver                                           BLAS (U)
 DBCSR| Multrec recursion limit                                              512 (U)
 DBCSR| Multiplication stack size                                           1000 (D)
 DBCSR| Maximum elements for images                                    UNLIMITED (U)
 DBCSR| Multiplicative factor virtual images                                   1 (U)
 DBCSR| Use multiplication densification                                       T (D)
 DBCSR| Multiplication size stacks                                             3 (U)
 DBCSR| Use memory pool for CPU allocation                                     F (U)
 DBCSR| Number of 3D layers                                               SINGLE (U)
 DBCSR| Use MPI memory allocation                                              F (U)
 DBCSR| Use RMA algorithm                                                      F (U)
 DBCSR| Use Communication thread                                               T (U)
 DBCSR| Communication thread load                                             45 (D)
 DBCSR| MPI: My process id                                                     0
 DBCSR| MPI: Number of processes                                               8
 DBCSR| OMP: Current number of threads                                        12
 DBCSR| OMP: Max number of threads                                            12
 DBCSR| Split modifier for TAS multiplication algorithm                  1.0E+00 (U)


  **** **** ******  **  PROGRAM STARTED AT               2025-08-21 00:48:04.943
 ***** ** ***  *** **   PROGRAM STARTED ON                          i01r06c06s03
 **    ****   ******    PROGRAM STARTED BY                               di38fab
 ***** **    ** ** **   PROGRAM PROCESS ID                               2258497
  **** **  *******  **  PROGRAM STARTED IN /hppfs/scratch/04/di38fab/09_GTH/Delt
                                           a_Set/Li/aug-TZVP-MOLOPT-GTH-tier-2/8
                                           x8x8

 CP2K| version string:                 CP2K version 2025.1 (Development Version)
 CP2K| source code revision number:                                  git:3130539
 CP2K| cp2kflags: omp libint fftw3 libxc parallel scalapack max_contr=4         
 CP2K| is freely available from                            https://www.cp2k.org/
 CP2K| Program compiled at                         Tue Jun  3 16:14:32 CEST 2025
 CP2K| Program compiled on                                               login01
 CP2K| Program compiled for                                        Supermuc-foss
 CP2K| Data directory path                  /hppfs/work/pn36zo/di38fab/cp2k/data
 CP2K| Input file name                                                    GW.inp

 GLOBAL| Force Environment number                                              1
 GLOBAL| Basis set file name            /hppfs/scratch/04/di38fab/09_GTH/BASIS_A
 GLOBAL| Potential file name            /hppfs/work/pn36zo/di38fab/cp2k/data/GTH
 GLOBAL| MM Potential file name                                     MM_POTENTIAL
 GLOBAL| Coordinate file name                                             Li.cif
 GLOBAL| Method name                                                        CP2K
 GLOBAL| Project name                                                       WSe2
 GLOBAL| Run type                                                         ENERGY
 GLOBAL| FFT library                                                       FFTW3
 GLOBAL| Diagonalization library                                       ScaLAPACK
 GLOBAL| Cholesky decomposition library                                ScaLAPACK
 GLOBAL| DGEMM library                                                      BLAS
 GLOBAL| Orthonormality check for eigenvectors                          DISABLED
 GLOBAL| Matrix multiplication library                                 ScaLAPACK
 GLOBAL| All-to-all communication in single precision                          F
 GLOBAL| FFTs using library dependent lengths                                  F
 GLOBAL| Grid backend                                                       AUTO
 GLOBAL| Global print level                                               MEDIUM
 GLOBAL| MPI I/O enabled                                                       T
 GLOBAL| Total number of message passing processes                             8
 GLOBAL| Number of threads for this process                                   12
 GLOBAL| This output is from process                                           0
 GLOBAL| OpenMP stack size per thread (OMP_STACKSIZE)                        64M
 GLOBAL| CPU model name             Intel(R) Xeon(R) Platinum 8174 CPU @ 3.10GHz

 MEMORY| system memory details [Kb]
 MEMORY|                        rank 0           min           max       average
 MEMORY| MemTotal             98436664      98436660      98436664      98436662
 MEMORY| MemFree              84588984      84588984      85672292      85130638
 MEMORY| Buffers                     0             0             0             0
 MEMORY| Cached                2359608       2342648       2359608       2351128
 MEMORY| Slab                  1264324       1147420       1264324       1205872
 MEMORY| SReclaimable           279868        256196        279868        268032
 MEMORY| MemLikelyFree        87228460      87228460      88271136      87749798


 *** Fundamental physical constants (SI units) ***

 *** Literature: B. J. Mohr and B. N. Taylor,
 ***             CODATA recommended values of the fundamental physical
 ***             constants: 2006, Web Version 5.1
 ***             http://physics.nist.gov/constants

 Speed of light in vacuum [m/s]                             2.99792458000000E+08
 Magnetic constant or permeability of vacuum [N/A**2]       1.25663706143592E-06
 Electric constant or permittivity of vacuum [F/m]          8.85418781762039E-12
 Planck constant (h) [J*s]                                  6.62606896000000E-34
 Planck constant (h-bar) [J*s]                              1.05457162825177E-34
 Elementary charge [C]                                      1.60217648700000E-19
 Electron mass [kg]                                         9.10938215000000E-31
 Electron g factor [ ]                                     -2.00231930436220E+00
 Proton mass [kg]                                           1.67262163700000E-27
 Fine-structure constant                                    7.29735253760000E-03
 Rydberg constant [1/m]                                     1.09737315685270E+07
 Avogadro constant [1/mol]                                  6.02214179000000E+23
 Boltzmann constant [J/K]                                   1.38065040000000E-23
 Atomic mass unit [kg]                                      1.66053878200000E-27
 Bohr radius [m]                                            5.29177208590000E-11

 *** Conversion factors ***

 [u] -> [a.u.]                                              1.82288848426455E+03
 [Angstrom] -> [Bohr] = [a.u.]                              1.88972613288564E+00
 [a.u.] = [Bohr] -> [Angstrom]                              5.29177208590000E-01
 [a.u.] -> [s]                                              2.41888432650478E-17
 [a.u.] -> [fs]                                             2.41888432650478E-02
 [a.u.] -> [J]                                              4.35974393937059E-18
 [a.u.] -> [N]                                              8.23872205491840E-08
 [a.u.] -> [K]                                              3.15774647902944E+05
 [a.u.] -> [kJ/mol]                                         2.62549961709828E+03
 [a.u.] -> [kcal/mol]                                       6.27509468713739E+02
 [a.u.] -> [Pa]                                             2.94210107994716E+13
 [a.u.] -> [bar]                                            2.94210107994716E+08
 [a.u.] -> [atm]                                            2.90362800883016E+08
 [a.u.] -> [eV]                                             2.72113838565563E+01
 [a.u.] -> [Hz]                                             6.57968392072181E+15
 [a.u.] -> [1/cm] (wave numbers)                            2.19474631370540E+05
 [a.u./Bohr**2] -> [1/cm]                                   5.14048714338585E+03
 

 CELL_TOP| Volume [angstrom^3]:                                        60.854133
 CELL_TOP| Vector a [angstrom     7.640     0.000     0.000   |a| =     7.640040
 CELL_TOP| Vector b [angstrom     7.021     3.012     0.000   |b| =     7.640040
 CELL_TOP| Vector c [angstrom     7.021     1.443     2.644   |c| =     7.640040
 CELL_TOP| Angle (b,c), alpha [degree]:                                23.220010
 CELL_TOP| Angle (a,c), beta  [degree]:                                23.220010
 CELL_TOP| Angle (a,b), gamma [degree]:                                23.220010
 CELL_TOP| Numerically orthorhombic:                                          NO
 CELL_TOP| Periodicity                                                       XYZ

 CELL_CIF| Volume [angstrom^3]:                                        60.854133
 CELL_CIF| Vector a [angstrom     7.640     0.000     0.000   |a| =     7.640040
 CELL_CIF| Vector b [angstrom     7.021     3.012     0.000   |b| =     7.640040
 CELL_CIF| Vector c [angstrom     7.021     1.443     2.644   |c| =     7.640040
 CELL_CIF| Angle (b,c), alpha [degree]:                                23.220010
 CELL_CIF| Angle (a,c), beta  [degree]:                                23.220010
 CELL_CIF| Angle (a,b), gamma [degree]:                                23.220010
 CELL_CIF| Numerically orthorhombic:                                          NO
 CELL_CIF| Periodicity                                                       XYZ

 GENERATE|  Preliminary Number of Bonds generated:                             0
 GENERATE|  Achieved consistency in connectivity generation.

 CELL| Volume [angstrom^3]:                                            60.854133
 CELL| Vector a [angstrom]:       7.640     0.000     0.000   |a| =     7.640040
 CELL| Vector b [angstrom]:       7.021     3.012     0.000   |b| =     7.640040
 CELL| Vector c [angstrom]:       7.021     1.443     2.644   |c| =     7.640040
 CELL| Angle (b,c), alpha [degree]:                                    23.220010
 CELL| Angle (a,c), beta  [degree]:                                    23.220010
 CELL| Angle (a,b), gamma [degree]:                                    23.220010
 CELL| Numerically orthorhombic:                                              NO
 CELL| Periodicity                                                           XYZ

 CELL_REF| Volume [angstrom^3]:                                        60.854133
 CELL_REF| Vector a [angstrom     7.640     0.000     0.000   |a| =     7.640040
 CELL_REF| Vector b [angstrom     7.021     3.012     0.000   |b| =     7.640040
 CELL_REF| Vector c [angstrom     7.021     1.443     2.644   |c| =     7.640040
 CELL_REF| Angle (b,c), alpha [degree]:                                23.220010
 CELL_REF| Angle (a,c), beta  [degree]:                                23.220010
 CELL_REF| Angle (a,b), gamma [degree]:                                23.220010
 CELL_REF| Numerically orthorhombic:                                          NO
 CELL_REF| Periodicity                                                       XYZ

 *** WARNING in cryssym.F:180 :: Symmetry library SPGLIB not available ***


 *******************************************************************************
                                    Kpoints
 *******************************************************************************
 BRILLOUIN| K-point scheme                                        Monkhorst-Pack
 BRILLOUIN| K-Point grid                                             8    8    8
 BRILLOUIN| Accuracy in Symmetry determination                      0.100000E-05
 BRILLOUIN| K-Point point group symmetrization                               OFF
 BRILLOUIN| Wavefunction type                                            COMPLEX
 BRILLOUIN| List of Kpoints [2 Pi/Bohr]                                      256
 BRILLOUIN| Number           Weight            X              Y              Z
 BRILLOUIN|     1           0.00391       -0.43750       -0.43750       -0.43750
 BRILLOUIN|     2           0.00391       -0.43750       -0.43750       -0.31250
 BRILLOUIN|     3           0.00391       -0.43750       -0.43750       -0.18750
 BRILLOUIN|     4           0.00391       -0.43750       -0.43750       -0.06250
 BRILLOUIN|     5           0.00391       -0.43750       -0.43750        0.06250
 BRILLOUIN|     6           0.00391       -0.43750       -0.43750        0.18750
 BRILLOUIN|     7           0.00391       -0.43750       -0.43750        0.31250
 BRILLOUIN|     8           0.00391       -0.43750       -0.43750        0.43750
 BRILLOUIN|     9           0.00391       -0.43750       -0.31250       -0.43750
 BRILLOUIN|    10           0.00391       -0.43750       -0.31250       -0.31250
 BRILLOUIN|    11           0.00391       -0.43750       -0.31250       -0.18750
 BRILLOUIN|    12           0.00391       -0.43750       -0.31250       -0.06250
 BRILLOUIN|    13           0.00391       -0.43750       -0.31250        0.06250
 BRILLOUIN|    14           0.00391       -0.43750       -0.31250        0.18750
 BRILLOUIN|    15           0.00391       -0.43750       -0.31250        0.31250
 BRILLOUIN|    16           0.00391       -0.43750       -0.31250        0.43750
 BRILLOUIN|    17           0.00391       -0.43750       -0.18750       -0.43750
 BRILLOUIN|    18           0.00391       -0.43750       -0.18750       -0.31250
 BRILLOUIN|    19           0.00391       -0.43750       -0.18750       -0.18750
 BRILLOUIN|    20           0.00391       -0.43750       -0.18750       -0.06250
 BRILLOUIN|    21           0.00391       -0.43750       -0.18750        0.06250
 BRILLOUIN|    22           0.00391       -0.43750       -0.18750        0.18750
 BRILLOUIN|    23           0.00391       -0.43750       -0.18750        0.31250
 BRILLOUIN|    24           0.00391       -0.43750       -0.18750        0.43750
 BRILLOUIN|    25           0.00391       -0.43750       -0.06250       -0.43750
 BRILLOUIN|    26           0.00391       -0.43750       -0.06250       -0.31250
 BRILLOUIN|    27           0.00391       -0.43750       -0.06250       -0.18750
 BRILLOUIN|    28           0.00391       -0.43750       -0.06250       -0.06250
 BRILLOUIN|    29           0.00391       -0.43750       -0.06250        0.06250
 BRILLOUIN|    30           0.00391       -0.43750       -0.06250        0.18750
 BRILLOUIN|    31           0.00391       -0.43750       -0.06250        0.31250
 BRILLOUIN|    32           0.00391       -0.43750       -0.06250        0.43750
 BRILLOUIN|    33           0.00391       -0.43750        0.06250       -0.43750
 BRILLOUIN|    34           0.00391       -0.43750        0.06250       -0.31250
 BRILLOUIN|    35           0.00391       -0.43750        0.06250       -0.18750
 BRILLOUIN|    36           0.00391       -0.43750        0.06250       -0.06250
 BRILLOUIN|    37           0.00391       -0.43750        0.06250        0.06250
 BRILLOUIN|    38           0.00391       -0.43750        0.06250        0.18750
 BRILLOUIN|    39           0.00391       -0.43750        0.06250        0.31250
 BRILLOUIN|    40           0.00391       -0.43750        0.06250        0.43750
 BRILLOUIN|    41           0.00391       -0.43750        0.18750       -0.43750
 BRILLOUIN|    42           0.00391       -0.43750        0.18750       -0.31250
 BRILLOUIN|    43           0.00391       -0.43750        0.18750       -0.18750
 BRILLOUIN|    44           0.00391       -0.43750        0.18750       -0.06250
 BRILLOUIN|    45           0.00391       -0.43750        0.18750        0.06250
 BRILLOUIN|    46           0.00391       -0.43750        0.18750        0.18750
 BRILLOUIN|    47           0.00391       -0.43750        0.18750        0.31250
 BRILLOUIN|    48           0.00391       -0.43750        0.18750        0.43750
 BRILLOUIN|    49           0.00391       -0.43750        0.31250       -0.43750
 BRILLOUIN|    50           0.00391       -0.43750        0.31250       -0.31250
 BRILLOUIN|    51           0.00391       -0.43750        0.31250       -0.18750
 BRILLOUIN|    52           0.00391       -0.43750        0.31250       -0.06250
 BRILLOUIN|    53           0.00391       -0.43750        0.31250        0.06250
 BRILLOUIN|    54           0.00391       -0.43750        0.31250        0.18750
 BRILLOUIN|    55           0.00391       -0.43750        0.31250        0.31250
 BRILLOUIN|    56           0.00391       -0.43750        0.31250        0.43750
 BRILLOUIN|    57           0.00391       -0.43750        0.43750       -0.43750
 BRILLOUIN|    58           0.00391       -0.43750        0.43750       -0.31250
 BRILLOUIN|    59           0.00391       -0.43750        0.43750       -0.18750
 BRILLOUIN|    60           0.00391       -0.43750        0.43750       -0.06250
 BRILLOUIN|    61           0.00391       -0.43750        0.43750        0.06250
 BRILLOUIN|    62           0.00391       -0.43750        0.43750        0.18750
 BRILLOUIN|    63           0.00391       -0.43750        0.43750        0.31250
 BRILLOUIN|    64           0.00391       -0.43750        0.43750        0.43750
 BRILLOUIN|    65           0.00391       -0.31250       -0.43750       -0.43750
 BRILLOUIN|    66           0.00391       -0.31250       -0.43750       -0.31250
 BRILLOUIN|    67           0.00391       -0.31250       -0.43750       -0.18750
 BRILLOUIN|    68           0.00391       -0.31250       -0.43750       -0.06250
 BRILLOUIN|    69           0.00391       -0.31250       -0.43750        0.06250
 BRILLOUIN|    70           0.00391       -0.31250       -0.43750        0.18750
 BRILLOUIN|    71           0.00391       -0.31250       -0.43750        0.31250
 BRILLOUIN|    72           0.00391       -0.31250       -0.43750        0.43750
 BRILLOUIN|    73           0.00391       -0.31250       -0.31250       -0.43750
 BRILLOUIN|    74           0.00391       -0.31250       -0.31250       -0.31250
 BRILLOUIN|    75           0.00391       -0.31250       -0.31250       -0.18750
 BRILLOUIN|    76           0.00391       -0.31250       -0.31250       -0.06250
 BRILLOUIN|    77           0.00391       -0.31250       -0.31250        0.06250
 BRILLOUIN|    78           0.00391       -0.31250       -0.31250        0.18750
 BRILLOUIN|    79           0.00391       -0.31250       -0.31250        0.31250
 BRILLOUIN|    80           0.00391       -0.31250       -0.31250        0.43750
 BRILLOUIN|    81           0.00391       -0.31250       -0.18750       -0.43750
 BRILLOUIN|    82           0.00391       -0.31250       -0.18750       -0.31250
 BRILLOUIN|    83           0.00391       -0.31250       -0.18750       -0.18750
 BRILLOUIN|    84           0.00391       -0.31250       -0.18750       -0.06250
 BRILLOUIN|    85           0.00391       -0.31250       -0.18750        0.06250
 BRILLOUIN|    86           0.00391       -0.31250       -0.18750        0.18750
 BRILLOUIN|    87           0.00391       -0.31250       -0.18750        0.31250
 BRILLOUIN|    88           0.00391       -0.31250       -0.18750        0.43750
 BRILLOUIN|    89           0.00391       -0.31250       -0.06250       -0.43750
 BRILLOUIN|    90           0.00391       -0.31250       -0.06250       -0.31250
 BRILLOUIN|    91           0.00391       -0.31250       -0.06250       -0.18750
 BRILLOUIN|    92           0.00391       -0.31250       -0.06250       -0.06250
 BRILLOUIN|    93           0.00391       -0.31250       -0.06250        0.06250
 BRILLOUIN|    94           0.00391       -0.31250       -0.06250        0.18750
 BRILLOUIN|    95           0.00391       -0.31250       -0.06250        0.31250
 BRILLOUIN|    96           0.00391       -0.31250       -0.06250        0.43750
 BRILLOUIN|    97           0.00391       -0.31250        0.06250       -0.43750
 BRILLOUIN|    98           0.00391       -0.31250        0.06250       -0.31250
 BRILLOUIN|    99           0.00391       -0.31250        0.06250       -0.18750
 BRILLOUIN|   100           0.00391       -0.31250        0.06250       -0.06250
 BRILLOUIN|   101           0.00391       -0.31250        0.06250        0.06250
 BRILLOUIN|   102           0.00391       -0.31250        0.06250        0.18750
 BRILLOUIN|   103           0.00391       -0.31250        0.06250        0.31250
 BRILLOUIN|   104           0.00391       -0.31250        0.06250        0.43750
 BRILLOUIN|   105           0.00391       -0.31250        0.18750       -0.43750
 BRILLOUIN|   106           0.00391       -0.31250        0.18750       -0.31250
 BRILLOUIN|   107           0.00391       -0.31250        0.18750       -0.18750
 BRILLOUIN|   108           0.00391       -0.31250        0.18750       -0.06250
 BRILLOUIN|   109           0.00391       -0.31250        0.18750        0.06250
 BRILLOUIN|   110           0.00391       -0.31250        0.18750        0.18750
 BRILLOUIN|   111           0.00391       -0.31250        0.18750        0.31250
 BRILLOUIN|   112           0.00391       -0.31250        0.18750        0.43750
 BRILLOUIN|   113           0.00391       -0.31250        0.31250       -0.43750
 BRILLOUIN|   114           0.00391       -0.31250        0.31250       -0.31250
 BRILLOUIN|   115           0.00391       -0.31250        0.31250       -0.18750
 BRILLOUIN|   116           0.00391       -0.31250        0.31250       -0.06250
 BRILLOUIN|   117           0.00391       -0.31250        0.31250        0.06250
 BRILLOUIN|   118           0.00391       -0.31250        0.31250        0.18750
 BRILLOUIN|   119           0.00391       -0.31250        0.31250        0.31250
 BRILLOUIN|   120           0.00391       -0.31250        0.31250        0.43750
 BRILLOUIN|   121           0.00391       -0.31250        0.43750       -0.43750
 BRILLOUIN|   122           0.00391       -0.31250        0.43750       -0.31250
 BRILLOUIN|   123           0.00391       -0.31250        0.43750       -0.18750
 BRILLOUIN|   124           0.00391       -0.31250        0.43750       -0.06250
 BRILLOUIN|   125           0.00391       -0.31250        0.43750        0.06250
 BRILLOUIN|   126           0.00391       -0.31250        0.43750        0.18750
 BRILLOUIN|   127           0.00391       -0.31250        0.43750        0.31250
 BRILLOUIN|   128           0.00391       -0.31250        0.43750        0.43750
 BRILLOUIN|   129           0.00391       -0.18750       -0.43750       -0.43750
 BRILLOUIN|   130           0.00391       -0.18750       -0.43750       -0.31250
 BRILLOUIN|   131           0.00391       -0.18750       -0.43750       -0.18750
 BRILLOUIN|   132           0.00391       -0.18750       -0.43750       -0.06250
 BRILLOUIN|   133           0.00391       -0.18750       -0.43750        0.06250
 BRILLOUIN|   134           0.00391       -0.18750       -0.43750        0.18750
 BRILLOUIN|   135           0.00391       -0.18750       -0.43750        0.31250
 BRILLOUIN|   136           0.00391       -0.18750       -0.43750        0.43750
 BRILLOUIN|   137           0.00391       -0.18750       -0.31250       -0.43750
 BRILLOUIN|   138           0.00391       -0.18750       -0.31250       -0.31250
 BRILLOUIN|   139           0.00391       -0.18750       -0.31250       -0.18750
 BRILLOUIN|   140           0.00391       -0.18750       -0.31250       -0.06250
 BRILLOUIN|   141           0.00391       -0.18750       -0.31250        0.06250
 BRILLOUIN|   142           0.00391       -0.18750       -0.31250        0.18750
 BRILLOUIN|   143           0.00391       -0.18750       -0.31250        0.31250
 BRILLOUIN|   144           0.00391       -0.18750       -0.31250        0.43750
 BRILLOUIN|   145           0.00391       -0.18750       -0.18750       -0.43750
 BRILLOUIN|   146           0.00391       -0.18750       -0.18750       -0.31250
 BRILLOUIN|   147           0.00391       -0.18750       -0.18750       -0.18750
 BRILLOUIN|   148           0.00391       -0.18750       -0.18750       -0.06250
 BRILLOUIN|   149           0.00391       -0.18750       -0.18750        0.06250
 BRILLOUIN|   150           0.00391       -0.18750       -0.18750        0.18750
 BRILLOUIN|   151           0.00391       -0.18750       -0.18750        0.31250
 BRILLOUIN|   152           0.00391       -0.18750       -0.18750        0.43750
 BRILLOUIN|   153           0.00391       -0.18750       -0.06250       -0.43750
 BRILLOUIN|   154           0.00391       -0.18750       -0.06250       -0.31250
 BRILLOUIN|   155           0.00391       -0.18750       -0.06250       -0.18750
 BRILLOUIN|   156           0.00391       -0.18750       -0.06250       -0.06250
 BRILLOUIN|   157           0.00391       -0.18750       -0.06250        0.06250
 BRILLOUIN|   158           0.00391       -0.18750       -0.06250        0.18750
 BRILLOUIN|   159           0.00391       -0.18750       -0.06250        0.31250
 BRILLOUIN|   160           0.00391       -0.18750       -0.06250        0.43750
 BRILLOUIN|   161           0.00391       -0.18750        0.06250       -0.43750
 BRILLOUIN|   162           0.00391       -0.18750        0.06250       -0.31250
 BRILLOUIN|   163           0.00391       -0.18750        0.06250       -0.18750
 BRILLOUIN|   164           0.00391       -0.18750        0.06250       -0.06250
 BRILLOUIN|   165           0.00391       -0.18750        0.06250        0.06250
 BRILLOUIN|   166           0.00391       -0.18750        0.06250        0.18750
 BRILLOUIN|   167           0.00391       -0.18750        0.06250        0.31250
 BRILLOUIN|   168           0.00391       -0.18750        0.06250        0.43750
 BRILLOUIN|   169           0.00391       -0.18750        0.18750       -0.43750
 BRILLOUIN|   170           0.00391       -0.18750        0.18750       -0.31250
 BRILLOUIN|   171           0.00391       -0.18750        0.18750       -0.18750
 BRILLOUIN|   172           0.00391       -0.18750        0.18750       -0.06250
 BRILLOUIN|   173           0.00391       -0.18750        0.18750        0.06250
 BRILLOUIN|   174           0.00391       -0.18750        0.18750        0.18750
 BRILLOUIN|   175           0.00391       -0.18750        0.18750        0.31250
 BRILLOUIN|   176           0.00391       -0.18750        0.18750        0.43750
 BRILLOUIN|   177           0.00391       -0.18750        0.31250       -0.43750
 BRILLOUIN|   178           0.00391       -0.18750        0.31250       -0.31250
 BRILLOUIN|   179           0.00391       -0.18750        0.31250       -0.18750
 BRILLOUIN|   180           0.00391       -0.18750        0.31250       -0.06250
 BRILLOUIN|   181           0.00391       -0.18750        0.31250        0.06250
 BRILLOUIN|   182           0.00391       -0.18750        0.31250        0.18750
 BRILLOUIN|   183           0.00391       -0.18750        0.31250        0.31250
 BRILLOUIN|   184           0.00391       -0.18750        0.31250        0.43750
 BRILLOUIN|   185           0.00391       -0.18750        0.43750       -0.43750
 BRILLOUIN|   186           0.00391       -0.18750        0.43750       -0.31250
 BRILLOUIN|   187           0.00391       -0.18750        0.43750       -0.18750
 BRILLOUIN|   188           0.00391       -0.18750        0.43750       -0.06250
 BRILLOUIN|   189           0.00391       -0.18750        0.43750        0.06250
 BRILLOUIN|   190           0.00391       -0.18750        0.43750        0.18750
 BRILLOUIN|   191           0.00391       -0.18750        0.43750        0.31250
 BRILLOUIN|   192           0.00391       -0.18750        0.43750        0.43750
 BRILLOUIN|   193           0.00391       -0.06250       -0.43750       -0.43750
 BRILLOUIN|   194           0.00391       -0.06250       -0.43750       -0.31250
 BRILLOUIN|   195           0.00391       -0.06250       -0.43750       -0.18750
 BRILLOUIN|   196           0.00391       -0.06250       -0.43750       -0.06250
 BRILLOUIN|   197           0.00391       -0.06250       -0.43750        0.06250
 BRILLOUIN|   198           0.00391       -0.06250       -0.43750        0.18750
 BRILLOUIN|   199           0.00391       -0.06250       -0.43750        0.31250
 BRILLOUIN|   200           0.00391       -0.06250       -0.43750        0.43750
 BRILLOUIN|   201           0.00391       -0.06250       -0.31250       -0.43750
 BRILLOUIN|   202           0.00391       -0.06250       -0.31250       -0.31250
 BRILLOUIN|   203           0.00391       -0.06250       -0.31250       -0.18750
 BRILLOUIN|   204           0.00391       -0.06250       -0.31250       -0.06250
 BRILLOUIN|   205           0.00391       -0.06250       -0.31250        0.06250
 BRILLOUIN|   206           0.00391       -0.06250       -0.31250        0.18750
 BRILLOUIN|   207           0.00391       -0.06250       -0.31250        0.31250
 BRILLOUIN|   208           0.00391       -0.06250       -0.31250        0.43750
 BRILLOUIN|   209           0.00391       -0.06250       -0.18750       -0.43750
 BRILLOUIN|   210           0.00391       -0.06250       -0.18750       -0.31250
 BRILLOUIN|   211           0.00391       -0.06250       -0.18750       -0.18750
 BRILLOUIN|   212           0.00391       -0.06250       -0.18750       -0.06250
 BRILLOUIN|   213           0.00391       -0.06250       -0.18750        0.06250
 BRILLOUIN|   214           0.00391       -0.06250       -0.18750        0.18750
 BRILLOUIN|   215           0.00391       -0.06250       -0.18750        0.31250
 BRILLOUIN|   216           0.00391       -0.06250       -0.18750        0.43750
 BRILLOUIN|   217           0.00391       -0.06250       -0.06250       -0.43750
 BRILLOUIN|   218           0.00391       -0.06250       -0.06250       -0.31250
 BRILLOUIN|   219           0.00391       -0.06250       -0.06250       -0.18750
 BRILLOUIN|   220           0.00391       -0.06250       -0.06250       -0.06250
 BRILLOUIN|   221           0.00391       -0.06250       -0.06250        0.06250
 BRILLOUIN|   222           0.00391       -0.06250       -0.06250        0.18750
 BRILLOUIN|   223           0.00391       -0.06250       -0.06250        0.31250
 BRILLOUIN|   224           0.00391       -0.06250       -0.06250        0.43750
 BRILLOUIN|   225           0.00391       -0.06250        0.06250       -0.43750
 BRILLOUIN|   226           0.00391       -0.06250        0.06250       -0.31250
 BRILLOUIN|   227           0.00391       -0.06250        0.06250       -0.18750
 BRILLOUIN|   228           0.00391       -0.06250        0.06250       -0.06250
 BRILLOUIN|   229           0.00391       -0.06250        0.06250        0.06250
 BRILLOUIN|   230           0.00391       -0.06250        0.06250        0.18750
 BRILLOUIN|   231           0.00391       -0.06250        0.06250        0.31250
 BRILLOUIN|   232           0.00391       -0.06250        0.06250        0.43750
 BRILLOUIN|   233           0.00391       -0.06250        0.18750       -0.43750
 BRILLOUIN|   234           0.00391       -0.06250        0.18750       -0.31250
 BRILLOUIN|   235           0.00391       -0.06250        0.18750       -0.18750
 BRILLOUIN|   236           0.00391       -0.06250        0.18750       -0.06250
 BRILLOUIN|   237           0.00391       -0.06250        0.18750        0.06250
 BRILLOUIN|   238           0.00391       -0.06250        0.18750        0.18750
 BRILLOUIN|   239           0.00391       -0.06250        0.18750        0.31250
 BRILLOUIN|   240           0.00391       -0.06250        0.18750        0.43750
 BRILLOUIN|   241           0.00391       -0.06250        0.31250       -0.43750
 BRILLOUIN|   242           0.00391       -0.06250        0.31250       -0.31250
 BRILLOUIN|   243           0.00391       -0.06250        0.31250       -0.18750
 BRILLOUIN|   244           0.00391       -0.06250        0.31250       -0.06250
 BRILLOUIN|   245           0.00391       -0.06250        0.31250        0.06250
 BRILLOUIN|   246           0.00391       -0.06250        0.31250        0.18750
 BRILLOUIN|   247           0.00391       -0.06250        0.31250        0.31250
 BRILLOUIN|   248           0.00391       -0.06250        0.31250        0.43750
 BRILLOUIN|   249           0.00391       -0.06250        0.43750       -0.43750
 BRILLOUIN|   250           0.00391       -0.06250        0.43750       -0.31250
 BRILLOUIN|   251           0.00391       -0.06250        0.43750       -0.18750
 BRILLOUIN|   252           0.00391       -0.06250        0.43750       -0.06250
 BRILLOUIN|   253           0.00391       -0.06250        0.43750        0.06250
 BRILLOUIN|   254           0.00391       -0.06250        0.43750        0.18750
 BRILLOUIN|   255           0.00391       -0.06250        0.43750        0.31250
 BRILLOUIN|   256           0.00391       -0.06250        0.43750        0.43750
 *******************************************************************************

 *******************************************************************************
 *******************************************************************************
 **                                                                           **
 **     #####                         ##              ##                      **
 **    ##   ##            ##          ##              ##                      **
 **   ##     ##                       ##            ######                    **
 **   ##     ##  ##   ##  ##   #####  ##  ##   ####   ##    #####    #####    **
 **   ##     ##  ##   ##  ##  ##      ## ##   ##      ##   ##   ##  ##   ##   **
 **   ##  ## ##  ##   ##  ##  ##      ####     ###    ##   ######   ######    **
 **    ##  ###   ##   ##  ##  ##      ## ##      ##   ##   ##       ##        **
 **     #######   #####   ##   #####  ##  ##  ####    ##    #####   ##        **
 **           ##                                                    ##        **
 **                                                                           **
 **                                                ... make the atoms dance   **
 **                                                                           **
 **            Copyright (C) by CP2K developers group (2000-2025)             **
 **                      J. Chem. Phys. 152, 194103 (2020)                    **
 **                                                                           **
 *******************************************************************************

 DFT| Spin restricted Kohn-Sham (RKS) calculation                            RKS
 DFT| Multiplicity                                                             2
 DFT| Number of spin states                                                    1
 DFT| Charge                                                                   0
 DFT| Self-interaction correction (SIC)                                       NO
 DFT| Cutoffs: density                                              1.000000E-10
 DFT|          gradient                                             1.000000E-10
 DFT|          tau                                                  1.000000E-10
 DFT|          cutoff_smoothing_range                               0.000000E+00
 DFT| XC density smoothing                                                  NONE
 DFT| XC derivatives                                                          PW

 FUNCTIONAL| PBE:
 FUNCTIONAL| J.P.Perdew, K.Burke, M.Ernzerhof, Phys. Rev. Letter, vol. 77, n 18,
 FUNCTIONAL|  pp. 3865-3868, (1996) {spin unpolarized}                          


 QS| Method:                                                                 GPW
 QS| Density plane wave grid type                        NON-SPHERICAL FULLSPACE
 QS| Number of grid levels:                                                    4
 QS| Density cutoff [a.u.]:                                                500.0
 QS| Multi grid cutoff [a.u.]: 1) grid level                               500.0
 QS|                           2) grid level                               166.7
 QS|                           3) grid level                                55.6
 QS|                           4) grid level                                18.5
 QS| Grid level progression factor:                                          3.0
 QS| Relative density cutoff [a.u.]:                                        50.0
 QS| Interaction thresholds: eps_pgf_orb:                                1.0E-16
 QS|                         eps_filter_matrix:                          0.0E+00
 QS|                         eps_core_charge:                            1.0E-18
 QS|                         eps_rho_gspace:                             1.0E-16
 QS|                         eps_rho_rspace:                             1.0E-16
 QS|                         eps_gvg_rspace:                             1.0E-08
 QS|                         eps_ppl:                                    1.0E-02
 QS|                         eps_ppnl:                                   1.0E-10


 ATOMIC KIND INFORMATION

  1. Atomic kind: Li                                    Number of atoms:       3

     Orbital Basis Set                                aug-TZVP-MOLOPT-GTH-tier-2

       Number of orbital shell sets:                                           1
       Number of orbital shells:                                              11
       Number of primitive Cartesian functions:                                7
       Number of Cartesian basis functions:                                   36
       Number of spherical basis functions:                                   31
       Norm type:                                                              2

       Normalised Cartesian orbitals:

                        Set   Shell   Orbital            Exponent    Coefficient

                          1       1    2s                0.038184       0.006290
                                                         0.060000       0.000000
                                                         0.104647       0.026267
                                                         0.200000       0.000000
                                                         0.610549       0.140208
                                                         1.983451       0.492328
                                                         7.130027       0.874408

                          1       2    3s                0.038184      -0.026530
                                                         0.060000       0.000000
                                                         0.104647      -0.091677
                                                         0.200000       0.000000
                                                         0.610549       0.132953
                                                         1.983451       0.251238
                                                         7.130027       0.220892

                          1       3    4s                0.038184       0.102044
                                                         0.060000       0.000000
                                                         0.104647      -0.128893
                                                         0.200000       0.000000
                                                         0.610549       0.036555
                                                         1.983451       0.060763
                                                         7.130027      -0.162586

                          1       4    5s                0.038184       0.003699
                                                         0.060000       0.000000
                                                         0.104647       0.023315
                                                         0.200000       0.000000
                                                         0.610549       0.558631
                                                         1.983451      -0.716911
                                                         7.130027      -1.285366

                          1       5    6s                0.038184      -0.037701
                                                         0.060000       0.000562
                                                         0.104647       0.003700
                                                         0.200000       0.276971
                                                         0.610549       0.047929
                                                         1.983451      -0.449433
                                                         7.130027       0.000000

                          1       6    3px               0.038184      -0.006157
                                                         0.060000       0.000000
                                                         0.104647      -0.056618
                                                         0.200000       0.000000
                                                         0.610549      -0.195873
                                                         1.983451      -0.023097
                                                         7.130027      -0.546856
                          1       6    3py               0.038184      -0.006157
                                                         0.060000       0.000000
                                                         0.104647      -0.056618
                                                         0.200000       0.000000
                                                         0.610549      -0.195873
                                                         1.983451      -0.023097
                                                         7.130027      -0.546856
                          1       6    3pz               0.038184      -0.006157
                                                         0.060000       0.000000
                                                         0.104647      -0.056618
                                                         0.200000       0.000000
                                                         0.610549      -0.195873
                                                         1.983451      -0.023097
                                                         7.130027      -0.546856

                          1       7    4px               0.038184      -0.008170
                                                         0.060000       0.000000
                                                         0.104647       0.045666
                                                         0.200000       0.000000
                                                         0.610549      -0.808779
                                                         1.983451      -0.116940
                                                         7.130027      -2.212445
                          1       7    4py               0.038184      -0.008170
                                                         0.060000       0.000000
                                                         0.104647       0.045666
                                                         0.200000       0.000000
                                                         0.610549      -0.808779
                                                         1.983451      -0.116940
                                                         7.130027      -2.212445
                          1       7    4pz               0.038184      -0.008170
                                                         0.060000       0.000000
                                                         0.104647       0.045666
                                                         0.200000       0.000000
                                                         0.610549      -0.808779
                                                         1.983451      -0.116940
                                                         7.130027      -2.212445

                          1       8    5px               0.038184       0.026494
                                                         0.060000      -0.005329
                                                         0.104647      -0.010218
                                                         0.200000       0.034021
                                                         0.610549       0.055558
                                                         1.983451       0.053727
                                                         7.130027       0.000000
                          1       8    5py               0.038184       0.026494
                                                         0.060000      -0.005329
                                                         0.104647      -0.010218
                                                         0.200000       0.034021
                                                         0.610549       0.055558
                                                         1.983451       0.053727
                                                         7.130027       0.000000
                          1       8    5pz               0.038184       0.026494
                                                         0.060000      -0.005329
                                                         0.104647      -0.010218
                                                         0.200000       0.034021
                                                         0.610549       0.055558
                                                         1.983451       0.053727
                                                         7.130027       0.000000

                          1       9    4dx2              0.038184       0.000932
                                                         0.060000       0.000000
                                                         0.104647       0.027018
                                                         0.200000       0.000000
                                                         0.610549       0.059640
                                                         1.983451      -0.005140
                                                         7.130027      -0.004967
                          1       9    4dxy              0.038184       0.001613
                                                         0.060000       0.000000
                                                         0.104647       0.046797
                                                         0.200000       0.000000
                                                         0.610549       0.103299
                                                         1.983451      -0.008903
                                                         7.130027      -0.008603
                          1       9    4dxz              0.038184       0.001613
                                                         0.060000       0.000000
                                                         0.104647       0.046797
                                                         0.200000       0.000000
                                                         0.610549       0.103299
                                                         1.983451      -0.008903
                                                         7.130027      -0.008603
                          1       9    4dy2              0.038184       0.000932
                                                         0.060000       0.000000
                                                         0.104647       0.027018
                                                         0.200000       0.000000
                                                         0.610549       0.059640
                                                         1.983451      -0.005140
                                                         7.130027      -0.004967
                          1       9    4dyz              0.038184       0.001613
                                                         0.060000       0.000000
                                                         0.104647       0.046797
                                                         0.200000       0.000000
                                                         0.610549       0.103299
                                                         1.983451      -0.008903
                                                         7.130027      -0.008603
                          1       9    4dz2              0.038184       0.000932
                                                         0.060000       0.000000
                                                         0.104647       0.027018
                                                         0.200000       0.000000
                                                         0.610549       0.059640
                                                         1.983451      -0.005140
                                                         7.130027      -0.004967

                          1      10    5dx2              0.038184       0.011541
                                                         0.060000      -0.022237
                                                         0.104647       0.025255
                                                         0.200000       0.000066
                                                         0.610549       0.004561
                                                         1.983451       0.025924
                                                         7.130027       0.000000
                          1      10    5dxy              0.038184       0.019990
                                                         0.060000      -0.038516
                                                         0.104647       0.043743
                                                         0.200000       0.000114
                                                         0.610549       0.007900
                                                         1.983451       0.044902
                                                         7.130027       0.000000
                          1      10    5dxz              0.038184       0.019990
                                                         0.060000      -0.038516
                                                         0.104647       0.043743
                                                         0.200000       0.000114
                                                         0.610549       0.007900
                                                         1.983451       0.044902
                                                         7.130027       0.000000
                          1      10    5dy2              0.038184       0.011541
                                                         0.060000      -0.022237
                                                         0.104647       0.025255
                                                         0.200000       0.000066
                                                         0.610549       0.004561
                                                         1.983451       0.025924
                                                         7.130027       0.000000
                          1      10    5dyz              0.038184       0.019990
                                                         0.060000      -0.038516
                                                         0.104647       0.043743
                                                         0.200000       0.000114
                                                         0.610549       0.007900
                                                         1.983451       0.044902
                                                         7.130027       0.000000
                          1      10    5dz2              0.038184       0.011541
                                                         0.060000      -0.022237
                                                         0.104647       0.025255
                                                         0.200000       0.000066
                                                         0.610549       0.004561
                                                         1.983451       0.025924
                                                         7.130027       0.000000

                          1      11    5fx3              0.038184       0.000250
                                                         0.060000       0.000691
                                                         0.104647      -0.015270
                                                         0.200000       0.016956
                                                         0.610549       0.099408
                                                         1.983451      -0.055684
                                                         7.130027       0.000000
                          1      11    5fx2y             0.038184       0.000558
                                                         0.060000       0.001546
                                                         0.104647      -0.034144
                                                         0.200000       0.037914
                                                         0.610549       0.222283
                                                         1.983451      -0.124514
                                                         7.130027       0.000000
                          1      11    5fx2z             0.038184       0.000558
                                                         0.060000       0.001546
                                                         0.104647      -0.034144
                                                         0.200000       0.037914
                                                         0.610549       0.222283
                                                         1.983451      -0.124514
                                                         7.130027       0.000000
                          1      11    5fxy2             0.038184       0.000558
                                                         0.060000       0.001546
                                                         0.104647      -0.034144
                                                         0.200000       0.037914
                                                         0.610549       0.222283
                                                         1.983451      -0.124514
                                                         7.130027       0.000000
                          1      11    5fxyz             0.038184       0.000967
                                                         0.060000       0.002678
                                                         0.104647      -0.059140
                                                         0.200000       0.065668
                                                         0.610549       0.385006
                                                         1.983451      -0.215665
                                                         7.130027       0.000000
                          1      11    5fxz2             0.038184       0.000558
                                                         0.060000       0.001546
                                                         0.104647      -0.034144
                                                         0.200000       0.037914
                                                         0.610549       0.222283
                                                         1.983451      -0.124514
                                                         7.130027       0.000000
                          1      11    5fy3              0.038184       0.000250
                                                         0.060000       0.000691
                                                         0.104647      -0.015270
                                                         0.200000       0.016956
                                                         0.610549       0.099408
                                                         1.983451      -0.055684
                                                         7.130027       0.000000
                          1      11    5fy2z             0.038184       0.000558
                                                         0.060000       0.001546
                                                         0.104647      -0.034144
                                                         0.200000       0.037914
                                                         0.610549       0.222283
                                                         1.983451      -0.124514
                                                         7.130027       0.000000
                          1      11    5fyz2             0.038184       0.000558
                                                         0.060000       0.001546
                                                         0.104647      -0.034144
                                                         0.200000       0.037914
                                                         0.610549       0.222283
                                                         1.983451      -0.124514
                                                         7.130027       0.000000
                          1      11    5fz3              0.038184       0.000250
                                                         0.060000       0.000691
                                                         0.104647      -0.015270
                                                         0.200000       0.016956
                                                         0.610549       0.099408
                                                         1.983451      -0.055684
                                                         7.130027       0.000000

       Atomic covalent radius [Angstrom]:                                  1.230

       Atomic van der Waals radius [Angstrom]:                             1.820

     GTH Potential information for                                       GTH-PBE

       Description:                       Goedecker-Teter-Hutter pseudopotential
                                           Goedecker et al., PRB 54, 1703 (1996)
                                          Hartwigsen et al., PRB 58, 3641 (1998)
                                                      Krack, TCA 114, 145 (2005)

       Gaussian exponent of the core charge distribution:               3.125000
       Electronic configuration (s p d ...):                                   3

       Parameters of the local part of the GTH pseudopotential:

                          rloc        C1          C2          C3          C4
                        0.400000  -14.081155    9.626220   -1.783616    0.085152


 MOLECULE KIND INFORMATION


 All atoms are their own molecule, skipping detailed information


 TOTAL NUMBERS AND MAXIMUM NUMBERS

  Total number of            - Atomic kinds:                                   1
                             - Atoms:                                          3
                             - Shell sets:                                     3
                             - Shells:                                        33
                             - Primitive Cartesian functions:                 21
                             - Cartesian basis functions:                    108
                             - Spherical basis functions:                     93

  Maximum angular momentum of- Orbital basis functions:                        3
                             - Local part of the GTH pseudopotential:          6


 MODULE QUICKSTEP: ATOMIC COORDINATES IN ANGSTROM

   Atom Kind Element         X             Y             Z       Z(eff)     Mass
      1    1 Li    3      0.000000      0.000000      0.000000   3.0000   6.9410
      2    1 Li    3      4.818263      0.989924      0.587619   3.0000   6.9410
      3    1 Li    3     16.864136      3.464779      2.056694   3.0000   6.9410



 SCF PARAMETERS         Density guess:                                    ATOMIC
                        --------------------------------------------------------
                        max_scf:                                             500
                        max_scf_history:                                       0
                        max_diis:                                              4
                        --------------------------------------------------------
                        eps_scf:                                        1.00E-09
                        eps_scf_history:                                0.00E+00
                        eps_diis:                                       1.00E-01
                        eps_eigval:                                     1.00E-05
                        --------------------------------------------------------
                        level_shift [a.u.]:                             0.000000
                        added MOs                                        88    0
                        --------------------------------------------------------
                        Mixing method:                            BROYDEN_MIXING
                                                charge density mixing in g-space
                        --------------------------------------------------------
                        Smear method:                                FERMI_DIRAC
                        Electronic temperature [K]:                        300.0
                        Electronic temperature [a.u.]:                  9.50E-04
                        Accuracy threshold:                             1.00E-10
                        --------------------------------------------------------
                        No outer SCF

 PW_GRID| Information for grid number                                          1
 PW_GRID| Grid distributed over                                     8 processors
 PW_GRID| Real space group dimensions                                     8    1
 PW_GRID| the grid is blocked:                                                NO
 PW_GRID| Cutoff [a.u.]                                                    500.0
 PW_GRID| spherical cutoff:                                                   NO
 PW_GRID|   Bounds   1            -75      74                Points:         150
 PW_GRID|   Bounds   2            -75      74                Points:         150
 PW_GRID|   Bounds   3            -75      74                Points:         150
 PW_GRID| Volume element (a.u.^3)  0.1217E-03     Volume (a.u.^3)       410.6640
 PW_GRID| Grid span                                                    FULLSPACE
 PW_GRID|   Distribution                         Average         Max         Min
 PW_GRID|   G-Vectors                           421875.0      421950      421800
 PW_GRID|   G-Rays                                2812.5        2813        2812
 PW_GRID|   Real Space Points                   421875.0      427500      405000

 PW_GRID| Information for grid number                                          2
 PW_GRID| Number of the reference grid                                         1
 PW_GRID| Grid distributed over                                     8 processors
 PW_GRID| Real space group dimensions                                     8    1
 PW_GRID| the grid is blocked:                                                NO
 PW_GRID| Cutoff [a.u.]                                                    166.7
 PW_GRID| spherical cutoff:                                                   NO
 PW_GRID|   Bounds   1            -45      44                Points:          90
 PW_GRID|   Bounds   2            -45      44                Points:          90
 PW_GRID|   Bounds   3            -45      44                Points:          90
 PW_GRID| Volume element (a.u.^3)  0.5633E-03     Volume (a.u.^3)       410.6640
 PW_GRID| Grid span                                                    FULLSPACE
 PW_GRID|   Distribution                         Average         Max         Min
 PW_GRID|   G-Vectors                            91125.0       91260       91080
 PW_GRID|   G-Rays                                1012.5        1014        1012
 PW_GRID|   Real Space Points                    91125.0       97200       89100

 PW_GRID| Information for grid number                                          3
 PW_GRID| Number of the reference grid                                         1
 PW_GRID| Grid distributed over                                     8 processors
 PW_GRID| Real space group dimensions                                     8    1
 PW_GRID| the grid is blocked:                                                NO
 PW_GRID| Cutoff [a.u.]                                                     55.6
 PW_GRID| spherical cutoff:                                                   NO
 PW_GRID|   Bounds   1            -27      26                Points:          54
 PW_GRID|   Bounds   2            -27      26                Points:          54
 PW_GRID|   Bounds   3            -27      26                Points:          54
 PW_GRID| Volume element (a.u.^3)  0.2608E-02     Volume (a.u.^3)       410.6640
 PW_GRID| Grid span                                                    FULLSPACE
 PW_GRID|   Distribution                         Average         Max         Min
 PW_GRID|   G-Vectors                            19683.0       19710       19656
 PW_GRID|   G-Rays                                 364.5         365         364
 PW_GRID|   Real Space Points                    19683.0       20412       17496

 PW_GRID| Information for grid number                                          4
 PW_GRID| Number of the reference grid                                         1
 PW_GRID| Grid distributed over                                     8 processors
 PW_GRID| Real space group dimensions                                     8    1
 PW_GRID| the grid is blocked:                                                NO
 PW_GRID| Cutoff [a.u.]                                                     18.5
 PW_GRID| spherical cutoff:                                                   NO
 PW_GRID|   Bounds   1            -13      13                Points:          27
 PW_GRID|   Bounds   2            -13      13                Points:          27
 PW_GRID|   Bounds   3            -13      13                Points:          27
 PW_GRID| Volume element (a.u.^3)  0.2086E-01     Volume (a.u.^3)       410.6640
 PW_GRID| Grid span                                                    FULLSPACE
 PW_GRID|   Distribution                         Average         Max         Min
 PW_GRID|   G-Vectors                             2460.4        2538        2430
 PW_GRID|   G-Rays                                  91.1          94          90
 PW_GRID|   Real Space Points                     2460.4        2916        2187

 POISSON| Solver                                                        PERIODIC
 POISSON| Periodicity                                                        XYZ

 RS_GRID| Information for grid number                                          1
 RS_GRID|   Bounds   1            -75      74                Points:         150
 RS_GRID|   Bounds   2            -75      74                Points:         150
 RS_GRID|   Bounds   3            -75      74                Points:         150
 RS_GRID| Real space fully replicated
 RS_GRID| Group size                                                           1

 RS_GRID| Information for grid number                                          2
 RS_GRID|   Bounds   1            -45      44                Points:          90
 RS_GRID|   Bounds   2            -45      44                Points:          90
 RS_GRID|   Bounds   3            -45      44                Points:          90
 RS_GRID| Real space fully replicated
 RS_GRID| Group size                                                           1

 RS_GRID| Information for grid number                                          3
 RS_GRID|   Bounds   1            -27      26                Points:          54
 RS_GRID|   Bounds   2            -27      26                Points:          54
 RS_GRID|   Bounds   3            -27      26                Points:          54
 RS_GRID| Real space fully replicated
 RS_GRID| Group size                                                           1

 RS_GRID| Information for grid number                                          4
 RS_GRID|   Bounds   1            -13      13                Points:          27
 RS_GRID|   Bounds   2            -13      13                Points:          27
 RS_GRID|   Bounds   3            -13      13                Points:          27
 RS_GRID| Real space fully replicated
 RS_GRID| Group size                                                           1

 Number of electrons:                                                          9
 Number of occupied orbitals:                                                  5
 Number of molecular orbitals:                                                93

 Number of orbital functions:                                                 93
 Number of independent orbital functions:                                     93

 Extrapolation method: initial_guess

 Atomic guess: The first density matrix is obtained in terms of atomic orbitals
               and electronic configurations assigned to each atomic kind

 Guess for atomic kind: Li

 Electronic structure
    Total number of core electrons                                          0.00
    Total number of valence electrons                                       3.00
    Total number of electrons                                               3.00
    Multiplicity                                                   not specified
    S      2.00  1.00


 *******************************************************************************
                  Iteration          Convergence                     Energy [au]
 *******************************************************************************
                          1        0.761251E-01                  -7.254763385705
                          2        0.155541E-01                  -7.256053909833
                          3        0.245562E-03                  -7.256122734370
                          4        0.332897E-05                  -7.256122766150
                          5        0.536181E-07                  -7.256122766171

 Energy components [Hartree]           Total Energy ::           -7.256122766171
                                        Band Energy ::           -3.749230124142
                                     Kinetic Energy ::            6.557883115641
                                   Potential Energy ::          -13.814005881811
                                      Virial (-V/T) ::            2.106473329612
                                        Core Energy ::           -9.637296012081
                                          XC Energy ::           -1.640194067768
                                     Coulomb Energy ::            4.021367313678
                       Total Pseudopotential Energy ::          -16.227226239815
                       Local Pseudopotential Energy ::          -16.227226239815
                    Nonlocal Pseudopotential Energy ::            0.000000000000
                                        Confinement ::            0.320471120937

 Orbital energies  State     L     Occupation   Energy[a.u.]          Energy[eV]

                       1     0          2.000      -1.844154          -50.181973
                       2     0          1.000      -0.060923           -1.657793


 Total Electron Density at R=0:                                         5.514615
 Re-scaling the density matrix to get the right number of electrons
                  # Electrons              Trace(P)               Scaling factor
                            9                 9.000                        1.000


 SCF WAVEFUNCTION OPTIMIZATION

  Step     Update method      Time    Convergence         Total energy    Change
  ------------------------------------------------------------------------------
     1 NoMix/Diag. 0.10E+00   31.4     2.13037348       -22.5518217279 -2.26E+01
     2 Broy./Diag. 0.10E+00   42.5     0.00060133       -22.3938022505  1.58E-01
     3 Broy./Diag. 0.10E+00   43.0     0.00598917       -22.4177728775 -2.40E-02
     4 Broy./Diag. 0.10E+00   42.8     0.00058216       -22.4248507899 -7.08E-03
     5 Broy./Diag. 0.10E+00   42.9     0.00886221       -22.4206545975  4.20E-03
     6 Broy./Diag. 0.10E+00   42.9     0.00007074       -22.4199031468  7.51E-04
     7 Broy./Diag. 0.10E+00   42.8     0.00120815       -22.4166625498  3.24E-03
     8 Broy./Diag. 0.10E+00   42.9     0.00009073       -22.4161671987  4.95E-04
     9 Broy./Diag. 0.10E+00   43.0     0.00089516       -22.4161250118  4.22E-05
    10 Broy./Diag. 0.10E+00   43.0     0.00000203       -22.4161128908  1.21E-05
    11 Broy./Diag. 0.10E+00   42.9     0.00007243       -22.4162088114 -9.59E-05
    12 Broy./Diag. 0.10E+00   43.0     0.00000444       -22.4162238384 -1.50E-05
    13 Broy./Diag. 0.10E+00   42.9     0.00003440       -22.4162295336 -5.70E-06
    14 Broy./Diag. 0.10E+00   42.8     0.00000059       -22.4162314230 -1.89E-06
    15 Broy./Diag. 0.10E+00   42.9     0.00000850       -22.4162312312  1.92E-07
    16 Broy./Diag. 0.10E+00   42.9     0.00000067       -22.4162311938  3.74E-08
    17 Broy./Diag. 0.10E+00   43.0     0.00000058       -22.4162315591 -3.65E-07
    18 Broy./Diag. 0.10E+00   42.8     0.00000026       -22.4162318525 -2.93E-07
    19 Broy./Diag. 0.10E+00   42.9     0.00000035       -22.4162319773 -1.25E-07
    20 Broy./Diag. 0.10E+00   43.0     0.00000035       -22.4162317912  1.86E-07
    21 Broy./Diag. 0.10E+00   42.9     0.00000009       -22.4162315855  2.06E-07
    22 Broy./Diag. 0.10E+00   42.8     0.00000016       -22.4162314746  1.11E-07
    23 Broy./Diag. 0.10E+00   42.9     0.00000008       -22.4162314519  2.27E-08
    24 Broy./Diag. 0.10E+00   42.8     0.00000008       -22.4162314541 -2.24E-09
    25 Broy./Diag. 0.10E+00   43.0     0.00000017       -22.4162314685 -1.44E-08
    26 Broy./Diag. 0.10E+00   42.8     0.00000003       -22.4162314741 -5.63E-09
    27 Broy./Diag. 0.10E+00   42.7     0.00000001       -22.4162314698  4.32E-09
    28 Broy./Diag. 0.10E+00   42.7     0.00000003       -22.4162314698  5.13E-11
    29 Broy./Diag. 0.10E+00   42.8     0.00000003       -22.4162314743 -4.53E-09
    30 Broy./Diag. 0.10E+00   42.9     4.1085E-09       -22.4162314809 -6.56E-09
    31 Broy./Diag. 0.10E+00   42.8     1.3105E-09       -22.4162314893 -8.49E-09
    32 Broy./Diag. 0.10E+00   42.9     8.3775E-09       -22.4162314930 -3.70E-09
    33 Broy./Diag. 0.10E+00   42.9     1.3633E-09       -22.4162314928  2.35E-10
    34 Broy./Diag. 0.10E+00   42.5     3.1387E-09       -22.4162314910  1.83E-09
    35 Broy./Diag. 0.10E+00   42.8     3.1414E-09       -22.4162314902  8.14E-10
    36 Broy./Diag. 0.10E+00   43.1     2.4663E-10       -22.4162314898  3.46E-10

  *** SCF run converged in    36 steps ***


  Electronic density on regular grids:         -9.0000000000       -0.0000000000
  Core density on regular grids:                9.0000000000       -0.0000000000
  Total charge density on r-space grids:       -0.0000000000
  Total charge density g-space grids:          -0.0000000000

  Overlap energy of the core charge distribution:               0.00000000000000
  Self energy of the core charge distribution:                -19.04139844473677
  Core Hamiltonian energy:                                      0.91561129249903
  Hartree energy:                                               1.19104289856680
  Exchange-correlation energy:                                 -5.48136941834365
  Electronic entropic energy:                                  -0.00011781780318
  Fermi energy:                                                 0.00985322137260

  Total energy:                                               -22.41623148981780

 !-----------------------------------------------------------------------------!
                     Mulliken Population Analysis

 #  Atom  Element  Kind  Atomic population                           Net charge
       1     Li       1          3.016061                             -0.016061
       2     Li       1          2.991970                              0.008030
       3     Li       1          2.991970                              0.008030
 # Total charge                              9.000000                  0.000000

 !-----------------------------------------------------------------------------!

 !-----------------------------------------------------------------------------!
                           Hirshfeld Charges

  #Atom  Element  Kind  Ref Charge     Population                    Net charge
      1       Li     1       3.000          3.000                         0.000
      2       Li     1       3.000          3.000                        -0.000
      3       Li     1       3.000          3.000                        -0.000

  Total Charge                                                            0.000
 !-----------------------------------------------------------------------------!

 KPOINTS| Band Structure Calculation
 KPOINTS| Number of k-point sets                                               1
 KPOINTS| Number of added MOs/bands                                           -1
 KPOINTS| Number of k-points in set    1                                     197
 KPOINTS| In units of b-vector [2pi/Bohr]
 KPOINTS| Special point     1 not specifi     0.000000     0.000000     0.000000
 KPOINTS| Special point     2 not specifi     0.500000     0.500000     0.500000
 KPOINTS| Special point     3 not specifi     0.823819     0.176181     0.500000
 KPOINTS| Special point     4 not specifi     0.500000     0.000000     0.000000
 KPOINTS| Special point     5 not specifi     0.000000     0.000000     0.000000
 KPOINTS| Time for k-point line                                           11.247

 ENERGY| Total FORCE_EVAL ( QS ) energy [hartree]            -22.416231489817797

 -------------------------------------------------------------------------------
 -                                                                             -
 -                                DBCSR STATISTICS                             -
 -                                                                             -
 -------------------------------------------------------------------------------
 COUNTER                                    TOTAL       BLAS       SMM       ACC
 flops inhomo. stacks                           0       0.0%      0.0%      0.0%
 flops total                         0.000000E+00       0.0%      0.0%      0.0%
 flops max/rank                      0.000000E+00       0.0%      0.0%      0.0%
 matmuls inhomo. stacks                         0       0.0%      0.0%      0.0%
 matmuls total                                  0       0.0%      0.0%      0.0%
 number of processed stacks                     0       0.0%      0.0%      0.0%
 average stack size                                     0.0       0.0       0.0
 marketing flops                     0.000000E+00
 -------------------------------------------------------------------------------
 -                                                                             -
 -                      DBCSR MESSAGE PASSING PERFORMANCE                      -
 -                                                                             -
 -------------------------------------------------------------------------------
 ROUTINE             CALLS      AVE VOLUME [Bytes]
 MP_Bcast                1                     12.
 MP_Allreduce           19                     21.
 MP_Alltoall        854356                   6475.
 -------------------------------------------------------------------------------

 -------------------------------------------------------------------------------
 -                                                                             -
 -                                DBM STATISTICS                               -
 -                                                                             -
 -------------------------------------------------------------------------------
    M  x    N  x    K                                          COUNT     PERCENT
 -------------------------------------------------------------------------------

 -------------------------------------------------------------------------------
 -                                                                             -
 -                                GRID STATISTICS                              -
 -                                                                             -
 -------------------------------------------------------------------------------
 LP    KERNEL             BACKEND                              COUNT     PERCENT
 6     collocate general  CPU                                3555034      50.68%
 6     integrate general  CPU                                3458952      49.32%
 0     collocate general  CPU                                      6       0.00%
 0     integrate general  CPU                                      3       0.00%
 -------------------------------------------------------------------------------

 MEMORY| Estimated peak process memory [MiB]                                1445

 -------------------------------------------------------------------------------
 ----                             MULTIGRID INFO                            ----
 -------------------------------------------------------------------------------
 count for grid        1:          64464          cutoff [a.u.]          500.00
 count for grid        2:          55311          cutoff [a.u.]          166.67
 count for grid        3:          53665          cutoff [a.u.]           55.56
 count for grid        4:         165453          cutoff [a.u.]           18.52
 total gridlevel count  :         338893

 -------------------------------------------------------------------------------
 -                                                                             -
 -                         MESSAGE PASSING PERFORMANCE                         -
 -                                                                             -
 -------------------------------------------------------------------------------

 ROUTINE             CALLS      AVE VOLUME [Bytes]
 MP_Group                6
 MP_Bcast           336694                    794.
 MP_Allreduce       384891                     28.
 MP_Sync                 4
 MP_Alltoall           653               18871738.
 MP_SendRecv          1050                1127042.
 MP_ISendRecv         1015                1112083.
 MP_Wait            233051
 MP_comm_split           4
 MP_ISend           247436                   2058.
 MP_IRecv           392588                   1273.
 -------------------------------------------------------------------------------


 -------------------------------------------------------------------------------
 -                                                                             -
 -                           R E F E R E N C E S                               -
 -                                                                             -
 -------------------------------------------------------------------------------
 
 CP2K version 2025.1 (Development Version), the CP2K developers group (2025).
 CP2K is freely available from https://www.cp2k.org/ .
 
 T. D. Kuehne, M. Iannuzzi, M. Del Ben, V. V. Rybkin, P. Seewald, F. Stein, T. 
 Laino, R. Z. Khaliullin, O. Schuett, F. Schiffmann, D. Golze, J. Wilhelm, S. 
 Chulkov, M. H. Bani-Hashemian, V. Weber, U. Borstnik, M. Taillefumier, A. S. 
 Jakobovits, A. Lazzaro, H. Pabst, T. Mueller, R. Schade, M. Guidon, S. 
 Andermatt, N. Holmberg, G. K. Schenter, A. Hehn, A. Bussy, F. Belleflamme, G. 
 Tabacchi, A. Gloess, M. Lass, I. Bethune, C. J. Mundy, C. Plessl, M. Watkins, 
 J. VandeVondele, M. Krack, J. Hutter.
 J. Chem. Phys. 152, 194103 (2020).
 CP2K: An electronic structure and molecular dynamics software package - 
 Quickstep: Efficient and accurate electronic structure calculations.
 https://doi.org/10.1063/5.0007045

 O. Schuett, P. Messmer, J. Hutter, J. VandeVondele.
 Electronic Structure Calculations on Graphics Processing Units, 173-190 (2016).
 GPU-Accelerated Sparse Matrix-Matrix Multiplication for Linear Scaling Density 
 Functional Theory.
 https://doi.org/10.1002/9781118670712.ch8

 J. Hutter, M. Iannuzzi, F. Schiffmann, J. VandeVondele.
 WIREs Comput Mol Sci. 4, 15-25 (2014).
 CP2K: atomistic simulations of condensed matter systems.
 https://doi.org/10.1002/wcms.1159

 U. Borstnik, J. VandeVondele, V. Weber, J. Hutter.
 Parallel Comput. 40, 47-58 (2014).
 Sparse matrix multiplication: The distributed block-compressed sparse row 
 library.
 https://doi.org/10.1016/j.parco.2014.03.012

 J. VandeVondele, J. Hutter.
 J. Chem. Phys. 127, 114105 (2007).
 Gaussian basis sets for accurate calculations on molecular systems in gas and 
 condensed phases.
 https://doi.org/10.1063/1.2770708

 J. VandeVondele, M. Krack, F. Mohamed, M. Parrinello, T. Chassaing, J. Hutter.
 Comput. Phys. Commun. 167, 103-128 (2005).
 QUICKSTEP: Fast and accurate density functional calculations using a mixed 
 Gaussian and plane waves approach.
 https://doi.org/10.1016/j.cpc.2004.12.014

 M. Krack.
 Theor. Chem. Acc. 114, 145-152 (2005).
 Pseudopotentials for H to Kr optimized for gradient-corrected 
 exchange-correlation functionals.
 https://doi.org/10.1007/s00214-005-0655-y

 M. Frigo, S. G. Johnson.
 Proc. IEEE 93, 216-231 (2005).
 The design and implementation of FFTW3.
 https://doi.org/10.1109/JPROC.2004.840301

 C. Hartwigsen, S. Goedecker, J. Hutter.
 Phys. Rev. B 58, 3641-3662 (1998).
 Relativistic separable dual-space Gaussian pseudopotentials from H to Rn.
 https://doi.org/10.1103/PhysRevB.58.3641

 G. Lippert, J. Hutter, M. Parrinello.
 Mol. Phys. 92, 477-487 (1997).
 A hybrid Gaussian and plane wave density functional scheme.
 https://doi.org/10.1080/002689797170220

 S. Goedecker, M. Teter, J. Hutter.
 Phys. Rev. B 54, 1703-1710 (1996).
 Separable dual-space Gaussian pseudopotentials.
 https://doi.org/10.1103/PhysRevB.54.1703

 J. P. Perdew, K. Burke, M. Ernzerhof.
 Phys. Rev. Lett. 77, 3865-3868 (1996).
 Generalized gradient approximation made simple.
 https://doi.org/10.1103/PhysRevLett.77.3865


 -------------------------------------------------------------------------------
 -                                                                             -
 -                                T I M I N G                                  -
 -                                                                             -
 -------------------------------------------------------------------------------
 SUBROUTINE                       CALLS  ASD         SELF TIME        TOTAL TIME
                                MAXIMUM       AVERAGE  MAXIMUM  AVERAGE  MAXIMUM
 CP2K                                 1  1.0    0.026    0.030 1579.706 1579.706
 qs_energies                          1  2.0    0.017    0.057 1579.283 1579.324
 scf_env_do_scf                       1  3.0    0.000    0.000 1548.545 1548.546
 scf_env_do_scf_inner_loop           36  4.0    0.112    0.119 1548.545 1548.546
 do_general_diag_kp                  37  5.9    0.226    0.248  940.889 1130.615
 qs_scf_new_mos_kp                   36  5.0    0.000    0.000  929.774 1119.501
 mp_alltoall_i22                 145596  8.7  682.867 1082.999  682.867 1082.999
 dbcsr_desymmetrize_deep          82408  7.4    1.348    1.553  572.333  906.814
 qs_ks_update_qs_env                 36  5.0    0.000    0.000  200.256  519.048
 rebuild_ks_matrix                   36  6.0    0.000    0.000  196.167  514.960
 qs_ks_build_kohn_sham_matrix        36  7.0    0.209    0.216  196.166  514.960
 sum_up_and_integrate                36  8.0    0.000    0.001  191.262  510.012
 integrate_v_rspace                  36  9.0    0.200    0.543  191.257  510.006
 grid_integrate_task_list            36 10.0  189.786  508.236  189.786  508.236
 transfer_rs2pw                     150  8.0    0.002    0.003  263.729  419.723
 transfer_rs2pw_500                  39  8.9    0.504    0.546  263.481  419.488
 mp_sendrecv_dv                    1050 10.0  263.122  419.097  263.122  419.097
 qs_rho_update_rho_low               37  5.0    0.000    0.000  417.352  417.417
 calculate_rho_elec                  37  6.0    0.142    0.176  417.352  417.416
 density_rs2pw                       37  7.0    0.002    0.002  261.827  416.369
 grid_collocate_task_list            37  7.0  155.370  415.273  155.370  415.273
 rskp_transform                   18826  6.9  144.223  388.267  144.223  388.267
 dbcsr_complete_redistribute      63188  8.1    2.386    2.681  137.411  203.359
 kpoint_density_transform            36  7.0    0.156    0.173  192.516  193.028
 copy_fm_to_dbcsr                 18432  8.0    0.114    0.124  123.030  188.617
 transform_dmat                    9216  8.0   65.794  182.670   65.794  182.670
 copy_dbcsr_to_fm                 44756  6.8    0.477    0.504   25.330   25.828
 init_scf_run                         1  3.0    0.000    0.000   12.383   13.010
 scf_env_initial_rho_setup            1  4.0    0.000    0.000   12.383   13.009
 cp_cfm_geeig_canon                1349  6.6    0.019    0.021    8.442    8.489
 cp_cfm_heevd                      2698  7.6    0.004    0.004    7.668    7.714
 cp_cfm_heevd_base                 2698  8.6    7.664    7.710    7.664    7.710
 cp_fm_start_copy_general         56084  7.3    1.153    1.529    6.742    6.857
 dbcsr_finalize                  202864  8.0    0.833    0.992    5.828    6.398
 cp_dbcsr_alloc_block_from_nbl    25082  5.0    2.128    5.627    2.298    6.014
 write_kpoints_restart               36  5.0    0.071    0.084    5.734    5.734
 dbcsr_dot                       255745  8.0    1.352    2.002    4.930    5.566
 qs_energies_init_hamiltonians        1  3.0    0.000    0.000    5.259    5.259
 mp_alltoall_d11v                436788  9.3    4.944    5.215    4.944    5.215
 mp_sum_d                        256451  9.0    3.499    4.944    3.499    4.944
 fft_wrap_pw1pw2                    653 10.0    0.009    0.011    4.158    4.234
 dbcsr_create_new                489648  7.7    3.423    3.882    3.734    4.206
 build_core_hamiltonian_matrix        1  4.0    0.013    0.013    1.579    4.121
 evaluate_core_matrix_traces         36  6.0    0.000    0.000    4.089    4.089
 calculate_ptrace_kp                 72  7.0    0.192    0.205    4.088    4.089
 qs_env_update_s_mstruct              1  4.0    0.000    0.000    2.991    4.040
 fft_wrap_pw1pw2_500                434 11.3    0.315    0.335    3.937    4.024
 calculate_rho_core                   1  5.0    0.006    0.011    2.599    4.007
 dbcsr_merge_all                  63188 10.1    2.101    2.611    3.443    3.891
 mp_cart_sub                      89514  8.8    3.727    3.774    3.727    3.774
 mp_allgather_i                  112168  8.3    3.475    3.627    3.475    3.627
 hybrid_alltoall_any              82408  8.4    0.346    0.361    3.051    3.288
 fft3d_ps                           653 12.0    1.567    1.628    3.210    3.286
 qs_vxc_create                       36  8.0    0.001    0.001    3.099    3.113
 xc_vxc_pw_create                    36  9.0    0.116    0.119    3.098    3.112
 self_consistency_check              36  5.0    0.181    0.187    2.834    3.093
 mp_alltoall_i11v                271972  8.9    2.827    2.951    2.827    2.951
 cp_sm_mix                       127872  6.0    0.507    0.871    2.403    2.755
 gspace_mixing                       35  5.0    0.104    0.106    2.734    2.734
 dbcsr_copy                      277728  6.6    1.494    1.594    2.252    2.485
 mp_cart_create                   44763  8.8    2.188    2.314    2.188    2.314
 broyden_mixing                      35  6.0    2.234    2.271    2.267    2.296
 cp_fm_write_unformatted           7104  6.0    1.445    2.010    1.640    2.223
 mp_max_d                        127874  7.0    1.595    2.169    1.595    2.169
 xc_pw_derive                       216 11.0    0.001    0.001    2.009    2.036
 mixing_allocate                      1  3.0    0.020    0.021    0.701    1.731
 xc_rho_set_and_dset_create          36 10.0    0.073    0.076    1.664    1.678
 calculate_first_density_matrix       1  5.0    0.002    0.002    1.047    1.674
 calculate_atomic_block_dm            1  6.0    0.001    0.001    1.038    1.667
 dbcsr_work_create               145596  8.7    0.867    0.908    1.462    1.584
 dbcsr_iterator_start            785519  8.6    1.320    1.375    1.545    1.566
 mp_bcast_iv                     224359  8.3    1.352    1.540    1.352    1.540
 mp_alltoall_z22v                   653 14.0    1.399    1.539    1.399    1.539
 kpoint_set_mo_occupation            36  7.0    1.408    1.421    1.490    1.527
 copy_fm_to_dbcsr_bc              18432  9.0    0.255    0.275    0.943    1.451
 potential_pw2rs                     36 10.0    0.006    0.006    1.271    1.341
 xc_pw_divergence                    36 10.0    0.001    0.001    1.299    1.312
 build_core_ppl                       1  5.0    0.370    1.140    0.370    1.140
 dbcsr_data_new                 1599293  9.6    0.983    1.117    0.983    1.117
 copy_dbcsr_to_fm_bc              44756  7.8    0.479    0.493    1.072    1.094
 dbcsr_work_destroy_all          145596  9.7    0.690    0.696    1.080    1.089
 tree_to_linear_d                 63188 11.1    1.041    1.086    1.041    1.086
 build_overlap_matrix_low             1  5.0    0.056    0.110    0.406    1.079
 dbcsr_iterator_stop             785519  8.6    0.859    0.871    1.023    1.037
 dbcsr_set                       378041  7.2    0.334    0.346    0.668    1.034
 x_to_yz                            360 13.2    0.148    0.161    0.930    0.968
 calculate_ecore_overlap              1  4.0    0.000    0.000    0.595    0.954
 build_kinetic_matrix_low             1  5.0    0.056    0.109    0.388    0.953
 dbcsr_data_release             2549628  9.9    0.907    0.953    0.907    0.953
 qs_env_rebuild_rho                   1  5.0    0.000    0.000    0.348    0.862
 qs_rho_rebuild                       1  6.0    0.009    0.010    0.348    0.862
 kpoint_density_matrices             36  7.0    0.025    0.026    0.766    0.846
 mp_sum_iv                           24  5.3    0.516    0.831    0.516    0.831
 qs_scf_ensure_work_matrices          1  3.0    0.000    0.000    0.516    0.830
 transfer_pw2rs                     145 11.0    0.001    0.001    0.824    0.825
 yz_to_x                            293 12.8    0.089    0.098    0.705    0.813
 parallel_gemm_fm                  4608  8.0    0.004    0.004    0.727    0.806
 parallel_gemm_fm_gemm             4608  9.0    0.004    0.004    0.723    0.802
 cp_fm_gemm                        4608 10.0    0.719    0.798    0.719    0.798
 cp_fm_finish_copy_general        23828  7.7    0.664    0.695    0.708    0.756
 dbcsr_destroy                   233904  7.6    0.386    0.408    0.697    0.728
 cp_cfm_gemm                       4047  7.6    0.715    0.722    0.715    0.722
 mp_waitall_1                    233051  8.3    0.469    0.709    0.469    0.709
 dbcsr_zero                      378041  8.2    0.335    0.688    0.335    0.688
 mp_send_dv                        7104  7.0    0.168    0.657    0.168    0.657
 transfer_pw2rs_500                  37 11.9    0.335    0.357    0.604    0.623
 xc_functional_eval                  36 11.0    0.000    0.000    0.523    0.540
 pbe_lda_eval                        36 12.0    0.522    0.539    0.522    0.539
 dbcsr_reserve_blocks             43514  8.1    0.245    0.467    0.274    0.504
 dbcsr_copy_into_existing         21984  9.4    0.213    0.357    0.338    0.486
 mp_bcast_im                     112168  8.3    0.415    0.476    0.415    0.476
 quick_finalize                   82408  9.4    0.245    0.272    0.422    0.471
 pw_scatter_p                       360 12.2    0.368    0.378    0.368    0.378
 mp_comm_free                    134311  8.8    0.328    0.350    0.328    0.350
 scf_post_calculation_gpw             1  3.0    0.000    0.000    0.299    0.299
 write_available_results              1  4.0    0.000    0.000    0.298    0.298
 write_mo_free_results                1  5.0    0.004    0.004    0.298    0.298
 pw_poisson_solve                    36  8.0    0.000    0.001    0.274    0.276
 dbcsr_make_index_exist          489648  8.7    0.217    0.258    0.217    0.258
 dbcsr_iterator_seek             785519  9.6    0.225    0.257    0.225    0.257
 transfer_rs2pw_170                  37  9.0    0.082    0.088    0.191    0.224
 mp_recv_dv                       21312  7.0    0.027    0.213    0.027    0.213
 mp_isendrecv_dv                   1015 13.0    0.069    0.205    0.069    0.205
 mp_isend_dv                      56084  8.3    0.191    0.202    0.191    0.202
 transfer_pw2rs_170                  36 12.0    0.083    0.090    0.167    0.194
 dbcsr_sort_indices              189110 10.5    0.154    0.191    0.154    0.191
 kpoint_init_cell_index               2  3.5    0.155    0.166    0.171    0.177
 pw_integral_ab_c1d_c1d_gs           36  9.0    0.157    0.160    0.163    0.164
 fft_wrap_pw1pw2_170                 73 10.5    0.013    0.016    0.156    0.162
 dbcsr_reserve_all_blocks         18432 10.0    0.030    0.034    0.143    0.161
 -------------------------------------------------------------------------------

 The number of warnings for this run is : 1
 
 -------------------------------------------------------------------------------
  **** **** ******  **  PROGRAM ENDED AT                 2025-08-21 01:14:24.976
 ***** ** ***  *** **   PROGRAM RAN ON                              i01r06c06s03
 **    ****   ******    PROGRAM RAN BY                                   di38fab
 ***** **    ** ** **   PROGRAM PROCESS ID                               2258497
  **** **  *******  **  PROGRAM STOPPED IN /hppfs/scratch/04/di38fab/09_GTH/Delt
                                           a_Set/Li/aug-TZVP-MOLOPT-GTH-tier-2/8
                                           x8x8
