 DBCSR| CPU Multiplication driver                                           BLAS (U)
 DBCSR| Multrec recursion limit                                              512 (U)
 DBCSR| Multiplication stack size                                           1000 (D)
 DBCSR| Maximum elements for images                                    UNLIMITED (U)
 DBCSR| Multiplicative factor virtual images                                   1 (U)
 DBCSR| Use multiplication densification                                       T (D)
 DBCSR| Multiplication size stacks                                             3 (U)
 DBCSR| Use memory pool for CPU allocation                                     F (U)
 DBCSR| Number of 3D layers                                               SINGLE (U)
 DBCSR| Use MPI memory allocation                                              F (U)
 DBCSR| Use RMA algorithm                                                      F (U)
 DBCSR| Use Communication thread                                               T (U)
 DBCSR| Communication thread load                                             45 (D)
 DBCSR| MPI: My process id                                                     0
 DBCSR| MPI: Number of processes                                              16
 DBCSR| OMP: Current number of threads                                        12
 DBCSR| OMP: Max number of threads                                            12
 DBCSR| Split modifier for TAS multiplication algorithm                  1.0E+00 (U)


  **** **** ******  **  PROGRAM STARTED AT               2025-08-05 22:14:47.442
 ***** ** ***  *** **   PROGRAM STARTED ON                          i04r09c01s06
 **    ****   ******    PROGRAM STARTED BY                               di38fab
 ***** **    ** ** **   PROGRAM PROCESS ID                                467071
  **** **  *******  **  PROGRAM STARTED IN /hppfs/scratch/04/di38fab/09_GTH/Delt
                                           a_Set/Cl/aug-TZVP-MOLOPT-GTH-tier-1/8
                                           x8x8

 CP2K| version string:                 CP2K version 2025.1 (Development Version)
 CP2K| source code revision number:                                  git:3130539
 CP2K| cp2kflags: omp libint fftw3 libxc parallel scalapack max_contr=4         
 CP2K| is freely available from                            https://www.cp2k.org/
 CP2K| Program compiled at                         Tue Jun  3 16:14:32 CEST 2025
 CP2K| Program compiled on                                               login01
 CP2K| Program compiled for                                        Supermuc-foss
 CP2K| Data directory path                  /hppfs/work/pn36zo/di38fab/cp2k/data
 CP2K| Input file name                                                    GW.inp

 GLOBAL| Force Environment number                                              1
 GLOBAL| Basis set file name            /hppfs/scratch/04/di38fab/09_GTH/BASIS_A
 GLOBAL| Potential file name            /hppfs/work/pn36zo/di38fab/cp2k/data/GTH
 GLOBAL| MM Potential file name                                     MM_POTENTIAL
 GLOBAL| Coordinate file name                                             Cl.cif
 GLOBAL| Method name                                                        CP2K
 GLOBAL| Project name                                                       WSe2
 GLOBAL| Run type                                                         ENERGY
 GLOBAL| FFT library                                                       FFTW3
 GLOBAL| Diagonalization library                                       ScaLAPACK
 GLOBAL| Cholesky decomposition library                                ScaLAPACK
 GLOBAL| DGEMM library                                                      BLAS
 GLOBAL| Orthonormality check for eigenvectors                          DISABLED
 GLOBAL| Matrix multiplication library                                 ScaLAPACK
 GLOBAL| All-to-all communication in single precision                          F
 GLOBAL| FFTs using library dependent lengths                                  F
 GLOBAL| Grid backend                                                       AUTO
 GLOBAL| Global print level                                               MEDIUM
 GLOBAL| MPI I/O enabled                                                       T
 GLOBAL| Total number of message passing processes                            16
 GLOBAL| Number of threads for this process                                   12
 GLOBAL| This output is from process                                           0
 GLOBAL| OpenMP stack size per thread (OMP_STACKSIZE)                    default
 GLOBAL| CPU model name             Intel(R) Xeon(R) Platinum 8174 CPU @ 3.10GHz

 MEMORY| system memory details [Kb]
 MEMORY|                        rank 0           min           max       average
 MEMORY| MemTotal             98436664      98436664      98436708      98436686
 MEMORY| MemFree              84486672      84416032      84778380      84584109
 MEMORY| Buffers                     0             0             0             0
 MEMORY| Cached                2371400       2361884       2392636       2373672
 MEMORY| Slab                  1289816       1239148       1311504       1271079
 MEMORY| SReclaimable           283856        277824        295000        283753
 MEMORY| MemLikelyFree        87141928      87103668      87418088      87241534


 *** Fundamental physical constants (SI units) ***

 *** Literature: B. J. Mohr and B. N. Taylor,
 ***             CODATA recommended values of the fundamental physical
 ***             constants: 2006, Web Version 5.1
 ***             http://physics.nist.gov/constants

 Speed of light in vacuum [m/s]                             2.99792458000000E+08
 Magnetic constant or permeability of vacuum [N/A**2]       1.25663706143592E-06
 Electric constant or permittivity of vacuum [F/m]          8.85418781762039E-12
 Planck constant (h) [J*s]                                  6.62606896000000E-34
 Planck constant (h-bar) [J*s]                              1.05457162825177E-34
 Elementary charge [C]                                      1.60217648700000E-19
 Electron mass [kg]                                         9.10938215000000E-31
 Electron g factor [ ]                                     -2.00231930436220E+00
 Proton mass [kg]                                           1.67262163700000E-27
 Fine-structure constant                                    7.29735253760000E-03
 Rydberg constant [1/m]                                     1.09737315685270E+07
 Avogadro constant [1/mol]                                  6.02214179000000E+23
 Boltzmann constant [J/K]                                   1.38065040000000E-23
 Atomic mass unit [kg]                                      1.66053878200000E-27
 Bohr radius [m]                                            5.29177208590000E-11

 *** Conversion factors ***

 [u] -> [a.u.]                                              1.82288848426455E+03
 [Angstrom] -> [Bohr] = [a.u.]                              1.88972613288564E+00
 [a.u.] = [Bohr] -> [Angstrom]                              5.29177208590000E-01
 [a.u.] -> [s]                                              2.41888432650478E-17
 [a.u.] -> [fs]                                             2.41888432650478E-02
 [a.u.] -> [J]                                              4.35974393937059E-18
 [a.u.] -> [N]                                              8.23872205491840E-08
 [a.u.] -> [K]                                              3.15774647902944E+05
 [a.u.] -> [kJ/mol]                                         2.62549961709828E+03
 [a.u.] -> [kcal/mol]                                       6.27509468713739E+02
 [a.u.] -> [Pa]                                             2.94210107994716E+13
 [a.u.] -> [bar]                                            2.94210107994716E+08
 [a.u.] -> [atm]                                            2.90362800883016E+08
 [a.u.] -> [eV]                                             2.72113838565563E+01
 [a.u.] -> [Hz]                                             6.57968392072181E+15
 [a.u.] -> [1/cm] (wave numbers)                            2.19474631370540E+05
 [a.u./Bohr**2] -> [1/cm]                                   5.14048714338585E+03
 

 CELL_TOP| Volume [angstrom^3]:                                       305.428517
 CELL_TOP| Vector a [angstrom     7.779     0.000     0.000   |a| =     7.778750
 CELL_TOP| Vector b [angstrom     0.000     4.349     0.000   |b| =     4.349410
 CELL_TOP| Vector c [angstrom     0.000     0.000     9.028   |c| =     9.027540
 CELL_TOP| Angle (b,c), alpha [degree]:                                90.000000
 CELL_TOP| Angle (a,c), beta  [degree]:                                90.000000
 CELL_TOP| Angle (a,b), gamma [degree]:                                90.000000
 CELL_TOP| Numerically orthorhombic:                                         YES
 CELL_TOP| Periodicity                                                       XYZ

 CELL_CIF| Volume [angstrom^3]:                                       305.428517
 CELL_CIF| Vector a [angstrom     7.779     0.000     0.000   |a| =     7.778750
 CELL_CIF| Vector b [angstrom     0.000     4.349     0.000   |b| =     4.349410
 CELL_CIF| Vector c [angstrom     0.000     0.000     9.028   |c| =     9.027540
 CELL_CIF| Angle (b,c), alpha [degree]:                                90.000000
 CELL_CIF| Angle (a,c), beta  [degree]:                                90.000000
 CELL_CIF| Angle (a,b), gamma [degree]:                                90.000000
 CELL_CIF| Numerically orthorhombic:                                         YES
 CELL_CIF| Periodicity                                                       XYZ

 GENERATE|  Preliminary Number of Bonds generated:                             0
 GENERATE|  Achieved consistency in connectivity generation.

 CELL| Volume [angstrom^3]:                                           305.428517
 CELL| Vector a [angstrom]:       7.779     0.000     0.000   |a| =     7.778750
 CELL| Vector b [angstrom]:       0.000     4.349     0.000   |b| =     4.349410
 CELL| Vector c [angstrom]:       0.000     0.000     9.028   |c| =     9.027540
 CELL| Angle (b,c), alpha [degree]:                                    90.000000
 CELL| Angle (a,c), beta  [degree]:                                    90.000000
 CELL| Angle (a,b), gamma [degree]:                                    90.000000
 CELL| Numerically orthorhombic:                                             YES
 CELL| Periodicity                                                           XYZ

 CELL_REF| Volume [angstrom^3]:                                       305.428517
 CELL_REF| Vector a [angstrom     7.779     0.000     0.000   |a| =     7.778750
 CELL_REF| Vector b [angstrom     0.000     4.349     0.000   |b| =     4.349410
 CELL_REF| Vector c [angstrom     0.000     0.000     9.028   |c| =     9.027540
 CELL_REF| Angle (b,c), alpha [degree]:                                90.000000
 CELL_REF| Angle (a,c), beta  [degree]:                                90.000000
 CELL_REF| Angle (a,b), gamma [degree]:                                90.000000
 CELL_REF| Numerically orthorhombic:                                         YES
 CELL_REF| Periodicity                                                       XYZ

 *** WARNING in cryssym.F:180 :: Symmetry library SPGLIB not available ***


 *******************************************************************************
                                    Kpoints
 *******************************************************************************
 BRILLOUIN| K-point scheme                                        Monkhorst-Pack
 BRILLOUIN| K-Point grid                                             8    8    8
 BRILLOUIN| Accuracy in Symmetry determination                      0.100000E-05
 BRILLOUIN| K-Point point group symmetrization                               OFF
 BRILLOUIN| Wavefunction type                                            COMPLEX
 BRILLOUIN| List of Kpoints [2 Pi/Bohr]                                      256
 BRILLOUIN| Number           Weight            X              Y              Z
 BRILLOUIN|     1           0.00391       -0.43750       -0.43750       -0.43750
 BRILLOUIN|     2           0.00391       -0.43750       -0.43750       -0.31250
 BRILLOUIN|     3           0.00391       -0.43750       -0.43750       -0.18750
 BRILLOUIN|     4           0.00391       -0.43750       -0.43750       -0.06250
 BRILLOUIN|     5           0.00391       -0.43750       -0.43750        0.06250
 BRILLOUIN|     6           0.00391       -0.43750       -0.43750        0.18750
 BRILLOUIN|     7           0.00391       -0.43750       -0.43750        0.31250
 BRILLOUIN|     8           0.00391       -0.43750       -0.43750        0.43750
 BRILLOUIN|     9           0.00391       -0.43750       -0.31250       -0.43750
 BRILLOUIN|    10           0.00391       -0.43750       -0.31250       -0.31250
 BRILLOUIN|    11           0.00391       -0.43750       -0.31250       -0.18750
 BRILLOUIN|    12           0.00391       -0.43750       -0.31250       -0.06250
 BRILLOUIN|    13           0.00391       -0.43750       -0.31250        0.06250
 BRILLOUIN|    14           0.00391       -0.43750       -0.31250        0.18750
 BRILLOUIN|    15           0.00391       -0.43750       -0.31250        0.31250
 BRILLOUIN|    16           0.00391       -0.43750       -0.31250        0.43750
 BRILLOUIN|    17           0.00391       -0.43750       -0.18750       -0.43750
 BRILLOUIN|    18           0.00391       -0.43750       -0.18750       -0.31250
 BRILLOUIN|    19           0.00391       -0.43750       -0.18750       -0.18750
 BRILLOUIN|    20           0.00391       -0.43750       -0.18750       -0.06250
 BRILLOUIN|    21           0.00391       -0.43750       -0.18750        0.06250
 BRILLOUIN|    22           0.00391       -0.43750       -0.18750        0.18750
 BRILLOUIN|    23           0.00391       -0.43750       -0.18750        0.31250
 BRILLOUIN|    24           0.00391       -0.43750       -0.18750        0.43750
 BRILLOUIN|    25           0.00391       -0.43750       -0.06250       -0.43750
 BRILLOUIN|    26           0.00391       -0.43750       -0.06250       -0.31250
 BRILLOUIN|    27           0.00391       -0.43750       -0.06250       -0.18750
 BRILLOUIN|    28           0.00391       -0.43750       -0.06250       -0.06250
 BRILLOUIN|    29           0.00391       -0.43750       -0.06250        0.06250
 BRILLOUIN|    30           0.00391       -0.43750       -0.06250        0.18750
 BRILLOUIN|    31           0.00391       -0.43750       -0.06250        0.31250
 BRILLOUIN|    32           0.00391       -0.43750       -0.06250        0.43750
 BRILLOUIN|    33           0.00391       -0.43750        0.06250       -0.43750
 BRILLOUIN|    34           0.00391       -0.43750        0.06250       -0.31250
 BRILLOUIN|    35           0.00391       -0.43750        0.06250       -0.18750
 BRILLOUIN|    36           0.00391       -0.43750        0.06250       -0.06250
 BRILLOUIN|    37           0.00391       -0.43750        0.06250        0.06250
 BRILLOUIN|    38           0.00391       -0.43750        0.06250        0.18750
 BRILLOUIN|    39           0.00391       -0.43750        0.06250        0.31250
 BRILLOUIN|    40           0.00391       -0.43750        0.06250        0.43750
 BRILLOUIN|    41           0.00391       -0.43750        0.18750       -0.43750
 BRILLOUIN|    42           0.00391       -0.43750        0.18750       -0.31250
 BRILLOUIN|    43           0.00391       -0.43750        0.18750       -0.18750
 BRILLOUIN|    44           0.00391       -0.43750        0.18750       -0.06250
 BRILLOUIN|    45           0.00391       -0.43750        0.18750        0.06250
 BRILLOUIN|    46           0.00391       -0.43750        0.18750        0.18750
 BRILLOUIN|    47           0.00391       -0.43750        0.18750        0.31250
 BRILLOUIN|    48           0.00391       -0.43750        0.18750        0.43750
 BRILLOUIN|    49           0.00391       -0.43750        0.31250       -0.43750
 BRILLOUIN|    50           0.00391       -0.43750        0.31250       -0.31250
 BRILLOUIN|    51           0.00391       -0.43750        0.31250       -0.18750
 BRILLOUIN|    52           0.00391       -0.43750        0.31250       -0.06250
 BRILLOUIN|    53           0.00391       -0.43750        0.31250        0.06250
 BRILLOUIN|    54           0.00391       -0.43750        0.31250        0.18750
 BRILLOUIN|    55           0.00391       -0.43750        0.31250        0.31250
 BRILLOUIN|    56           0.00391       -0.43750        0.31250        0.43750
 BRILLOUIN|    57           0.00391       -0.43750        0.43750       -0.43750
 BRILLOUIN|    58           0.00391       -0.43750        0.43750       -0.31250
 BRILLOUIN|    59           0.00391       -0.43750        0.43750       -0.18750
 BRILLOUIN|    60           0.00391       -0.43750        0.43750       -0.06250
 BRILLOUIN|    61           0.00391       -0.43750        0.43750        0.06250
 BRILLOUIN|    62           0.00391       -0.43750        0.43750        0.18750
 BRILLOUIN|    63           0.00391       -0.43750        0.43750        0.31250
 BRILLOUIN|    64           0.00391       -0.43750        0.43750        0.43750
 BRILLOUIN|    65           0.00391       -0.31250       -0.43750       -0.43750
 BRILLOUIN|    66           0.00391       -0.31250       -0.43750       -0.31250
 BRILLOUIN|    67           0.00391       -0.31250       -0.43750       -0.18750
 BRILLOUIN|    68           0.00391       -0.31250       -0.43750       -0.06250
 BRILLOUIN|    69           0.00391       -0.31250       -0.43750        0.06250
 BRILLOUIN|    70           0.00391       -0.31250       -0.43750        0.18750
 BRILLOUIN|    71           0.00391       -0.31250       -0.43750        0.31250
 BRILLOUIN|    72           0.00391       -0.31250       -0.43750        0.43750
 BRILLOUIN|    73           0.00391       -0.31250       -0.31250       -0.43750
 BRILLOUIN|    74           0.00391       -0.31250       -0.31250       -0.31250
 BRILLOUIN|    75           0.00391       -0.31250       -0.31250       -0.18750
 BRILLOUIN|    76           0.00391       -0.31250       -0.31250       -0.06250
 BRILLOUIN|    77           0.00391       -0.31250       -0.31250        0.06250
 BRILLOUIN|    78           0.00391       -0.31250       -0.31250        0.18750
 BRILLOUIN|    79           0.00391       -0.31250       -0.31250        0.31250
 BRILLOUIN|    80           0.00391       -0.31250       -0.31250        0.43750
 BRILLOUIN|    81           0.00391       -0.31250       -0.18750       -0.43750
 BRILLOUIN|    82           0.00391       -0.31250       -0.18750       -0.31250
 BRILLOUIN|    83           0.00391       -0.31250       -0.18750       -0.18750
 BRILLOUIN|    84           0.00391       -0.31250       -0.18750       -0.06250
 BRILLOUIN|    85           0.00391       -0.31250       -0.18750        0.06250
 BRILLOUIN|    86           0.00391       -0.31250       -0.18750        0.18750
 BRILLOUIN|    87           0.00391       -0.31250       -0.18750        0.31250
 BRILLOUIN|    88           0.00391       -0.31250       -0.18750        0.43750
 BRILLOUIN|    89           0.00391       -0.31250       -0.06250       -0.43750
 BRILLOUIN|    90           0.00391       -0.31250       -0.06250       -0.31250
 BRILLOUIN|    91           0.00391       -0.31250       -0.06250       -0.18750
 BRILLOUIN|    92           0.00391       -0.31250       -0.06250       -0.06250
 BRILLOUIN|    93           0.00391       -0.31250       -0.06250        0.06250
 BRILLOUIN|    94           0.00391       -0.31250       -0.06250        0.18750
 BRILLOUIN|    95           0.00391       -0.31250       -0.06250        0.31250
 BRILLOUIN|    96           0.00391       -0.31250       -0.06250        0.43750
 BRILLOUIN|    97           0.00391       -0.31250        0.06250       -0.43750
 BRILLOUIN|    98           0.00391       -0.31250        0.06250       -0.31250
 BRILLOUIN|    99           0.00391       -0.31250        0.06250       -0.18750
 BRILLOUIN|   100           0.00391       -0.31250        0.06250       -0.06250
 BRILLOUIN|   101           0.00391       -0.31250        0.06250        0.06250
 BRILLOUIN|   102           0.00391       -0.31250        0.06250        0.18750
 BRILLOUIN|   103           0.00391       -0.31250        0.06250        0.31250
 BRILLOUIN|   104           0.00391       -0.31250        0.06250        0.43750
 BRILLOUIN|   105           0.00391       -0.31250        0.18750       -0.43750
 BRILLOUIN|   106           0.00391       -0.31250        0.18750       -0.31250
 BRILLOUIN|   107           0.00391       -0.31250        0.18750       -0.18750
 BRILLOUIN|   108           0.00391       -0.31250        0.18750       -0.06250
 BRILLOUIN|   109           0.00391       -0.31250        0.18750        0.06250
 BRILLOUIN|   110           0.00391       -0.31250        0.18750        0.18750
 BRILLOUIN|   111           0.00391       -0.31250        0.18750        0.31250
 BRILLOUIN|   112           0.00391       -0.31250        0.18750        0.43750
 BRILLOUIN|   113           0.00391       -0.31250        0.31250       -0.43750
 BRILLOUIN|   114           0.00391       -0.31250        0.31250       -0.31250
 BRILLOUIN|   115           0.00391       -0.31250        0.31250       -0.18750
 BRILLOUIN|   116           0.00391       -0.31250        0.31250       -0.06250
 BRILLOUIN|   117           0.00391       -0.31250        0.31250        0.06250
 BRILLOUIN|   118           0.00391       -0.31250        0.31250        0.18750
 BRILLOUIN|   119           0.00391       -0.31250        0.31250        0.31250
 BRILLOUIN|   120           0.00391       -0.31250        0.31250        0.43750
 BRILLOUIN|   121           0.00391       -0.31250        0.43750       -0.43750
 BRILLOUIN|   122           0.00391       -0.31250        0.43750       -0.31250
 BRILLOUIN|   123           0.00391       -0.31250        0.43750       -0.18750
 BRILLOUIN|   124           0.00391       -0.31250        0.43750       -0.06250
 BRILLOUIN|   125           0.00391       -0.31250        0.43750        0.06250
 BRILLOUIN|   126           0.00391       -0.31250        0.43750        0.18750
 BRILLOUIN|   127           0.00391       -0.31250        0.43750        0.31250
 BRILLOUIN|   128           0.00391       -0.31250        0.43750        0.43750
 BRILLOUIN|   129           0.00391       -0.18750       -0.43750       -0.43750
 BRILLOUIN|   130           0.00391       -0.18750       -0.43750       -0.31250
 BRILLOUIN|   131           0.00391       -0.18750       -0.43750       -0.18750
 BRILLOUIN|   132           0.00391       -0.18750       -0.43750       -0.06250
 BRILLOUIN|   133           0.00391       -0.18750       -0.43750        0.06250
 BRILLOUIN|   134           0.00391       -0.18750       -0.43750        0.18750
 BRILLOUIN|   135           0.00391       -0.18750       -0.43750        0.31250
 BRILLOUIN|   136           0.00391       -0.18750       -0.43750        0.43750
 BRILLOUIN|   137           0.00391       -0.18750       -0.31250       -0.43750
 BRILLOUIN|   138           0.00391       -0.18750       -0.31250       -0.31250
 BRILLOUIN|   139           0.00391       -0.18750       -0.31250       -0.18750
 BRILLOUIN|   140           0.00391       -0.18750       -0.31250       -0.06250
 BRILLOUIN|   141           0.00391       -0.18750       -0.31250        0.06250
 BRILLOUIN|   142           0.00391       -0.18750       -0.31250        0.18750
 BRILLOUIN|   143           0.00391       -0.18750       -0.31250        0.31250
 BRILLOUIN|   144           0.00391       -0.18750       -0.31250        0.43750
 BRILLOUIN|   145           0.00391       -0.18750       -0.18750       -0.43750
 BRILLOUIN|   146           0.00391       -0.18750       -0.18750       -0.31250
 BRILLOUIN|   147           0.00391       -0.18750       -0.18750       -0.18750
 BRILLOUIN|   148           0.00391       -0.18750       -0.18750       -0.06250
 BRILLOUIN|   149           0.00391       -0.18750       -0.18750        0.06250
 BRILLOUIN|   150           0.00391       -0.18750       -0.18750        0.18750
 BRILLOUIN|   151           0.00391       -0.18750       -0.18750        0.31250
 BRILLOUIN|   152           0.00391       -0.18750       -0.18750        0.43750
 BRILLOUIN|   153           0.00391       -0.18750       -0.06250       -0.43750
 BRILLOUIN|   154           0.00391       -0.18750       -0.06250       -0.31250
 BRILLOUIN|   155           0.00391       -0.18750       -0.06250       -0.18750
 BRILLOUIN|   156           0.00391       -0.18750       -0.06250       -0.06250
 BRILLOUIN|   157           0.00391       -0.18750       -0.06250        0.06250
 BRILLOUIN|   158           0.00391       -0.18750       -0.06250        0.18750
 BRILLOUIN|   159           0.00391       -0.18750       -0.06250        0.31250
 BRILLOUIN|   160           0.00391       -0.18750       -0.06250        0.43750
 BRILLOUIN|   161           0.00391       -0.18750        0.06250       -0.43750
 BRILLOUIN|   162           0.00391       -0.18750        0.06250       -0.31250
 BRILLOUIN|   163           0.00391       -0.18750        0.06250       -0.18750
 BRILLOUIN|   164           0.00391       -0.18750        0.06250       -0.06250
 BRILLOUIN|   165           0.00391       -0.18750        0.06250        0.06250
 BRILLOUIN|   166           0.00391       -0.18750        0.06250        0.18750
 BRILLOUIN|   167           0.00391       -0.18750        0.06250        0.31250
 BRILLOUIN|   168           0.00391       -0.18750        0.06250        0.43750
 BRILLOUIN|   169           0.00391       -0.18750        0.18750       -0.43750
 BRILLOUIN|   170           0.00391       -0.18750        0.18750       -0.31250
 BRILLOUIN|   171           0.00391       -0.18750        0.18750       -0.18750
 BRILLOUIN|   172           0.00391       -0.18750        0.18750       -0.06250
 BRILLOUIN|   173           0.00391       -0.18750        0.18750        0.06250
 BRILLOUIN|   174           0.00391       -0.18750        0.18750        0.18750
 BRILLOUIN|   175           0.00391       -0.18750        0.18750        0.31250
 BRILLOUIN|   176           0.00391       -0.18750        0.18750        0.43750
 BRILLOUIN|   177           0.00391       -0.18750        0.31250       -0.43750
 BRILLOUIN|   178           0.00391       -0.18750        0.31250       -0.31250
 BRILLOUIN|   179           0.00391       -0.18750        0.31250       -0.18750
 BRILLOUIN|   180           0.00391       -0.18750        0.31250       -0.06250
 BRILLOUIN|   181           0.00391       -0.18750        0.31250        0.06250
 BRILLOUIN|   182           0.00391       -0.18750        0.31250        0.18750
 BRILLOUIN|   183           0.00391       -0.18750        0.31250        0.31250
 BRILLOUIN|   184           0.00391       -0.18750        0.31250        0.43750
 BRILLOUIN|   185           0.00391       -0.18750        0.43750       -0.43750
 BRILLOUIN|   186           0.00391       -0.18750        0.43750       -0.31250
 BRILLOUIN|   187           0.00391       -0.18750        0.43750       -0.18750
 BRILLOUIN|   188           0.00391       -0.18750        0.43750       -0.06250
 BRILLOUIN|   189           0.00391       -0.18750        0.43750        0.06250
 BRILLOUIN|   190           0.00391       -0.18750        0.43750        0.18750
 BRILLOUIN|   191           0.00391       -0.18750        0.43750        0.31250
 BRILLOUIN|   192           0.00391       -0.18750        0.43750        0.43750
 BRILLOUIN|   193           0.00391       -0.06250       -0.43750       -0.43750
 BRILLOUIN|   194           0.00391       -0.06250       -0.43750       -0.31250
 BRILLOUIN|   195           0.00391       -0.06250       -0.43750       -0.18750
 BRILLOUIN|   196           0.00391       -0.06250       -0.43750       -0.06250
 BRILLOUIN|   197           0.00391       -0.06250       -0.43750        0.06250
 BRILLOUIN|   198           0.00391       -0.06250       -0.43750        0.18750
 BRILLOUIN|   199           0.00391       -0.06250       -0.43750        0.31250
 BRILLOUIN|   200           0.00391       -0.06250       -0.43750        0.43750
 BRILLOUIN|   201           0.00391       -0.06250       -0.31250       -0.43750
 BRILLOUIN|   202           0.00391       -0.06250       -0.31250       -0.31250
 BRILLOUIN|   203           0.00391       -0.06250       -0.31250       -0.18750
 BRILLOUIN|   204           0.00391       -0.06250       -0.31250       -0.06250
 BRILLOUIN|   205           0.00391       -0.06250       -0.31250        0.06250
 BRILLOUIN|   206           0.00391       -0.06250       -0.31250        0.18750
 BRILLOUIN|   207           0.00391       -0.06250       -0.31250        0.31250
 BRILLOUIN|   208           0.00391       -0.06250       -0.31250        0.43750
 BRILLOUIN|   209           0.00391       -0.06250       -0.18750       -0.43750
 BRILLOUIN|   210           0.00391       -0.06250       -0.18750       -0.31250
 BRILLOUIN|   211           0.00391       -0.06250       -0.18750       -0.18750
 BRILLOUIN|   212           0.00391       -0.06250       -0.18750       -0.06250
 BRILLOUIN|   213           0.00391       -0.06250       -0.18750        0.06250
 BRILLOUIN|   214           0.00391       -0.06250       -0.18750        0.18750
 BRILLOUIN|   215           0.00391       -0.06250       -0.18750        0.31250
 BRILLOUIN|   216           0.00391       -0.06250       -0.18750        0.43750
 BRILLOUIN|   217           0.00391       -0.06250       -0.06250       -0.43750
 BRILLOUIN|   218           0.00391       -0.06250       -0.06250       -0.31250
 BRILLOUIN|   219           0.00391       -0.06250       -0.06250       -0.18750
 BRILLOUIN|   220           0.00391       -0.06250       -0.06250       -0.06250
 BRILLOUIN|   221           0.00391       -0.06250       -0.06250        0.06250
 BRILLOUIN|   222           0.00391       -0.06250       -0.06250        0.18750
 BRILLOUIN|   223           0.00391       -0.06250       -0.06250        0.31250
 BRILLOUIN|   224           0.00391       -0.06250       -0.06250        0.43750
 BRILLOUIN|   225           0.00391       -0.06250        0.06250       -0.43750
 BRILLOUIN|   226           0.00391       -0.06250        0.06250       -0.31250
 BRILLOUIN|   227           0.00391       -0.06250        0.06250       -0.18750
 BRILLOUIN|   228           0.00391       -0.06250        0.06250       -0.06250
 BRILLOUIN|   229           0.00391       -0.06250        0.06250        0.06250
 BRILLOUIN|   230           0.00391       -0.06250        0.06250        0.18750
 BRILLOUIN|   231           0.00391       -0.06250        0.06250        0.31250
 BRILLOUIN|   232           0.00391       -0.06250        0.06250        0.43750
 BRILLOUIN|   233           0.00391       -0.06250        0.18750       -0.43750
 BRILLOUIN|   234           0.00391       -0.06250        0.18750       -0.31250
 BRILLOUIN|   235           0.00391       -0.06250        0.18750       -0.18750
 BRILLOUIN|   236           0.00391       -0.06250        0.18750       -0.06250
 BRILLOUIN|   237           0.00391       -0.06250        0.18750        0.06250
 BRILLOUIN|   238           0.00391       -0.06250        0.18750        0.18750
 BRILLOUIN|   239           0.00391       -0.06250        0.18750        0.31250
 BRILLOUIN|   240           0.00391       -0.06250        0.18750        0.43750
 BRILLOUIN|   241           0.00391       -0.06250        0.31250       -0.43750
 BRILLOUIN|   242           0.00391       -0.06250        0.31250       -0.31250
 BRILLOUIN|   243           0.00391       -0.06250        0.31250       -0.18750
 BRILLOUIN|   244           0.00391       -0.06250        0.31250       -0.06250
 BRILLOUIN|   245           0.00391       -0.06250        0.31250        0.06250
 BRILLOUIN|   246           0.00391       -0.06250        0.31250        0.18750
 BRILLOUIN|   247           0.00391       -0.06250        0.31250        0.31250
 BRILLOUIN|   248           0.00391       -0.06250        0.31250        0.43750
 BRILLOUIN|   249           0.00391       -0.06250        0.43750       -0.43750
 BRILLOUIN|   250           0.00391       -0.06250        0.43750       -0.31250
 BRILLOUIN|   251           0.00391       -0.06250        0.43750       -0.18750
 BRILLOUIN|   252           0.00391       -0.06250        0.43750       -0.06250
 BRILLOUIN|   253           0.00391       -0.06250        0.43750        0.06250
 BRILLOUIN|   254           0.00391       -0.06250        0.43750        0.18750
 BRILLOUIN|   255           0.00391       -0.06250        0.43750        0.31250
 BRILLOUIN|   256           0.00391       -0.06250        0.43750        0.43750
 *******************************************************************************

 *******************************************************************************
 *******************************************************************************
 **                                                                           **
 **     #####                         ##              ##                      **
 **    ##   ##            ##          ##              ##                      **
 **   ##     ##                       ##            ######                    **
 **   ##     ##  ##   ##  ##   #####  ##  ##   ####   ##    #####    #####    **
 **   ##     ##  ##   ##  ##  ##      ## ##   ##      ##   ##   ##  ##   ##   **
 **   ##  ## ##  ##   ##  ##  ##      ####     ###    ##   ######   ######    **
 **    ##  ###   ##   ##  ##  ##      ## ##      ##   ##   ##       ##        **
 **     #######   #####   ##   #####  ##  ##  ####    ##    #####   ##        **
 **           ##                                                    ##        **
 **                                                                           **
 **                                                ... make the atoms dance   **
 **                                                                           **
 **            Copyright (C) by CP2K developers group (2000-2025)             **
 **                      J. Chem. Phys. 152, 194103 (2020)                    **
 **                                                                           **
 *******************************************************************************

 DFT| Spin restricted Kohn-Sham (RKS) calculation                            RKS
 DFT| Multiplicity                                                             1
 DFT| Number of spin states                                                    1
 DFT| Charge                                                                   0
 DFT| Self-interaction correction (SIC)                                       NO
 DFT| Cutoffs: density                                              1.000000E-10
 DFT|          gradient                                             1.000000E-10
 DFT|          tau                                                  1.000000E-10
 DFT|          cutoff_smoothing_range                               0.000000E+00
 DFT| XC density smoothing                                                  NONE
 DFT| XC derivatives                                                          PW

 FUNCTIONAL| PBE:
 FUNCTIONAL| J.P.Perdew, K.Burke, M.Ernzerhof, Phys. Rev. Letter, vol. 77, n 18,
 FUNCTIONAL|  pp. 3865-3868, (1996) {spin unpolarized}                          


 QS| Method:                                                                 GPW
 QS| Density plane wave grid type                        NON-SPHERICAL FULLSPACE
 QS| Number of grid levels:                                                    4
 QS| Density cutoff [a.u.]:                                                500.0
 QS| Multi grid cutoff [a.u.]: 1) grid level                               500.0
 QS|                           2) grid level                               166.7
 QS|                           3) grid level                                55.6
 QS|                           4) grid level                                18.5
 QS| Grid level progression factor:                                          3.0
 QS| Relative density cutoff [a.u.]:                                        50.0
 QS| Interaction thresholds: eps_pgf_orb:                                1.0E-16
 QS|                         eps_filter_matrix:                          0.0E+00
 QS|                         eps_core_charge:                            1.0E-18
 QS|                         eps_rho_gspace:                             1.0E-16
 QS|                         eps_rho_rspace:                             1.0E-16
 QS|                         eps_gvg_rspace:                             1.0E-08
 QS|                         eps_ppl:                                    1.0E-02
 QS|                         eps_ppnl:                                   1.0E-10


 ATOMIC KIND INFORMATION

  1. Atomic kind: Cl                                    Number of atoms:       8

     Orbital Basis Set                                aug-TZVP-MOLOPT-GTH-tier-1

       Number of orbital shell sets:                                           1
       Number of orbital shells:                                              13
       Number of primitive Cartesian functions:                                7
       Number of Cartesian basis functions:                                   54
       Number of spherical basis functions:                                   45
       Norm type:                                                              2

       Normalised Cartesian orbitals:

                        Set   Shell   Orbital            Exponent    Coefficient

                          1       1    2s                0.050000       0.000000
                                                         0.089685       0.006186
                                                         0.225105       0.113727
                                                         0.515012       0.281916
                                                         1.107869      -0.010655
                                                         2.685006      -0.537818
                                                         4.577034       0.143701

                          1       2    3s                0.050000       0.000000
                                                         0.089685       0.133641
                                                         0.225105       0.063244
                                                         0.515012      -0.560069
                                                         1.107869       0.268661
                                                         2.685006       0.885873
                                                         4.577034      -0.259937

                          1       3    4s                0.050000       0.000000
                                                         0.089685      -0.013849
                                                         0.225105       0.042001
                                                         0.515012      -0.403148
                                                         1.107869       0.293958
                                                         2.685006       2.155500
                                                         4.577034      -0.790158

                          1       4    5s                0.050000       0.080527
                                                         0.089685      -0.024484
                                                         0.225105       0.030955
                                                         0.515012       0.025613
                                                         1.107869       0.017652
                                                         2.685006       0.000000
                                                         4.577034       0.000000

                          1       5    3px               0.050000       0.000000
                                                         0.089685       0.009821
                                                         0.225105       0.087820
                                                         0.515012       0.275676
                                                         1.107869       0.290861
                                                         2.685006      -0.205459
                                                         4.577034      -0.191595
                          1       5    3py               0.050000       0.000000
                                                         0.089685       0.009821
                                                         0.225105       0.087820
                                                         0.515012       0.275676
                                                         1.107869       0.290861
                                                         2.685006      -0.205459
                                                         4.577034      -0.191595
                          1       5    3pz               0.050000       0.000000
                                                         0.089685       0.009821
                                                         0.225105       0.087820
                                                         0.515012       0.275676
                                                         1.107869       0.290861
                                                         2.685006      -0.205459
                                                         4.577034      -0.191595

                          1       6    4px               0.050000       0.000000
                                                         0.089685       0.049771
                                                         0.225105       0.113565
                                                         0.515012      -0.174465
                                                         1.107869      -0.072575
                                                         2.685006       0.196798
                                                         4.577034       0.030591
                          1       6    4py               0.050000       0.000000
                                                         0.089685       0.049771
                                                         0.225105       0.113565
                                                         0.515012      -0.174465
                                                         1.107869      -0.072575
                                                         2.685006       0.196798
                                                         4.577034       0.030591
                          1       6    4pz               0.050000       0.000000
                                                         0.089685       0.049771
                                                         0.225105       0.113565
                                                         0.515012      -0.174465
                                                         1.107869      -0.072575
                                                         2.685006       0.196798
                                                         4.577034       0.030591

                          1       7    5px               0.050000       0.000000
                                                         0.089685      -0.102890
                                                         0.225105       0.610396
                                                         0.515012      -0.890381
                                                         1.107869      -0.715448
                                                         2.685006       1.540218
                                                         4.577034       0.428335
                          1       7    5py               0.050000       0.000000
                                                         0.089685      -0.102890
                                                         0.225105       0.610396
                                                         0.515012      -0.890381
                                                         1.107869      -0.715448
                                                         2.685006       1.540218
                                                         4.577034       0.428335
                          1       7    5pz               0.050000       0.000000
                                                         0.089685      -0.102890
                                                         0.225105       0.610396
                                                         0.515012      -0.890381
                                                         1.107869      -0.715448
                                                         2.685006       1.540218
                                                         4.577034       0.428335

                          1       8    6px               0.050000       0.017658
                                                         0.089685       0.018088
                                                         0.225105       0.073280
                                                         0.515012      -0.009143
                                                         1.107869       0.016199
                                                         2.685006       0.000000
                                                         4.577034       0.000000
                          1       8    6py               0.050000       0.017658
                                                         0.089685       0.018088
                                                         0.225105       0.073280
                                                         0.515012      -0.009143
                                                         1.107869       0.016199
                                                         2.685006       0.000000
                                                         4.577034       0.000000
                          1       8    6pz               0.050000       0.017658
                                                         0.089685       0.018088
                                                         0.225105       0.073280
                                                         0.515012      -0.009143
                                                         1.107869       0.016199
                                                         2.685006       0.000000
                                                         4.577034       0.000000

                          1       9    4dx2              0.050000       0.000000
                                                         0.089685      -0.000032
                                                         0.225105       0.031561
                                                         0.515012       0.264404
                                                         1.107869       0.565369
                                                         2.685006       0.987508
                                                         4.577034       0.184016
                          1       9    4dxy              0.050000       0.000000
                                                         0.089685      -0.000055
                                                         0.225105       0.054666
                                                         0.515012       0.457960
                                                         1.107869       0.979248
                                                         2.685006       1.710414
                                                         4.577034       0.318725
                          1       9    4dxz              0.050000       0.000000
                                                         0.089685      -0.000055
                                                         0.225105       0.054666
                                                         0.515012       0.457960
                                                         1.107869       0.979248
                                                         2.685006       1.710414
                                                         4.577034       0.318725
                          1       9    4dy2              0.050000       0.000000
                                                         0.089685      -0.000032
                                                         0.225105       0.031561
                                                         0.515012       0.264404
                                                         1.107869       0.565369
                                                         2.685006       0.987508
                                                         4.577034       0.184016
                          1       9    4dyz              0.050000       0.000000
                                                         0.089685      -0.000055
                                                         0.225105       0.054666
                                                         0.515012       0.457960
                                                         1.107869       0.979248
                                                         2.685006       1.710414
                                                         4.577034       0.318725
                          1       9    4dz2              0.050000       0.000000
                                                         0.089685      -0.000032
                                                         0.225105       0.031561
                                                         0.515012       0.264404
                                                         1.107869       0.565369
                                                         2.685006       0.987508
                                                         4.577034       0.184016

                          1      10    5dx2              0.050000       0.000000
                                                         0.089685      -0.025543
                                                         0.225105       0.156322
                                                         0.515012       0.148331
                                                         1.107869      -0.951796
                                                         2.685006       0.398575
                                                         4.577034      -1.068003
                          1      10    5dxy              0.050000       0.000000
                                                         0.089685      -0.044243
                                                         0.225105       0.270758
                                                         0.515012       0.256918
                                                         1.107869      -1.648559
                                                         2.685006       0.690353
                                                         4.577034      -1.849835
                          1      10    5dxz              0.050000       0.000000
                                                         0.089685      -0.044243
                                                         0.225105       0.270758
                                                         0.515012       0.256918
                                                         1.107869      -1.648559
                                                         2.685006       0.690353
                                                         4.577034      -1.849835
                          1      10    5dy2              0.050000       0.000000
                                                         0.089685      -0.025543
                                                         0.225105       0.156322
                                                         0.515012       0.148331
                                                         1.107869      -0.951796
                                                         2.685006       0.398575
                                                         4.577034      -1.068003
                          1      10    5dyz              0.050000       0.000000
                                                         0.089685      -0.044243
                                                         0.225105       0.270758
                                                         0.515012       0.256918
                                                         1.107869      -1.648559
                                                         2.685006       0.690353
                                                         4.577034      -1.849835
                          1      10    5dz2              0.050000       0.000000
                                                         0.089685      -0.025543
                                                         0.225105       0.156322
                                                         0.515012       0.148331
                                                         1.107869      -0.951796
                                                         2.685006       0.398575
                                                         4.577034      -1.068003

                          1      11    6dx2              0.050000      -0.002854
                                                         0.089685       0.004290
                                                         0.225105       0.036051
                                                         0.515012       0.267776
                                                         1.107869       0.550705
                                                         2.685006       0.000000
                                                         4.577034       0.000000
                          1      11    6dxy              0.050000      -0.004943
                                                         0.089685       0.007431
                                                         0.225105       0.062442
                                                         0.515012       0.463801
                                                         1.107869       0.953850
                                                         2.685006       0.000000
                                                         4.577034       0.000000
                          1      11    6dxz              0.050000      -0.004943
                                                         0.089685       0.007431
                                                         0.225105       0.062442
                                                         0.515012       0.463801
                                                         1.107869       0.953850
                                                         2.685006       0.000000
                                                         4.577034       0.000000
                          1      11    6dy2              0.050000      -0.002854
                                                         0.089685       0.004290
                                                         0.225105       0.036051
                                                         0.515012       0.267776
                                                         1.107869       0.550705
                                                         2.685006       0.000000
                                                         4.577034       0.000000
                          1      11    6dyz              0.050000      -0.004943
                                                         0.089685       0.007431
                                                         0.225105       0.062442
                                                         0.515012       0.463801
                                                         1.107869       0.953850
                                                         2.685006       0.000000
                                                         4.577034       0.000000
                          1      11    6dz2              0.050000      -0.002854
                                                         0.089685       0.004290
                                                         0.225105       0.036051
                                                         0.515012       0.267776
                                                         1.107869       0.550705
                                                         2.685006       0.000000
                                                         4.577034       0.000000

                          1      12    5fx3              0.050000       0.000000
                                                         0.089685      -0.000768
                                                         0.225105       0.014188
                                                         0.515012       0.190848
                                                         1.107869       0.588223
                                                         2.685006       0.267416
                                                         4.577034       0.471641
                          1      12    5fx2y             0.050000       0.000000
                                                         0.089685      -0.001717
                                                         0.225105       0.031725
                                                         0.515012       0.426750
                                                         1.107869       1.315307
                                                         2.685006       0.597961
                                                         4.577034       1.054621
                          1      12    5fx2z             0.050000       0.000000
                                                         0.089685      -0.001717
                                                         0.225105       0.031725
                                                         0.515012       0.426750
                                                         1.107869       1.315307
                                                         2.685006       0.597961
                                                         4.577034       1.054621
                          1      12    5fxy2             0.050000       0.000000
                                                         0.089685      -0.001717
                                                         0.225105       0.031725
                                                         0.515012       0.426750
                                                         1.107869       1.315307
                                                         2.685006       0.597961
                                                         4.577034       1.054621
                          1      12    5fxyz             0.050000       0.000000
                                                         0.089685      -0.002975
                                                         0.225105       0.054948
                                                         0.515012       0.739153
                                                         1.107869       2.278179
                                                         2.685006       1.035699
                                                         4.577034       1.826658
                          1      12    5fxz2             0.050000       0.000000
                                                         0.089685      -0.001717
                                                         0.225105       0.031725
                                                         0.515012       0.426750
                                                         1.107869       1.315307
                                                         2.685006       0.597961
                                                         4.577034       1.054621
                          1      12    5fy3              0.050000       0.000000
                                                         0.089685      -0.000768
                                                         0.225105       0.014188
                                                         0.515012       0.190848
                                                         1.107869       0.588223
                                                         2.685006       0.267416
                                                         4.577034       0.471641
                          1      12    5fy2z             0.050000       0.000000
                                                         0.089685      -0.001717
                                                         0.225105       0.031725
                                                         0.515012       0.426750
                                                         1.107869       1.315307
                                                         2.685006       0.597961
                                                         4.577034       1.054621
                          1      12    5fyz2             0.050000       0.000000
                                                         0.089685      -0.001717
                                                         0.225105       0.031725
                                                         0.515012       0.426750
                                                         1.107869       1.315307
                                                         2.685006       0.597961
                                                         4.577034       1.054621
                          1      12    5fz3              0.050000       0.000000
                                                         0.089685      -0.000768
                                                         0.225105       0.014188
                                                         0.515012       0.190848
                                                         1.107869       0.588223
                                                         2.685006       0.267416
                                                         4.577034       0.471641

                          1      13    6fx3              0.050000       0.002031
                                                         0.089685      -0.002256
                                                         0.225105       0.008129
                                                         0.515012       0.066070
                                                         1.107869       0.121991
                                                         2.685006       0.000000
                                                         4.577034       0.000000
                          1      13    6fx2y             0.050000       0.004541
                                                         0.089685      -0.005044
                                                         0.225105       0.018177
                                                         0.515012       0.147737
                                                         1.107869       0.272779
                                                         2.685006       0.000000
                                                         4.577034       0.000000
                          1      13    6fx2z             0.050000       0.004541
                                                         0.089685      -0.005044
                                                         0.225105       0.018177
                                                         0.515012       0.147737
                                                         1.107869       0.272779
                                                         2.685006       0.000000
                                                         4.577034       0.000000
                          1      13    6fxy2             0.050000       0.004541
                                                         0.089685      -0.005044
                                                         0.225105       0.018177
                                                         0.515012       0.147737
                                                         1.107869       0.272779
                                                         2.685006       0.000000
                                                         4.577034       0.000000
                          1      13    6fxyz             0.050000       0.007865
                                                         0.089685      -0.008736
                                                         0.225105       0.031483
                                                         0.515012       0.255888
                                                         1.107869       0.472468
                                                         2.685006       0.000000
                                                         4.577034       0.000000
                          1      13    6fxz2             0.050000       0.004541
                                                         0.089685      -0.005044
                                                         0.225105       0.018177
                                                         0.515012       0.147737
                                                         1.107869       0.272779
                                                         2.685006       0.000000
                                                         4.577034       0.000000
                          1      13    6fy3              0.050000       0.002031
                                                         0.089685      -0.002256
                                                         0.225105       0.008129
                                                         0.515012       0.066070
                                                         1.107869       0.121991
                                                         2.685006       0.000000
                                                         4.577034       0.000000
                          1      13    6fy2z             0.050000       0.004541
                                                         0.089685      -0.005044
                                                         0.225105       0.018177
                                                         0.515012       0.147737
                                                         1.107869       0.272779
                                                         2.685006       0.000000
                                                         4.577034       0.000000
                          1      13    6fyz2             0.050000       0.004541
                                                         0.089685      -0.005044
                                                         0.225105       0.018177
                                                         0.515012       0.147737
                                                         1.107869       0.272779
                                                         2.685006       0.000000
                                                         4.577034       0.000000
                          1      13    6fz3              0.050000       0.002031
                                                         0.089685      -0.002256
                                                         0.225105       0.008129
                                                         0.515012       0.066070
                                                         1.107869       0.121991
                                                         2.685006       0.000000
                                                         4.577034       0.000000

       Atomic covalent radius [Angstrom]:                                  0.990

       Atomic van der Waals radius [Angstrom]:                             1.750

     GTH Potential information for                                       GTH-PBE

       Description:                       Goedecker-Teter-Hutter pseudopotential
                                           Goedecker et al., PRB 54, 1703 (1996)
                                          Hartwigsen et al., PRB 58, 3641 (1998)
                                                      Krack, TCA 114, 145 (2005)

       Gaussian exponent of the core charge distribution:               2.974420
       Electronic configuration (s p d ...):                               2   5

       Parameters of the local part of the GTH pseudopotential:

                          rloc        C1          C2          C3          C4
                        0.410000   -6.392082

       Parameters of the non-local part of the GTH (SOC) pseudopotential:

                   l      r(l)      h(i,j,l)
                                    k(i,j,l)
                   0    0.339539   15.218990   -4.934523
                                   -4.934523    6.370442
                   1    0.378474    4.338775    0.000000
                                    0.000000    0.000000
                                    0.045289   -0.032578
                                   -0.032578    0.038547


 MOLECULE KIND INFORMATION


 All atoms are their own molecule, skipping detailed information


 TOTAL NUMBERS AND MAXIMUM NUMBERS

  Total number of            - Atomic kinds:                                   1
                             - Atoms:                                          8
                             - Shell sets:                                     8
                             - Shells:                                       104
                             - Primitive Cartesian functions:                 56
                             - Cartesian basis functions:                    432
                             - Spherical basis functions:                    360

  Maximum angular momentum of- Orbital basis functions:                        3
                             - Local part of the GTH pseudopotential:          0
                             - Non-local part of the GTH pseudopotential:      3


 MODULE QUICKSTEP: ATOMIC COORDINATES IN ANGSTROM

   Atom Kind Element         X             Y             Z       Z(eff)     Mass
      1    1 Cl   17      0.000000      1.778126      8.111064   7.0000  35.4530
      2    1 Cl   17      0.000000      0.396579      3.597294   7.0000  35.4530
      3    1 Cl   17      0.000000      3.952831      5.430246   7.0000  35.4530
      4    1 Cl   17      0.000000      2.571284      0.916476   7.0000  35.4530
      5    1 Cl   17      3.889375      3.952831      8.111064   7.0000  35.4530
      6    1 Cl   17      3.889375      2.571284      3.597294   7.0000  35.4530
      7    1 Cl   17      3.889375      1.778126      5.430246   7.0000  35.4530
      8    1 Cl   17      3.889375      0.396579      0.916476   7.0000  35.4530



 SCF PARAMETERS         Density guess:                                    ATOMIC
                        --------------------------------------------------------
                        max_scf:                                             500
                        max_scf_history:                                       0
                        max_diis:                                              4
                        --------------------------------------------------------
                        eps_scf:                                        1.00E-09
                        eps_scf_history:                                0.00E+00
                        eps_diis:                                       1.00E-01
                        eps_eigval:                                     1.00E-05
                        --------------------------------------------------------
                        level_shift [a.u.]:                             0.000000
                        added MOs                                       332    0
                        --------------------------------------------------------
                        Mixing method:                            BROYDEN_MIXING
                                                charge density mixing in g-space
                        --------------------------------------------------------
                        No outer SCF

 PW_GRID| Information for grid number                                          1
 PW_GRID| Grid distributed over                                    16 processors
 PW_GRID| Real space group dimensions                                    16    1
 PW_GRID| the grid is blocked:                                                NO
 PW_GRID| Cutoff [a.u.]                                                    500.0
 PW_GRID| spherical cutoff:                                                   NO
 PW_GRID|   Bounds   1            -75      74                Points:         150
 PW_GRID|   Bounds   2            -45      44                Points:          90
 PW_GRID|   Bounds   3            -90      89                Points:         180
 PW_GRID| Volume element (a.u.^3)  0.8482E-03     Volume (a.u.^3)      2061.1338
 PW_GRID| Grid span                                                    FULLSPACE
 PW_GRID|   Distribution                         Average         Max         Min
 PW_GRID|   G-Vectors                           151875.0      151950      151800
 PW_GRID|   G-Rays                                1012.5        1013        1012
 PW_GRID|   Real Space Points                   151875.0      162000      145800

 PW_GRID| Information for grid number                                          2
 PW_GRID| Number of the reference grid                                         1
 PW_GRID| Grid distributed over                                    16 processors
 PW_GRID| Real space group dimensions                                    16    1
 PW_GRID| the grid is blocked:                                                NO
 PW_GRID| Cutoff [a.u.]                                                    166.7
 PW_GRID| spherical cutoff:                                                   NO
 PW_GRID|   Bounds   1            -45      44                Points:          90
 PW_GRID|   Bounds   2            -24      23                Points:          48
 PW_GRID|   Bounds   3            -50      49                Points:         100
 PW_GRID| Volume element (a.u.^3)  0.4771E-02     Volume (a.u.^3)      2061.1338
 PW_GRID| Grid span                                                    FULLSPACE
 PW_GRID|   Distribution                         Average         Max         Min
 PW_GRID|   G-Vectors                            27000.0       27360       26640
 PW_GRID|   G-Rays                                 300.0         304         296
 PW_GRID|   Real Space Points                    27000.0       28800       24000

 PW_GRID| Information for grid number                                          3
 PW_GRID| Number of the reference grid                                         1
 PW_GRID| Grid distributed over                                    16 processors
 PW_GRID| Real space group dimensions                                    16    1
 PW_GRID| the grid is blocked:                                                NO
 PW_GRID| Cutoff [a.u.]                                                     55.6
 PW_GRID| spherical cutoff:                                                   NO
 PW_GRID|   Bounds   1            -27      26                Points:          54
 PW_GRID|   Bounds   2            -13      13                Points:          27
 PW_GRID|   Bounds   3            -30      29                Points:          60
 PW_GRID| Volume element (a.u.^3)  0.2356E-01     Volume (a.u.^3)      2061.1338
 PW_GRID| Grid span                                                    FULLSPACE
 PW_GRID|   Distribution                         Average         Max         Min
 PW_GRID|   G-Vectors                             5467.5        5778        5238
 PW_GRID|   G-Rays                                 101.2         107          97
 PW_GRID|   Real Space Points                     5467.5        6480        4860

 PW_GRID| Information for grid number                                          4
 PW_GRID| Number of the reference grid                                         1
 PW_GRID| Grid distributed over                                    16 processors
 PW_GRID| Real space group dimensions                                    16    1
 PW_GRID| the grid is blocked:                                                NO
 PW_GRID| Cutoff [a.u.]                                                     18.5
 PW_GRID| spherical cutoff:                                                   NO
 PW_GRID|   Bounds   1            -15      14                Points:          30
 PW_GRID|   Bounds   2             -7       7                Points:          15
 PW_GRID|   Bounds   3            -18      17                Points:          36
 PW_GRID| Volume element (a.u.^3)  0.1272         Volume (a.u.^3)      2061.1338
 PW_GRID| Grid span                                                    FULLSPACE
 PW_GRID|   Distribution                         Average         Max         Min
 PW_GRID|   G-Vectors                             1012.5        1140         900
 PW_GRID|   G-Rays                                  33.8          38          30
 PW_GRID|   Real Space Points                     1012.5        1080         540

 POISSON| Solver                                                        PERIODIC
 POISSON| Periodicity                                                        XYZ

 RS_GRID| Information for grid number                                          1
 RS_GRID|   Bounds   1            -75      74                Points:         150
 RS_GRID|   Bounds   2            -45      44                Points:          90
 RS_GRID|   Bounds   3            -90      89                Points:         180
 RS_GRID| Real space fully replicated
 RS_GRID| Group size                                                           1

 RS_GRID| Information for grid number                                          2
 RS_GRID|   Bounds   1            -45      44                Points:          90
 RS_GRID|   Bounds   2            -24      23                Points:          48
 RS_GRID|   Bounds   3            -50      49                Points:         100
 RS_GRID| Real space fully replicated
 RS_GRID| Group size                                                           1

 RS_GRID| Information for grid number                                          3
 RS_GRID|   Bounds   1            -27      26                Points:          54
 RS_GRID|   Bounds   2            -13      13                Points:          27
 RS_GRID|   Bounds   3            -30      29                Points:          60
 RS_GRID| Real space fully replicated
 RS_GRID| Group size                                                           1

 RS_GRID| Information for grid number                                          4
 RS_GRID|   Bounds   1            -15      14                Points:          30
 RS_GRID|   Bounds   2             -7       7                Points:          15
[...]
 6     integrate ortho    CPU                                2796840      49.45%
 0     collocate general  CPU                                     16       0.00%
 0     integrate general  CPU                                      8       0.00%
 -------------------------------------------------------------------------------

 MEMORY| Estimated peak process memory [MiB]                                1111

 -------------------------------------------------------------------------------
 ----                             MULTIGRID INFO                            ----
 -------------------------------------------------------------------------------
 count for grid        1:         182204          cutoff [a.u.]          500.00
 count for grid        2:         204844          cutoff [a.u.]          166.67
 count for grid        3:         104520          cutoff [a.u.]           55.56
 count for grid        4:         145900          cutoff [a.u.]           18.52
 total gridlevel count  :         637468

 -------------------------------------------------------------------------------
 -                                                                             -
 -                         MESSAGE PASSING PERFORMANCE                         -
 -                                                                             -
 -------------------------------------------------------------------------------

 ROUTINE             CALLS      AVE VOLUME [Bytes]
 MP_Group                6
 MP_Bcast           418478                    888.
 MP_Allreduce        87676                    400.
 MP_Sync                 4
 MP_Alltoall           815                6581513.
 MP_SendRecv          2790                 406390.
 MP_ISendRecv         2715                 401688.
 MP_Wait            286031
 MP_comm_split           4
 MP_ISend           292252                  26060.
 MP_IRecv           487984                  12411.
 -------------------------------------------------------------------------------


 -------------------------------------------------------------------------------
 -                                                                             -
 -                           R E F E R E N C E S                               -
 -                                                                             -
 -------------------------------------------------------------------------------
 
 CP2K version 2025.1 (Development Version), the CP2K developers group (2025).
 CP2K is freely available from https://www.cp2k.org/ .
 
 T. D. Kuehne, M. Iannuzzi, M. Del Ben, V. V. Rybkin, P. Seewald, F. Stein, T. 
 Laino, R. Z. Khaliullin, O. Schuett, F. Schiffmann, D. Golze, J. Wilhelm, S. 
 Chulkov, M. H. Bani-Hashemian, V. Weber, U. Borstnik, M. Taillefumier, A. S. 
 Jakobovits, A. Lazzaro, H. Pabst, T. Mueller, R. Schade, M. Guidon, S. 
 Andermatt, N. Holmberg, G. K. Schenter, A. Hehn, A. Bussy, F. Belleflamme, G. 
 Tabacchi, A. Gloess, M. Lass, I. Bethune, C. J. Mundy, C. Plessl, M. Watkins, 
 J. VandeVondele, M. Krack, J. Hutter.
 J. Chem. Phys. 152, 194103 (2020).
 CP2K: An electronic structure and molecular dynamics software package - 
 Quickstep: Efficient and accurate electronic structure calculations.
 https://doi.org/10.1063/5.0007045

 O. Schuett, P. Messmer, J. Hutter, J. VandeVondele.
 Electronic Structure Calculations on Graphics Processing Units, 173-190 (2016).
 GPU-Accelerated Sparse Matrix-Matrix Multiplication for Linear Scaling Density 
 Functional Theory.
 https://doi.org/10.1002/9781118670712.ch8

 J. Hutter, M. Iannuzzi, F. Schiffmann, J. VandeVondele.
 WIREs Comput Mol Sci. 4, 15-25 (2014).
 CP2K: atomistic simulations of condensed matter systems.
 https://doi.org/10.1002/wcms.1159

 U. Borstnik, J. VandeVondele, V. Weber, J. Hutter.
 Parallel Comput. 40, 47-58 (2014).
 Sparse matrix multiplication: The distributed block-compressed sparse row 
 library.
 https://doi.org/10.1016/j.parco.2014.03.012

 J. VandeVondele, J. Hutter.
 J. Chem. Phys. 127, 114105 (2007).
 Gaussian basis sets for accurate calculations on molecular systems in gas and 
 condensed phases.
 https://doi.org/10.1063/1.2770708

 J. VandeVondele, M. Krack, F. Mohamed, M. Parrinello, T. Chassaing, J. Hutter.
 Comput. Phys. Commun. 167, 103-128 (2005).
 QUICKSTEP: Fast and accurate density functional calculations using a mixed 
 Gaussian and plane waves approach.
 https://doi.org/10.1016/j.cpc.2004.12.014

 M. Krack.
 Theor. Chem. Acc. 114, 145-152 (2005).
 Pseudopotentials for H to Kr optimized for gradient-corrected 
 exchange-correlation functionals.
 https://doi.org/10.1007/s00214-005-0655-y

 M. Frigo, S. G. Johnson.
 Proc. IEEE 93, 216-231 (2005).
 The design and implementation of FFTW3.
 https://doi.org/10.1109/JPROC.2004.840301

 C. Hartwigsen, S. Goedecker, J. Hutter.
 Phys. Rev. B 58, 3641-3662 (1998).
 Relativistic separable dual-space Gaussian pseudopotentials from H to Rn.
 https://doi.org/10.1103/PhysRevB.58.3641

 G. Lippert, J. Hutter, M. Parrinello.
 Mol. Phys. 92, 477-487 (1997).
 A hybrid Gaussian and plane wave density functional scheme.
 https://doi.org/10.1080/002689797170220

 S. Goedecker, M. Teter, J. Hutter.
 Phys. Rev. B 54, 1703-1710 (1996).
 Separable dual-space Gaussian pseudopotentials.
 https://doi.org/10.1103/PhysRevB.54.1703

 J. P. Perdew, K. Burke, M. Ernzerhof.
 Phys. Rev. Lett. 77, 3865-3868 (1996).
 Generalized gradient approximation made simple.
 https://doi.org/10.1103/PhysRevLett.77.3865


 -------------------------------------------------------------------------------
 -                                                                             -
 -                                T I M I N G                                  -
 -                                                                             -
 -------------------------------------------------------------------------------
 SUBROUTINE                       CALLS  ASD         SELF TIME        TOTAL TIME
                                MAXIMUM       AVERAGE  MAXIMUM  AVERAGE  MAXIMUM
 CP2K                                 1  1.0    0.012    0.015  533.374  533.374
 qs_energies                          1  2.0    0.011    0.130  532.994  533.090
 scf_env_do_scf                       1  3.0    0.000    0.000  526.077  526.078
 scf_env_do_scf_inner_loop           45  4.0    0.028    0.031  526.077  526.078
 do_general_diag_kp                  46  5.9    0.321    0.352  503.858  507.735
 qs_scf_new_mos_kp                   45  5.0    0.000    0.001  498.292  502.210
 mp_alltoall_i22                 166896  8.8   96.823  234.157   96.823  234.157
 rskp_transform                   23336  7.0  157.459  215.542  157.459  215.542
 dbcsr_desymmetrize_deep          95264  7.5    2.718    3.303   81.692  176.760
 kpoint_density_transform            45  7.0    0.125    0.140  143.816  143.991
 dbcsr_complete_redistribute      71632  8.3    5.513    7.247   60.447  101.938
 transform_dmat                   11520  8.0   73.223   99.798   73.223   99.798
 copy_fm_to_dbcsr                 23040  8.0    0.157    0.167   36.750   78.664
 cp_fm_start_copy_general         69712  7.3    5.462    9.121   57.295   57.486
 cp_cfm_geeig                       757  6.9    0.013    0.015   53.380   53.742
 mp_allgather_i                  139424  8.3   46.805   48.350   46.805   48.350
 copy_dbcsr_to_fm                 48592  6.9    0.619    0.649   38.049   40.478
 cp_cfm_heevd                       757  7.9    0.002    0.002   37.151   37.401
 cp_cfm_heevd_base                  757  8.9   37.149   37.399   37.149   37.399
 qs_ks_update_qs_env                 45  5.0    0.000    0.000   11.818   14.398
 rebuild_ks_matrix                   45  6.0    0.000    0.000   10.243   12.823
 qs_ks_build_kohn_sham_matrix        45  7.0    0.052    0.053   10.243   12.823
 mp_alltoall_d11v                500688  9.4   11.678   12.574   11.678   12.574
 cp_cfm_triangular_multiply        2271  7.9   11.443   11.655   11.443   11.655
 sum_up_and_integrate                45  8.0    0.001    0.001    8.437   11.012
 integrate_v_rspace                  45  9.0    0.140    0.208    8.434   11.009
 grid_integrate_task_list            45 10.0    7.241    9.759    7.241    9.759
 qs_rho_update_rho_low               46  5.0    0.000    0.000    9.537    9.555
 calculate_rho_elec                  46  6.0    0.094    0.117    9.536    9.555
 dbcsr_finalize                  177680  8.6    0.942    1.000    7.102    8.508
 kpoint_density_matrices             45  7.0    0.092    0.095    8.355    8.441
 parallel_gemm_fm                  2880  8.0    0.004    0.004    8.083    8.165
 parallel_gemm_fm_gemm             2880  9.0    0.004    0.004    8.079    8.161
 cp_fm_gemm                        2880 10.0    8.076    8.157    8.076    8.157
 grid_collocate_task_list            46  7.0    5.952    7.675    5.952    7.675
 cp_fm_finish_copy_general        26068  7.9    5.646    7.560    5.714    7.630
 hybrid_alltoall_any              95264  8.5    0.428    0.455    6.466    7.241
 density_rs2pw                       46  7.0    0.002    0.002    3.480    6.373
 transfer_rs2pw                     186  8.0    0.003    0.003    3.234    6.283
 transfer_rs2pw_500                  48  8.9    0.419    0.437    2.955    6.011
 mp_sendrecv_dv                    2790 10.0    2.728    5.783    2.728    5.783
 mp_cart_sub                      97186  8.9    5.519    5.540    5.519    5.540
 dbcsr_merge_all                  71632 10.3    1.903    2.189    4.128    5.435
 mp_alltoall_i11v                310160  9.0    4.502    5.294    4.502    5.294
 write_kpoints_restart               45  5.0    0.007    0.012    4.009    4.012
 mp_bcast_iv                     278872  8.3    3.538    3.963    3.538    3.963
 mp_cart_create                   48599  8.9    3.661    3.882    3.662    3.882
 copy_dbcsr_to_fm_bc              48592  7.9    1.096    1.899    1.677    2.466
 cp_fm_write_unformatted           1920  6.0    0.836    2.028    1.189    2.445
 cp_cfm_cholesky_decompose          757  7.9    2.267    2.301    2.267    2.301
 cp_cfm_triangular_invert           757  7.9    2.238    2.289    2.238    2.289
 mp_waitall_1                    286031  8.4    0.604    2.260    0.604    2.260
 fft_wrap_pw1pw2                    815 10.0    0.009    0.010    1.800    1.827
 copy_fm_to_dbcsr_bc              23040  9.0    0.475    0.687    1.422    1.819
 dbcsr_create_new                300927  8.2    1.393    1.451    1.730    1.815
 dbcsr_work_create               166896  8.8    1.063    1.133    1.684    1.806
 fft_wrap_pw1pw2_500                542 11.3    0.134    0.136    1.683    1.713
 tree_to_linear_d                 71632 11.3    1.353    1.671    1.353    1.671
 dbcsr_dot                        57601  8.0    0.730    0.915    1.576    1.628
 mp_send_dv                        1920  7.0    0.327    1.597    0.327    1.597
 evaluate_core_matrix_traces         45  6.0    0.000    0.000    1.575    1.575
 calculate_ptrace_kp                 90  7.0    0.044    0.046    1.575    1.575
 kpoint_set_mo_occupation            45  7.0    0.166    0.168    0.858    1.495
 fft3d_ps                           815 12.0    0.658    0.697    1.432    1.462
 dbcsr_work_destroy_all          166896  9.8    0.800    0.812    1.339    1.390
 dbcsr_iterator_start            539827  9.0    1.068    1.128    1.287    1.349
 dbcsr_data_new                 1794224  9.7    1.177    1.334    1.177    1.334
 mp_sum_dm3                          45  8.0    0.692    1.327    0.692    1.327
 self_consistency_check              45  5.0    0.042    0.044    1.138    1.304
 dbcsr_data_copy_aa2              71632 11.3    0.533    1.283    0.533    1.283
 dbcsr_copy                       81280  7.2    0.414    0.450    1.103    1.261
 qs_vxc_create                       45  8.0    0.001    0.001    1.254    1.259
 xc_vxc_pw_create                    45  9.0    0.053    0.057    1.254    1.258
 dbcsr_data_release             2524579 10.2    1.181    1.257    1.181    1.257
 gspace_mixing                       44  5.0    0.048    0.051    1.217    1.218
 cp_sm_mix                        28800  6.0    0.348    0.448    0.926    1.169
 mp_sum_d                         58383  8.9    0.750    1.121    0.750    1.121
 dbcsr_destroy                   243327  8.2    0.450    0.467    0.998    1.107
 potential_pw2rs                     45 10.0    0.004    0.004    1.054    1.075
 broyden_mixing                      44  6.0    0.977    0.998    1.014    1.021
 mp_max_d                         28802  7.0    0.510    0.905    0.510    0.905
 transfer_pw2rs                     181 11.0    0.001    0.002    0.884    0.885
 dbcsr_iterator_stop             539827  9.0    0.639    0.666    0.770    0.815
 xc_pw_derive                       270 11.0    0.001    0.001    0.795    0.814
 dbcsr_set                       179925  7.8    0.195    0.201    0.639    0.792
 mp_bcast_im                     139424  8.3    0.743    0.792    0.743    0.792
 cp_cfm_scale_and_add_fm           3028  6.9    0.740    0.769    0.740    0.769
 mp_alltoall_z22v                   815 14.0    0.649    0.715    0.649    0.715
 dbcsr_copy_into_existing         23680  9.9    0.446    0.569    0.588    0.710
 mp_isend_dv                      69712  8.3    0.475    0.709    0.475    0.709
 xc_rho_set_and_dset_create          45 10.0    0.025    0.027    0.669    0.690
 transfer_pw2rs_500                  46 11.9    0.390    0.409    0.676    0.689
 mp_comm_free                    145819  8.9    0.598    0.684    0.598    0.684
 dbcsr_reserve_blocks             27792 10.2    0.407    0.627    0.441    0.669
 qs_energies_init_hamiltonians        1  3.0    0.000    0.000    0.637    0.638
 quick_finalize                   95264  9.5    0.329    0.336    0.615    0.629
 dbcsr_zero                      179925  8.8    0.444    0.595    0.444    0.595
 xc_pw_divergence                    45 10.0    0.001    0.001    0.518    0.532
 dbcsr_reserve_all_blocks         23040 10.0    0.044    0.048    0.338    0.522
 build_core_hamiltonian_matrix        1  4.0    0.003    0.003    0.359    0.519
 cp_dbcsr_alloc_block_from_nbl     4752  5.2    0.187    0.260    0.335    0.454
 x_to_yz                            450 13.2    0.075    0.081    0.413    0.428
 mp_recv_dv                        9600  7.0    0.026    0.417    0.026    0.417
 yz_to_x                            365 12.8    0.041    0.048    0.352    0.396
 cp_cfm_to_fm                       757  6.9    0.366    0.382    0.366    0.382
 qs_env_update_s_mstruct              1  4.0    0.000    0.000    0.254    0.374
 init_scf_run                         1  3.0    0.000    0.000    0.314    0.365
 scf_env_initial_rho_setup            1  4.0    0.000    0.000    0.314    0.365
 calculate_rho_core                   1  5.0    0.002    0.002    0.190    0.342
 dbcsr_sort_indices              194688 10.9    0.283    0.322    0.283    0.322
 mp_sum_dv                          340  3.5    0.110    0.289    0.110    0.289
 cp_cfm_to_cfm_columns              757  7.9    0.269    0.284    0.269    0.284
 xc_functional_eval                  45 11.0    0.000    0.000    0.236    0.255
 pbe_lda_eval                        45 12.0    0.236    0.255    0.236    0.255
 mp_isendrecv_dv                   2715 13.0    0.081    0.248    0.081    0.248
 dbcsr_iterator_seek             539827 10.0    0.219    0.239    0.219    0.239
 transfer_rs2pw_170                  46  9.0    0.067    0.074    0.206    0.233
 dbcsr_make_index_exist          300927  9.2    0.214    0.233    0.214    0.233
 merge_index                      71632 11.3    0.171    0.193    0.171    0.193
 cp_fm_to_fm_matrix                1440  8.0    0.172    0.175    0.172    0.175
 transfer_pw2rs_170                  45 12.0    0.073    0.078    0.152    0.165
 mp_irecv_iv                     278848  8.3    0.010    0.152    0.010    0.152
 mixing_allocate                      1  3.0    0.004    0.004    0.107    0.152
 build_core_ppl                       1  5.0    0.080    0.146    0.080    0.146
 dbcsr_switch_data_area           95264 10.5    0.092    0.096    0.130    0.137
 mp_irecv_dv                      69712  8.3    0.065    0.128    0.065    0.128
 restraint_control                    1  2.0    0.000    0.000    0.095    0.127
 mp_sum_i                             4  2.8    0.095    0.127    0.095    0.127
 pw_scatter_p                       450 12.2    0.123    0.125    0.123    0.125
 cp_fm_cleanup_copy_general       48112  7.0    0.080    0.082    0.113    0.115
 pw_poisson_solve                    45  8.0    0.000    0.001    0.106    0.107
 cp_fm_create                       372  4.3    0.098    0.106    0.098    0.106
 calculate_first_density_matrix       1  5.0    0.000    0.001    0.053    0.104
 build_overlap_matrix_low             1  5.0    0.026    0.041    0.074    0.103
 mp_isend_iv                     148360  8.3    0.016    0.102    0.016    0.102
 calculate_atomic_block_dm            1  6.0    0.001    0.001    0.049    0.102
 build_kinetic_matrix_low             1  5.0    0.025    0.041    0.072    0.102
 parser_read_line                  5005  4.1    0.002    0.002    0.099    0.101
 parser_read_line_low                23  6.2    0.007    0.036    0.097    0.099
 broadcast_input_information         23  7.2    0.027    0.038    0.090    0.094
 fft_wrap_pw1pw2_170                 91 10.5    0.005    0.005    0.073    0.089
 dbcsr_get_data_size_used        166896  9.8    0.078    0.088    0.078    0.088
 build_core_ppnl                      1  5.0    0.064    0.083    0.064    0.083
 dbcsr_make_dbcsr_index          194688 10.9    0.075    0.081    0.075    0.081
 dbcsr_distribution_new           71634  8.6    0.073    0.080    0.073    0.080
 topology_control                     1  2.0    0.000    0.000    0.074    0.074
 pw_integral_ab_c1d_c1d_gs           45  9.0    0.067    0.069    0.071    0.072
 mp_irecv_im2                    139424  8.3    0.004    0.072    0.004    0.072
 scf_post_calculation_gpw             1  3.0    0.000    0.000    0.071    0.071
 write_available_results              1  4.0    0.000    0.000    0.071    0.071
 write_mo_free_results                1  5.0    0.002    0.002    0.071    0.071
 qs_init_subsys                       1  2.0    0.002    0.002    0.066    0.066
 qs_env_rebuild_rho                   1  5.0    0.000    0.000    0.051    0.066
 qs_rho_rebuild                       1  6.0    0.002    0.002    0.051    0.066
 qs_env_setup                         1  3.0    0.000    0.000    0.063    0.064
 kpoint_initialize_mos                2  2.5    0.000    0.001    0.061    0.063
 qs_env_rebuild_pw_env                2  3.5    0.000    0.000    0.063    0.063
 pw_env_rebuild                       1  5.0    0.000    0.001    0.063    0.063
 pw_gather_p                        365 11.8    0.059    0.060    0.059    0.060
 transfer_rs2pw_60                   46  9.0    0.013    0.013    0.055    0.060
 create_qs_kind_set                   1  2.0    0.000    0.000    0.056    0.057
 read_qs_kind                         1  3.0    0.025    0.029    0.056    0.057
 -------------------------------------------------------------------------------

 The number of warnings for this run is : 1
 
 -------------------------------------------------------------------------------
  **** **** ******  **  PROGRAM ENDED AT                 2025-08-05 22:23:41.179
 ***** ** ***  *** **   PROGRAM RAN ON                              i04r09c01s06
 **    ****   ******    PROGRAM RAN BY                                   di38fab
 ***** **    ** ** **   PROGRAM PROCESS ID                                467071
  **** **  *******  **  PROGRAM STOPPED IN /hppfs/scratch/04/di38fab/09_GTH/Delt
                                           a_Set/Cl/aug-TZVP-MOLOPT-GTH-tier-1/8
                                           x8x8
