 DBCSR| CPU Multiplication driver                                           BLAS (U)
 DBCSR| Multrec recursion limit                                              512 (U)
 DBCSR| Multiplication stack size                                           1000 (D)
 DBCSR| Maximum elements for images                                    UNLIMITED (U)
 DBCSR| Multiplicative factor virtual images                                   1 (U)
 DBCSR| Use multiplication densification                                       T (D)
 DBCSR| Multiplication size stacks                                             3 (U)
 DBCSR| Use memory pool for CPU allocation                                     F (U)
 DBCSR| Number of 3D layers                                               SINGLE (U)
 DBCSR| Use MPI memory allocation                                              F (U)
 DBCSR| Use RMA algorithm                                                      F (U)
 DBCSR| Use Communication thread                                               T (U)
 DBCSR| Communication thread load                                             45 (D)
 DBCSR| MPI: My process id                                                     0
 DBCSR| MPI: Number of processes                                               8
 DBCSR| OMP: Current number of threads                                        12
 DBCSR| OMP: Max number of threads                                            12
 DBCSR| Split modifier for TAS multiplication algorithm                  1.0E+00 (U)


  **** **** ******  **  PROGRAM STARTED AT               2025-08-20 16:55:43.494
 ***** ** ***  *** **   PROGRAM STARTED ON                          i04r08c06s08
 **    ****   ******    PROGRAM STARTED BY                               di38fab
 ***** **    ** ** **   PROGRAM PROCESS ID                                 54209
  **** **  *******  **  PROGRAM STARTED IN /hppfs/scratch/04/di38fab/09_GTH/Delt
                                           a_Set/H/SZV-MOLOPT-GTH/8x8x8

 CP2K| version string:                 CP2K version 2025.1 (Development Version)
 CP2K| source code revision number:                                  git:3130539
 CP2K| cp2kflags: omp libint fftw3 libxc parallel scalapack max_contr=4         
 CP2K| is freely available from                            https://www.cp2k.org/
 CP2K| Program compiled at                         Tue Jun  3 16:14:32 CEST 2025
 CP2K| Program compiled on                                               login01
 CP2K| Program compiled for                                        Supermuc-foss
 CP2K| Data directory path                  /hppfs/work/pn36zo/di38fab/cp2k/data
 CP2K| Input file name                                                    GW.inp

 GLOBAL| Force Environment number                                              1
 GLOBAL| Basis set file name            /hppfs/scratch/04/di38fab/09_GTH/BASIS_A
 GLOBAL| Potential file name            /hppfs/work/pn36zo/di38fab/cp2k/data/GTH
 GLOBAL| MM Potential file name                                     MM_POTENTIAL
 GLOBAL| Coordinate file name                                              H.cif
 GLOBAL| Method name                                                        CP2K
 GLOBAL| Project name                                                       WSe2
 GLOBAL| Run type                                                         ENERGY
 GLOBAL| FFT library                                                       FFTW3
 GLOBAL| Diagonalization library                                       ScaLAPACK
 GLOBAL| Cholesky decomposition library                                ScaLAPACK
 GLOBAL| DGEMM library                                                      BLAS
 GLOBAL| Orthonormality check for eigenvectors                          DISABLED
 GLOBAL| Matrix multiplication library                                 ScaLAPACK
 GLOBAL| All-to-all communication in single precision                          F
 GLOBAL| FFTs using library dependent lengths                                  F
 GLOBAL| Grid backend                                                       AUTO
 GLOBAL| Global print level                                               MEDIUM
 GLOBAL| MPI I/O enabled                                                       T
 GLOBAL| Total number of message passing processes                             8
 GLOBAL| Number of threads for this process                                   12
 GLOBAL| This output is from process                                           0
 GLOBAL| OpenMP stack size per thread (OMP_STACKSIZE)                        64M
 GLOBAL| CPU model name             Intel(R) Xeon(R) Platinum 8174 CPU @ 3.10GHz

 MEMORY| system memory details [Kb]
 MEMORY|                        rank 0           min           max       average
 MEMORY| MemTotal             98436664      98436640      98436664      98436652
 MEMORY| MemFree              84566656      84539392      84566656      84553024
 MEMORY| Buffers                     0             0             0             0
 MEMORY| Cached                2358504       2358504       2366176       2362340
 MEMORY| Slab                  1291332       1291076       1291332       1291204
 MEMORY| SReclaimable           290372        282040        290372        286206
 MEMORY| MemLikelyFree        87215532      87187608      87215532      87201570


 *** Fundamental physical constants (SI units) ***

 *** Literature: B. J. Mohr and B. N. Taylor,
 ***             CODATA recommended values of the fundamental physical
 ***             constants: 2006, Web Version 5.1
 ***             http://physics.nist.gov/constants

 Speed of light in vacuum [m/s]                             2.99792458000000E+08
 Magnetic constant or permeability of vacuum [N/A**2]       1.25663706143592E-06
 Electric constant or permittivity of vacuum [F/m]          8.85418781762039E-12
 Planck constant (h) [J*s]                                  6.62606896000000E-34
 Planck constant (h-bar) [J*s]                              1.05457162825177E-34
 Elementary charge [C]                                      1.60217648700000E-19
 Electron mass [kg]                                         9.10938215000000E-31
 Electron g factor [ ]                                     -2.00231930436220E+00
 Proton mass [kg]                                           1.67262163700000E-27
 Fine-structure constant                                    7.29735253760000E-03
 Rydberg constant [1/m]                                     1.09737315685270E+07
 Avogadro constant [1/mol]                                  6.02214179000000E+23
 Boltzmann constant [J/K]                                   1.38065040000000E-23
 Atomic mass unit [kg]                                      1.66053878200000E-27
 Bohr radius [m]                                            5.29177208590000E-11

 *** Conversion factors ***

 [u] -> [a.u.]                                              1.82288848426455E+03
 [Angstrom] -> [Bohr] = [a.u.]                              1.88972613288564E+00
 [a.u.] = [Bohr] -> [Angstrom]                              5.29177208590000E-01
 [a.u.] -> [s]                                              2.41888432650478E-17
 [a.u.] -> [fs]                                             2.41888432650478E-02
 [a.u.] -> [J]                                              4.35974393937059E-18
 [a.u.] -> [N]                                              8.23872205491840E-08
 [a.u.] -> [K]                                              3.15774647902944E+05
 [a.u.] -> [kJ/mol]                                         2.62549961709828E+03
 [a.u.] -> [kcal/mol]                                       6.27509468713739E+02
 [a.u.] -> [Pa]                                             2.94210107994716E+13
 [a.u.] -> [bar]                                            2.94210107994716E+08
 [a.u.] -> [atm]                                            2.90362800883016E+08
 [a.u.] -> [eV]                                             2.72113838565563E+01
 [a.u.] -> [Hz]                                             6.57968392072181E+15
 [a.u.] -> [1/cm] (wave numbers)                            2.19474631370540E+05
 [a.u./Bohr**2] -> [1/cm]                                   5.14048714338585E+03
 

 CELL_TOP| Volume [angstrom^3]:                                        69.587908
 CELL_TOP| Vector a [angstrom     4.008     0.000     0.000   |a| =     4.007590
 CELL_TOP| Vector b [angstrom    -2.004     3.471     0.000   |b| =     4.007590
 CELL_TOP| Vector c [angstrom     0.000     0.000     5.003   |c| =     5.003070
 CELL_TOP| Angle (b,c), alpha [degree]:                                90.000000
 CELL_TOP| Angle (a,c), beta  [degree]:                                90.000000
 CELL_TOP| Angle (a,b), gamma [degree]:                               120.000000
 CELL_TOP| Numerically orthorhombic:                                          NO
 CELL_TOP| Periodicity                                                       XYZ

 CELL_CIF| Volume [angstrom^3]:                                        69.587908
 CELL_CIF| Vector a [angstrom     4.008     0.000     0.000   |a| =     4.007590
 CELL_CIF| Vector b [angstrom    -2.004     3.471     0.000   |b| =     4.007590
 CELL_CIF| Vector c [angstrom     0.000     0.000     5.003   |c| =     5.003070
 CELL_CIF| Angle (b,c), alpha [degree]:                                90.000000
 CELL_CIF| Angle (a,c), beta  [degree]:                                90.000000
 CELL_CIF| Angle (a,b), gamma [degree]:                               120.000000
 CELL_CIF| Numerically orthorhombic:                                          NO
 CELL_CIF| Periodicity                                                       XYZ

 GENERATE|  Preliminary Number of Bonds generated:                             0
 GENERATE|  Achieved consistency in connectivity generation.

 CELL| Volume [angstrom^3]:                                            69.587908
 CELL| Vector a [angstrom]:       4.008     0.000     0.000   |a| =     4.007590
 CELL| Vector b [angstrom]:      -2.004     3.471     0.000   |b| =     4.007590
 CELL| Vector c [angstrom]:       0.000     0.000     5.003   |c| =     5.003070
 CELL| Angle (b,c), alpha [degree]:                                    90.000000
 CELL| Angle (a,c), beta  [degree]:                                    90.000000
 CELL| Angle (a,b), gamma [degree]:                                   120.000000
 CELL| Numerically orthorhombic:                                              NO
 CELL| Periodicity                                                           XYZ

 CELL_REF| Volume [angstrom^3]:                                        69.587908
 CELL_REF| Vector a [angstrom     4.008     0.000     0.000   |a| =     4.007590
 CELL_REF| Vector b [angstrom    -2.004     3.471     0.000   |b| =     4.007590
 CELL_REF| Vector c [angstrom     0.000     0.000     5.003   |c| =     5.003070
 CELL_REF| Angle (b,c), alpha [degree]:                                90.000000
 CELL_REF| Angle (a,c), beta  [degree]:                                90.000000
 CELL_REF| Angle (a,b), gamma [degree]:                               120.000000
 CELL_REF| Numerically orthorhombic:                                          NO
 CELL_REF| Periodicity                                                       XYZ

 *** WARNING in cryssym.F:180 :: Symmetry library SPGLIB not available ***


 *******************************************************************************
                                    Kpoints
 *******************************************************************************
 BRILLOUIN| K-point scheme                                        Monkhorst-Pack
 BRILLOUIN| K-Point grid                                             8    8    8
 BRILLOUIN| Accuracy in Symmetry determination                      0.100000E-05
 BRILLOUIN| K-Point point group symmetrization                               OFF
 BRILLOUIN| Wavefunction type                                            COMPLEX
 BRILLOUIN| List of Kpoints [2 Pi/Bohr]                                      256
 BRILLOUIN| Number           Weight            X              Y              Z
 BRILLOUIN|     1           0.00391       -0.43750       -0.43750       -0.43750
 BRILLOUIN|     2           0.00391       -0.43750       -0.43750       -0.31250
 BRILLOUIN|     3           0.00391       -0.43750       -0.43750       -0.18750
 BRILLOUIN|     4           0.00391       -0.43750       -0.43750       -0.06250
 BRILLOUIN|     5           0.00391       -0.43750       -0.43750        0.06250
 BRILLOUIN|     6           0.00391       -0.43750       -0.43750        0.18750
 BRILLOUIN|     7           0.00391       -0.43750       -0.43750        0.31250
 BRILLOUIN|     8           0.00391       -0.43750       -0.43750        0.43750
 BRILLOUIN|     9           0.00391       -0.43750       -0.31250       -0.43750
 BRILLOUIN|    10           0.00391       -0.43750       -0.31250       -0.31250
 BRILLOUIN|    11           0.00391       -0.43750       -0.31250       -0.18750
 BRILLOUIN|    12           0.00391       -0.43750       -0.31250       -0.06250
 BRILLOUIN|    13           0.00391       -0.43750       -0.31250        0.06250
 BRILLOUIN|    14           0.00391       -0.43750       -0.31250        0.18750
 BRILLOUIN|    15           0.00391       -0.43750       -0.31250        0.31250
 BRILLOUIN|    16           0.00391       -0.43750       -0.31250        0.43750
 BRILLOUIN|    17           0.00391       -0.43750       -0.18750       -0.43750
 BRILLOUIN|    18           0.00391       -0.43750       -0.18750       -0.31250
 BRILLOUIN|    19           0.00391       -0.43750       -0.18750       -0.18750
 BRILLOUIN|    20           0.00391       -0.43750       -0.18750       -0.06250
 BRILLOUIN|    21           0.00391       -0.43750       -0.18750        0.06250
 BRILLOUIN|    22           0.00391       -0.43750       -0.18750        0.18750
 BRILLOUIN|    23           0.00391       -0.43750       -0.18750        0.31250
 BRILLOUIN|    24           0.00391       -0.43750       -0.18750        0.43750
 BRILLOUIN|    25           0.00391       -0.43750       -0.06250       -0.43750
 BRILLOUIN|    26           0.00391       -0.43750       -0.06250       -0.31250
 BRILLOUIN|    27           0.00391       -0.43750       -0.06250       -0.18750
 BRILLOUIN|    28           0.00391       -0.43750       -0.06250       -0.06250
 BRILLOUIN|    29           0.00391       -0.43750       -0.06250        0.06250
 BRILLOUIN|    30           0.00391       -0.43750       -0.06250        0.18750
 BRILLOUIN|    31           0.00391       -0.43750       -0.06250        0.31250
 BRILLOUIN|    32           0.00391       -0.43750       -0.06250        0.43750
 BRILLOUIN|    33           0.00391       -0.43750        0.06250       -0.43750
 BRILLOUIN|    34           0.00391       -0.43750        0.06250       -0.31250
 BRILLOUIN|    35           0.00391       -0.43750        0.06250       -0.18750
 BRILLOUIN|    36           0.00391       -0.43750        0.06250       -0.06250
 BRILLOUIN|    37           0.00391       -0.43750        0.06250        0.06250
 BRILLOUIN|    38           0.00391       -0.43750        0.06250        0.18750
 BRILLOUIN|    39           0.00391       -0.43750        0.06250        0.31250
 BRILLOUIN|    40           0.00391       -0.43750        0.06250        0.43750
 BRILLOUIN|    41           0.00391       -0.43750        0.18750       -0.43750
 BRILLOUIN|    42           0.00391       -0.43750        0.18750       -0.31250
 BRILLOUIN|    43           0.00391       -0.43750        0.18750       -0.18750
 BRILLOUIN|    44           0.00391       -0.43750        0.18750       -0.06250
 BRILLOUIN|    45           0.00391       -0.43750        0.18750        0.06250
 BRILLOUIN|    46           0.00391       -0.43750        0.18750        0.18750
 BRILLOUIN|    47           0.00391       -0.43750        0.18750        0.31250
 BRILLOUIN|    48           0.00391       -0.43750        0.18750        0.43750
 BRILLOUIN|    49           0.00391       -0.43750        0.31250       -0.43750
 BRILLOUIN|    50           0.00391       -0.43750        0.31250       -0.31250
 BRILLOUIN|    51           0.00391       -0.43750        0.31250       -0.18750
 BRILLOUIN|    52           0.00391       -0.43750        0.31250       -0.06250
 BRILLOUIN|    53           0.00391       -0.43750        0.31250        0.06250
 BRILLOUIN|    54           0.00391       -0.43750        0.31250        0.18750
 BRILLOUIN|    55           0.00391       -0.43750        0.31250        0.31250
 BRILLOUIN|    56           0.00391       -0.43750        0.31250        0.43750
 BRILLOUIN|    57           0.00391       -0.43750        0.43750       -0.43750
 BRILLOUIN|    58           0.00391       -0.43750        0.43750       -0.31250
 BRILLOUIN|    59           0.00391       -0.43750        0.43750       -0.18750
 BRILLOUIN|    60           0.00391       -0.43750        0.43750       -0.06250
 BRILLOUIN|    61           0.00391       -0.43750        0.43750        0.06250
 BRILLOUIN|    62           0.00391       -0.43750        0.43750        0.18750
 BRILLOUIN|    63           0.00391       -0.43750        0.43750        0.31250
 BRILLOUIN|    64           0.00391       -0.43750        0.43750        0.43750
 BRILLOUIN|    65           0.00391       -0.31250       -0.43750       -0.43750
 BRILLOUIN|    66           0.00391       -0.31250       -0.43750       -0.31250
 BRILLOUIN|    67           0.00391       -0.31250       -0.43750       -0.18750
 BRILLOUIN|    68           0.00391       -0.31250       -0.43750       -0.06250
 BRILLOUIN|    69           0.00391       -0.31250       -0.43750        0.06250
 BRILLOUIN|    70           0.00391       -0.31250       -0.43750        0.18750
 BRILLOUIN|    71           0.00391       -0.31250       -0.43750        0.31250
 BRILLOUIN|    72           0.00391       -0.31250       -0.43750        0.43750
 BRILLOUIN|    73           0.00391       -0.31250       -0.31250       -0.43750
 BRILLOUIN|    74           0.00391       -0.31250       -0.31250       -0.31250
 BRILLOUIN|    75           0.00391       -0.31250       -0.31250       -0.18750
 BRILLOUIN|    76           0.00391       -0.31250       -0.31250       -0.06250
 BRILLOUIN|    77           0.00391       -0.31250       -0.31250        0.06250
 BRILLOUIN|    78           0.00391       -0.31250       -0.31250        0.18750
 BRILLOUIN|    79           0.00391       -0.31250       -0.31250        0.31250
 BRILLOUIN|    80           0.00391       -0.31250       -0.31250        0.43750
 BRILLOUIN|    81           0.00391       -0.31250       -0.18750       -0.43750
 BRILLOUIN|    82           0.00391       -0.31250       -0.18750       -0.31250
 BRILLOUIN|    83           0.00391       -0.31250       -0.18750       -0.18750
 BRILLOUIN|    84           0.00391       -0.31250       -0.18750       -0.06250
 BRILLOUIN|    85           0.00391       -0.31250       -0.18750        0.06250
 BRILLOUIN|    86           0.00391       -0.31250       -0.18750        0.18750
 BRILLOUIN|    87           0.00391       -0.31250       -0.18750        0.31250
 BRILLOUIN|    88           0.00391       -0.31250       -0.18750        0.43750
 BRILLOUIN|    89           0.00391       -0.31250       -0.06250       -0.43750
 BRILLOUIN|    90           0.00391       -0.31250       -0.06250       -0.31250
 BRILLOUIN|    91           0.00391       -0.31250       -0.06250       -0.18750
 BRILLOUIN|    92           0.00391       -0.31250       -0.06250       -0.06250
 BRILLOUIN|    93           0.00391       -0.31250       -0.06250        0.06250
 BRILLOUIN|    94           0.00391       -0.31250       -0.06250        0.18750
 BRILLOUIN|    95           0.00391       -0.31250       -0.06250        0.31250
 BRILLOUIN|    96           0.00391       -0.31250       -0.06250        0.43750
 BRILLOUIN|    97           0.00391       -0.31250        0.06250       -0.43750
 BRILLOUIN|    98           0.00391       -0.31250        0.06250       -0.31250
 BRILLOUIN|    99           0.00391       -0.31250        0.06250       -0.18750
 BRILLOUIN|   100           0.00391       -0.31250        0.06250       -0.06250
 BRILLOUIN|   101           0.00391       -0.31250        0.06250        0.06250
 BRILLOUIN|   102           0.00391       -0.31250        0.06250        0.18750
 BRILLOUIN|   103           0.00391       -0.31250        0.06250        0.31250
 BRILLOUIN|   104           0.00391       -0.31250        0.06250        0.43750
 BRILLOUIN|   105           0.00391       -0.31250        0.18750       -0.43750
 BRILLOUIN|   106           0.00391       -0.31250        0.18750       -0.31250
 BRILLOUIN|   107           0.00391       -0.31250        0.18750       -0.18750
 BRILLOUIN|   108           0.00391       -0.31250        0.18750       -0.06250
 BRILLOUIN|   109           0.00391       -0.31250        0.18750        0.06250
 BRILLOUIN|   110           0.00391       -0.31250        0.18750        0.18750
 BRILLOUIN|   111           0.00391       -0.31250        0.18750        0.31250
 BRILLOUIN|   112           0.00391       -0.31250        0.18750        0.43750
 BRILLOUIN|   113           0.00391       -0.31250        0.31250       -0.43750
 BRILLOUIN|   114           0.00391       -0.31250        0.31250       -0.31250
 BRILLOUIN|   115           0.00391       -0.31250        0.31250       -0.18750
 BRILLOUIN|   116           0.00391       -0.31250        0.31250       -0.06250
 BRILLOUIN|   117           0.00391       -0.31250        0.31250        0.06250
 BRILLOUIN|   118           0.00391       -0.31250        0.31250        0.18750
 BRILLOUIN|   119           0.00391       -0.31250        0.31250        0.31250
 BRILLOUIN|   120           0.00391       -0.31250        0.31250        0.43750
 BRILLOUIN|   121           0.00391       -0.31250        0.43750       -0.43750
 BRILLOUIN|   122           0.00391       -0.31250        0.43750       -0.31250
 BRILLOUIN|   123           0.00391       -0.31250        0.43750       -0.18750
 BRILLOUIN|   124           0.00391       -0.31250        0.43750       -0.06250
 BRILLOUIN|   125           0.00391       -0.31250        0.43750        0.06250
 BRILLOUIN|   126           0.00391       -0.31250        0.43750        0.18750
 BRILLOUIN|   127           0.00391       -0.31250        0.43750        0.31250
 BRILLOUIN|   128           0.00391       -0.31250        0.43750        0.43750
 BRILLOUIN|   129           0.00391       -0.18750       -0.43750       -0.43750
 BRILLOUIN|   130           0.00391       -0.18750       -0.43750       -0.31250
 BRILLOUIN|   131           0.00391       -0.18750       -0.43750       -0.18750
 BRILLOUIN|   132           0.00391       -0.18750       -0.43750       -0.06250
 BRILLOUIN|   133           0.00391       -0.18750       -0.43750        0.06250
 BRILLOUIN|   134           0.00391       -0.18750       -0.43750        0.18750
 BRILLOUIN|   135           0.00391       -0.18750       -0.43750        0.31250
 BRILLOUIN|   136           0.00391       -0.18750       -0.43750        0.43750
 BRILLOUIN|   137           0.00391       -0.18750       -0.31250       -0.43750
 BRILLOUIN|   138           0.00391       -0.18750       -0.31250       -0.31250
 BRILLOUIN|   139           0.00391       -0.18750       -0.31250       -0.18750
 BRILLOUIN|   140           0.00391       -0.18750       -0.31250       -0.06250
 BRILLOUIN|   141           0.00391       -0.18750       -0.31250        0.06250
 BRILLOUIN|   142           0.00391       -0.18750       -0.31250        0.18750
 BRILLOUIN|   143           0.00391       -0.18750       -0.31250        0.31250
 BRILLOUIN|   144           0.00391       -0.18750       -0.31250        0.43750
 BRILLOUIN|   145           0.00391       -0.18750       -0.18750       -0.43750
 BRILLOUIN|   146           0.00391       -0.18750       -0.18750       -0.31250
 BRILLOUIN|   147           0.00391       -0.18750       -0.18750       -0.18750
 BRILLOUIN|   148           0.00391       -0.18750       -0.18750       -0.06250
 BRILLOUIN|   149           0.00391       -0.18750       -0.18750        0.06250
 BRILLOUIN|   150           0.00391       -0.18750       -0.18750        0.18750
 BRILLOUIN|   151           0.00391       -0.18750       -0.18750        0.31250
 BRILLOUIN|   152           0.00391       -0.18750       -0.18750        0.43750
 BRILLOUIN|   153           0.00391       -0.18750       -0.06250       -0.43750
 BRILLOUIN|   154           0.00391       -0.18750       -0.06250       -0.31250
 BRILLOUIN|   155           0.00391       -0.18750       -0.06250       -0.18750
 BRILLOUIN|   156           0.00391       -0.18750       -0.06250       -0.06250
 BRILLOUIN|   157           0.00391       -0.18750       -0.06250        0.06250
 BRILLOUIN|   158           0.00391       -0.18750       -0.06250        0.18750
 BRILLOUIN|   159           0.00391       -0.18750       -0.06250        0.31250
 BRILLOUIN|   160           0.00391       -0.18750       -0.06250        0.43750
 BRILLOUIN|   161           0.00391       -0.18750        0.06250       -0.43750
 BRILLOUIN|   162           0.00391       -0.18750        0.06250       -0.31250
 BRILLOUIN|   163           0.00391       -0.18750        0.06250       -0.18750
 BRILLOUIN|   164           0.00391       -0.18750        0.06250       -0.06250
 BRILLOUIN|   165           0.00391       -0.18750        0.06250        0.06250
 BRILLOUIN|   166           0.00391       -0.18750        0.06250        0.18750
 BRILLOUIN|   167           0.00391       -0.18750        0.06250        0.31250
 BRILLOUIN|   168           0.00391       -0.18750        0.06250        0.43750
 BRILLOUIN|   169           0.00391       -0.18750        0.18750       -0.43750
 BRILLOUIN|   170           0.00391       -0.18750        0.18750       -0.31250
 BRILLOUIN|   171           0.00391       -0.18750        0.18750       -0.18750
 BRILLOUIN|   172           0.00391       -0.18750        0.18750       -0.06250
 BRILLOUIN|   173           0.00391       -0.18750        0.18750        0.06250
 BRILLOUIN|   174           0.00391       -0.18750        0.18750        0.18750
 BRILLOUIN|   175           0.00391       -0.18750        0.18750        0.31250
 BRILLOUIN|   176           0.00391       -0.18750        0.18750        0.43750
 BRILLOUIN|   177           0.00391       -0.18750        0.31250       -0.43750
 BRILLOUIN|   178           0.00391       -0.18750        0.31250       -0.31250
 BRILLOUIN|   179           0.00391       -0.18750        0.31250       -0.18750
 BRILLOUIN|   180           0.00391       -0.18750        0.31250       -0.06250
 BRILLOUIN|   181           0.00391       -0.18750        0.31250        0.06250
 BRILLOUIN|   182           0.00391       -0.18750        0.31250        0.18750
 BRILLOUIN|   183           0.00391       -0.18750        0.31250        0.31250
 BRILLOUIN|   184           0.00391       -0.18750        0.31250        0.43750
 BRILLOUIN|   185           0.00391       -0.18750        0.43750       -0.43750
 BRILLOUIN|   186           0.00391       -0.18750        0.43750       -0.31250
 BRILLOUIN|   187           0.00391       -0.18750        0.43750       -0.18750
 BRILLOUIN|   188           0.00391       -0.18750        0.43750       -0.06250
 BRILLOUIN|   189           0.00391       -0.18750        0.43750        0.06250
 BRILLOUIN|   190           0.00391       -0.18750        0.43750        0.18750
 BRILLOUIN|   191           0.00391       -0.18750        0.43750        0.31250
 BRILLOUIN|   192           0.00391       -0.18750        0.43750        0.43750
 BRILLOUIN|   193           0.00391       -0.06250       -0.43750       -0.43750
 BRILLOUIN|   194           0.00391       -0.06250       -0.43750       -0.31250
 BRILLOUIN|   195           0.00391       -0.06250       -0.43750       -0.18750
 BRILLOUIN|   196           0.00391       -0.06250       -0.43750       -0.06250
 BRILLOUIN|   197           0.00391       -0.06250       -0.43750        0.06250
 BRILLOUIN|   198           0.00391       -0.06250       -0.43750        0.18750
 BRILLOUIN|   199           0.00391       -0.06250       -0.43750        0.31250
 BRILLOUIN|   200           0.00391       -0.06250       -0.43750        0.43750
 BRILLOUIN|   201           0.00391       -0.06250       -0.31250       -0.43750
 BRILLOUIN|   202           0.00391       -0.06250       -0.31250       -0.31250
 BRILLOUIN|   203           0.00391       -0.06250       -0.31250       -0.18750
 BRILLOUIN|   204           0.00391       -0.06250       -0.31250       -0.06250
 BRILLOUIN|   205           0.00391       -0.06250       -0.31250        0.06250
 BRILLOUIN|   206           0.00391       -0.06250       -0.31250        0.18750
 BRILLOUIN|   207           0.00391       -0.06250       -0.31250        0.31250
 BRILLOUIN|   208           0.00391       -0.06250       -0.31250        0.43750
 BRILLOUIN|   209           0.00391       -0.06250       -0.18750       -0.43750
 BRILLOUIN|   210           0.00391       -0.06250       -0.18750       -0.31250
 BRILLOUIN|   211           0.00391       -0.06250       -0.18750       -0.18750
 BRILLOUIN|   212           0.00391       -0.06250       -0.18750       -0.06250
 BRILLOUIN|   213           0.00391       -0.06250       -0.18750        0.06250
 BRILLOUIN|   214           0.00391       -0.06250       -0.18750        0.18750
 BRILLOUIN|   215           0.00391       -0.06250       -0.18750        0.31250
 BRILLOUIN|   216           0.00391       -0.06250       -0.18750        0.43750
 BRILLOUIN|   217           0.00391       -0.06250       -0.06250       -0.43750
 BRILLOUIN|   218           0.00391       -0.06250       -0.06250       -0.31250
 BRILLOUIN|   219           0.00391       -0.06250       -0.06250       -0.18750
 BRILLOUIN|   220           0.00391       -0.06250       -0.06250       -0.06250
 BRILLOUIN|   221           0.00391       -0.06250       -0.06250        0.06250
 BRILLOUIN|   222           0.00391       -0.06250       -0.06250        0.18750
 BRILLOUIN|   223           0.00391       -0.06250       -0.06250        0.31250
 BRILLOUIN|   224           0.00391       -0.06250       -0.06250        0.43750
 BRILLOUIN|   225           0.00391       -0.06250        0.06250       -0.43750
 BRILLOUIN|   226           0.00391       -0.06250        0.06250       -0.31250
 BRILLOUIN|   227           0.00391       -0.06250        0.06250       -0.18750
 BRILLOUIN|   228           0.00391       -0.06250        0.06250       -0.06250
 BRILLOUIN|   229           0.00391       -0.06250        0.06250        0.06250
 BRILLOUIN|   230           0.00391       -0.06250        0.06250        0.18750
 BRILLOUIN|   231           0.00391       -0.06250        0.06250        0.31250
 BRILLOUIN|   232           0.00391       -0.06250        0.06250        0.43750
 BRILLOUIN|   233           0.00391       -0.06250        0.18750       -0.43750
 BRILLOUIN|   234           0.00391       -0.06250        0.18750       -0.31250
 BRILLOUIN|   235           0.00391       -0.06250        0.18750       -0.18750
 BRILLOUIN|   236           0.00391       -0.06250        0.18750       -0.06250
 BRILLOUIN|   237           0.00391       -0.06250        0.18750        0.06250
 BRILLOUIN|   238           0.00391       -0.06250        0.18750        0.18750
 BRILLOUIN|   239           0.00391       -0.06250        0.18750        0.31250
 BRILLOUIN|   240           0.00391       -0.06250        0.18750        0.43750
 BRILLOUIN|   241           0.00391       -0.06250        0.31250       -0.43750
 BRILLOUIN|   242           0.00391       -0.06250        0.31250       -0.31250
 BRILLOUIN|   243           0.00391       -0.06250        0.31250       -0.18750
 BRILLOUIN|   244           0.00391       -0.06250        0.31250       -0.06250
 BRILLOUIN|   245           0.00391       -0.06250        0.31250        0.06250
 BRILLOUIN|   246           0.00391       -0.06250        0.31250        0.18750
 BRILLOUIN|   247           0.00391       -0.06250        0.31250        0.31250
 BRILLOUIN|   248           0.00391       -0.06250        0.31250        0.43750
 BRILLOUIN|   249           0.00391       -0.06250        0.43750       -0.43750
 BRILLOUIN|   250           0.00391       -0.06250        0.43750       -0.31250
 BRILLOUIN|   251           0.00391       -0.06250        0.43750       -0.18750
 BRILLOUIN|   252           0.00391       -0.06250        0.43750       -0.06250
 BRILLOUIN|   253           0.00391       -0.06250        0.43750        0.06250
 BRILLOUIN|   254           0.00391       -0.06250        0.43750        0.18750
 BRILLOUIN|   255           0.00391       -0.06250        0.43750        0.31250
 BRILLOUIN|   256           0.00391       -0.06250        0.43750        0.43750
 *******************************************************************************

 *******************************************************************************
 *******************************************************************************
 **                                                                           **
 **     #####                         ##              ##                      **
 **    ##   ##            ##          ##              ##                      **
 **   ##     ##                       ##            ######                    **
 **   ##     ##  ##   ##  ##   #####  ##  ##   ####   ##    #####    #####    **
 **   ##     ##  ##   ##  ##  ##      ## ##   ##      ##   ##   ##  ##   ##   **
 **   ##  ## ##  ##   ##  ##  ##      ####     ###    ##   ######   ######    **
 **    ##  ###   ##   ##  ##  ##      ## ##      ##   ##   ##       ##        **
 **     #######   #####   ##   #####  ##  ##  ####    ##    #####   ##        **
 **           ##                                                    ##        **
 **                                                                           **
 **                                                ... make the atoms dance   **
 **                                                                           **
 **            Copyright (C) by CP2K developers group (2000-2025)             **
 **                      J. Chem. Phys. 152, 194103 (2020)                    **
 **                                                                           **
 *******************************************************************************

 DFT| Spin restricted Kohn-Sham (RKS) calculation                            RKS
 DFT| Multiplicity                                                             1
 DFT| Number of spin states                                                    1
 DFT| Charge                                                                   0
 DFT| Self-interaction correction (SIC)                                       NO
 DFT| Cutoffs: density                                              1.000000E-10
 DFT|          gradient                                             1.000000E-10
 DFT|          tau                                                  1.000000E-10
 DFT|          cutoff_smoothing_range                               0.000000E+00
 DFT| XC density smoothing                                                  NONE
 DFT| XC derivatives                                                          PW

 FUNCTIONAL| PBE:
 FUNCTIONAL| J.P.Perdew, K.Burke, M.Ernzerhof, Phys. Rev. Letter, vol. 77, n 18,
 FUNCTIONAL|  pp. 3865-3868, (1996) {spin unpolarized}                          


 QS| Method:                                                                 GPW
 QS| Density plane wave grid type                        NON-SPHERICAL FULLSPACE
 QS| Number of grid levels:                                                    4
 QS| Density cutoff [a.u.]:                                                500.0
 QS| Multi grid cutoff [a.u.]: 1) grid level                               500.0
 QS|                           2) grid level                               166.7
 QS|                           3) grid level                                55.6
 QS|                           4) grid level                                18.5
 QS| Grid level progression factor:                                          3.0
 QS| Relative density cutoff [a.u.]:                                        50.0
 QS| Interaction thresholds: eps_pgf_orb:                                1.0E-16
 QS|                         eps_filter_matrix:                          0.0E+00
 QS|                         eps_core_charge:                            1.0E-18
 QS|                         eps_rho_gspace:                             1.0E-16
 QS|                         eps_rho_rspace:                             1.0E-16
 QS|                         eps_gvg_rspace:                             1.0E-08
 QS|                         eps_ppl:                                    1.0E-02
 QS|                         eps_ppnl:                                   1.0E-10


 ATOMIC KIND INFORMATION

  1. Atomic kind: H                                     Number of atoms:       4

     Orbital Basis Set                                         SZV-MOLOPT-GTH-q1

       Number of orbital shell sets:                                           1
       Number of orbital shells:                                               1
       Number of primitive Cartesian functions:                                7
       Number of Cartesian basis functions:                                    1
       Number of spherical basis functions:                                    1
       Norm type:                                                              2

       Normalised Cartesian orbitals:

                        Set   Shell   Orbital            Exponent    Coefficient

                          1       1    2s               11.478000       0.129129
                                                         3.700759       0.177012
                                                         1.446884       0.141285
                                                         0.716815       0.245670
                                                         0.247919       0.094768
                                                         0.066918       0.004062
                                                         0.021708      -0.000053

       Atomic covalent radius [Angstrom]:                                  0.320

       Atomic van der Waals radius [Angstrom]:                             1.090

     GTH Potential information for                                    GTH-PBE-q1

       Description:                       Goedecker-Teter-Hutter pseudopotential
                                           Goedecker et al., PRB 54, 1703 (1996)
                                          Hartwigsen et al., PRB 58, 3641 (1998)
                                                      Krack, TCA 114, 145 (2005)

       Gaussian exponent of the core charge distribution:              12.500000
       Electronic configuration (s p d ...):                                   1

       Parameters of the local part of the GTH pseudopotential:

                          rloc        C1          C2          C3          C4
                        0.200000   -4.178900    0.724463


 MOLECULE KIND INFORMATION


 All atoms are their own molecule, skipping detailed information


 TOTAL NUMBERS AND MAXIMUM NUMBERS

  Total number of            - Atomic kinds:                                   1
                             - Atoms:                                          4
                             - Shell sets:                                     4
                             - Shells:                                         4
                             - Primitive Cartesian functions:                 28
                             - Cartesian basis functions:                      4
                             - Spherical basis functions:                      4

  Maximum angular momentum of- Orbital basis functions:                        0
                             - Local part of the GTH pseudopotential:          2


 MODULE QUICKSTEP: ATOMIC COORDINATES IN ANGSTROM

   Atom Kind Element         X             Y             Z       Z(eff)     Mass
      1    1 H     1     -0.000020      2.313795      0.875437   1.0000   1.0079
      2    1 H     1      2.003815      1.156880      4.127633   1.0000   1.0079
      3    1 H     1      2.003815      1.156880      3.376972   1.0000   1.0079
      4    1 H     1     -0.000020      2.313795      1.626098   1.0000   1.0079



 SCF PARAMETERS         Density guess:                                   RESTART
                        --------------------------------------------------------
                        max_scf:                                             500
                        max_scf_history:                                       0
                        max_diis:                                              4
                        --------------------------------------------------------
                        eps_scf:                                        1.00E-09
                        eps_scf_history:                                0.00E+00
                        eps_diis:                                       1.00E-01
                        eps_eigval:                                     1.00E-05
                        --------------------------------------------------------
                        level_shift [a.u.]:                             0.000000
                        added MOs                                         2    0
                        --------------------------------------------------------
                        Mixing method:                            BROYDEN_MIXING
                                                charge density mixing in g-space
                        --------------------------------------------------------
                        No outer SCF

 PW_GRID| Information for grid number                                          1
 PW_GRID| Grid distributed over                                     8 processors
 PW_GRID| Real space group dimensions                                     8    1
 PW_GRID| the grid is blocked:                                                NO
 PW_GRID| Cutoff [a.u.]                                                    500.0
 PW_GRID| spherical cutoff:                                                   NO
 PW_GRID|   Bounds   1            -40      39                Points:          80
 PW_GRID|   Bounds   2            -40      39                Points:          80
 PW_GRID|   Bounds   3            -48      47                Points:          96
 PW_GRID| Volume element (a.u.^3)  0.7643E-03     Volume (a.u.^3)       469.6025
 PW_GRID| Grid span                                                    FULLSPACE
 PW_GRID|   Distribution                         Average         Max         Min
 PW_GRID|   G-Vectors                            76800.0       76800       76800
 PW_GRID|   G-Rays                                 960.0         960         960
 PW_GRID|   Real Space Points                    76800.0       76800       76800

 PW_GRID| Information for grid number                                          2
 PW_GRID| Number of the reference grid                                         1
 PW_GRID| Grid distributed over                                     8 processors
 PW_GRID| Real space group dimensions                                     8    1
 PW_GRID| the grid is blocked:                                                NO
 PW_GRID| Cutoff [a.u.]                                                    166.7
 PW_GRID| spherical cutoff:                                                   NO
 PW_GRID|   Bounds   1            -22      22                Points:          45
 PW_GRID|   Bounds   2            -22      22                Points:          45
 PW_GRID|   Bounds   3            -30      29                Points:          60
 PW_GRID| Volume element (a.u.^3)  0.3865E-02     Volume (a.u.^3)       469.6025
 PW_GRID| Grid span                                                    FULLSPACE
 PW_GRID|   Distribution                         Average         Max         Min
 PW_GRID|   G-Vectors                            15187.5       15300       15075
 PW_GRID|   G-Rays                                 337.5         340         335
 PW_GRID|   Real Space Points                    15187.5       16200       13500

 PW_GRID| Information for grid number                                          3
 PW_GRID| Number of the reference grid                                         1
 PW_GRID| Grid distributed over                                     8 processors
 PW_GRID| Real space group dimensions                                     8    1
 PW_GRID| the grid is blocked:                                                NO
 PW_GRID| Cutoff [a.u.]                                                     55.6
 PW_GRID| spherical cutoff:                                                   NO
 PW_GRID|   Bounds   1            -12      12                Points:          25
 PW_GRID|   Bounds   2            -12      12                Points:          25
 PW_GRID|   Bounds   3            -16      15                Points:          32
 PW_GRID| Volume element (a.u.^3)  0.2348E-01     Volume (a.u.^3)       469.6025
 PW_GRID| Grid span                                                    FULLSPACE
 PW_GRID|   Distribution                         Average         Max         Min
 PW_GRID|   G-Vectors                             2500.0        2525        2475
 PW_GRID|   G-Rays                                 100.0         101          99
 PW_GRID|   Real Space Points                     2500.0        3200        2400

 PW_GRID| Information for grid number                                          4
 PW_GRID| Number of the reference grid                                         1
 PW_GRID| Grid distributed over                                     8 processors
 PW_GRID| Real space group dimensions                                     8    1
 PW_GRID| the grid is blocked:                                                NO
 PW_GRID| Cutoff [a.u.]                                                     18.5
 PW_GRID| spherical cutoff:                                                   NO
 PW_GRID|   Bounds   1             -7       7                Points:          15
 PW_GRID|   Bounds   2             -7       7                Points:          15
 PW_GRID|   Bounds   3            -10       9                Points:          20
 PW_GRID| Volume element (a.u.^3)  0.1044         Volume (a.u.^3)       469.6025
 PW_GRID| Grid span                                                    FULLSPACE
 PW_GRID|   Distribution                         Average         Max         Min
 PW_GRID|   G-Vectors                              562.5         585         555
 PW_GRID|   G-Rays                                  37.5          39          37
 PW_GRID|   Real Space Points                      562.5         600         300

 POISSON| Solver                                                        PERIODIC
 POISSON| Periodicity                                                        XYZ

 RS_GRID| Information for grid number                                          1
 RS_GRID|   Bounds   1            -40      39                Points:          80
 RS_GRID|   Bounds   2            -40      39                Points:          80
 RS_GRID|   Bounds   3            -48      47                Points:          96
 RS_GRID| Real space fully replicated
 RS_GRID| Group size                                                           1

 RS_GRID| Information for grid number                                          2
 RS_GRID|   Bounds   1            -22      22                Points:          45
 RS_GRID|   Bounds   2            -22      22                Points:          45
 RS_GRID|   Bounds   3            -30      29                Points:          60
 RS_GRID| Real space fully replicated
 RS_GRID| Group size                                                           1

 RS_GRID| Information for grid number                                          3
 RS_GRID|   Bounds   1            -12      12                Points:          25
 RS_GRID|   Bounds   2            -12      12                Points:          25
 RS_GRID|   Bounds   3            -16      15                Points:          32
 RS_GRID| Real space fully replicated
 RS_GRID| Group size                                                           1

 RS_GRID| Information for grid number                                          4
 RS_GRID|   Bounds   1             -7       7                Points:          15
 RS_GRID|   Bounds   2             -7       7                Points:          15
 RS_GRID|   Bounds   3            -10       9                Points:          20
 RS_GRID| Real space fully replicated
 RS_GRID| Group size                                                           1

 Number of electrons:                                                          4
 Number of occupied orbitals:                                                  2
 Number of molecular orbitals:                                                 4

 Number of orbital functions:                                                  4
 Number of independent orbital functions:                                      4

 Extrapolation method: initial_guess

 *** WARNING in qs_initial_guess.F:306 :: User requested to restart the    ***
 *** wavefunction from the file named: WSe2-RESTART.kp. This file does not ***
 *** exist. Please check the existence of the file or change properly the  ***
 *** value of the keyword WFN_RESTART_FILE_NAME. Calculation continues     ***
 *** using ATOMIC GUESS.                                                   ***


 Atomic guess: The first density matrix is obtained in terms of atomic orbitals
               and electronic configurations assigned to each atomic kind

 Guess for atomic kind: H

 Electronic structure
    Total number of core electrons                                          0.00
    Total number of valence electrons                                       1.00
    Total number of electrons                                               1.00
    Multiplicity                                                   not specified
    S      1.00


 *******************************************************************************
                  Iteration          Convergence                     Energy [au]
 *******************************************************************************
                          1         0.00000                      -0.303680652738

 Energy components [Hartree]           Total Energy ::           -0.303680652738
                                        Band Energy ::           -0.122516337542
                                     Kinetic Energy ::            1.009243604796
                                   Potential Energy ::           -1.312924257534
                                      Virial (-V/T) ::            1.300899258905
                                        Core Energy ::           -0.399779323576
                                          XC Energy ::           -0.355111242836
                                     Coulomb Energy ::            0.451209913674
                       Total Pseudopotential Energy ::           -1.417414563464
                       Local Pseudopotential Energy ::           -1.417414563464
                    Nonlocal Pseudopotential Energy ::            0.000000000000
                                        Confinement ::            0.083916350930

 Orbital energies  State     L     Occupation   Energy[a.u.]          Energy[eV]

                       1     0          1.000      -0.122516           -3.333839


 Total Electron Density at R=0:                                         0.627062
 Re-scaling the density matrix to get the right number of electrons
                  # Electrons              Trace(P)               Scaling factor
                            4                 4.000                        1.000


 SCF WAVEFUNCTION OPTIMIZATION

  Step     Update method      Time    Convergence         Total energy    Change
  ------------------------------------------------------------------------------
     1 NoMix/Diag. 0.50E-01    4.0     0.63688738        -1.5079879274 -1.51E+00
     2 Broy./Diag. 0.50E-01    4.7     0.00000125        -2.3284980131 -8.21E-01
     3 Broy./Diag. 0.50E-01    4.6     0.00005703        -2.1957458477  1.33E-01
     4 Broy./Diag. 0.50E-01    4.7     0.00000102        -2.1956066735  1.39E-04
     5 Broy./Diag. 0.50E-01    4.6     0.00001649        -2.2134192779 -1.78E-02
     6 Broy./Diag. 0.50E-01    4.6     0.00000032        -2.2136719698 -2.53E-04
     7 Broy./Diag. 0.50E-01    4.7     0.00000319        -2.2136328236  3.91E-05
     8 Broy./Diag. 0.50E-01    4.6     0.00000012        -2.2136182446  1.46E-05
     9 Broy./Diag. 0.50E-01    4.7     0.00000295        -2.2139828975 -3.65E-04
    10 Broy./Diag. 0.50E-01    4.7     0.00000009        -2.2139929311 -1.00E-05
    11 Broy./Diag. 0.50E-01    4.7     0.00000087        -2.2139501897  4.27E-05
    12 Broy./Diag. 0.50E-01    4.7     8.1232E-09        -2.2139436522  6.54E-06
    13 Broy./Diag. 0.50E-01    4.6     0.00000007        -2.2138517747  9.19E-05
    14 Broy./Diag. 0.50E-01    4.7     3.3891E-09        -2.2138491006  2.67E-06
    15 Broy./Diag. 0.50E-01    4.7     0.00000003        -2.2138407619  8.34E-06
    16 Broy./Diag. 0.50E-01    4.6     5.1549E-09        -2.2138341431  6.62E-06
    17 Broy./Diag. 0.50E-01    4.7     2.6823E-09        -2.2138200507  1.41E-05
    18 Broy./Diag. 0.50E-01    4.7     5.0775E-09        -2.2138153446  4.71E-06
    19 Broy./Diag. 0.50E-01    4.7     3.2323E-09        -2.2138134821  1.86E-06
    20 Broy./Diag. 0.50E-01    4.7     7.0605E-09        -2.2138076556  5.83E-06
    21 Broy./Diag. 0.50E-01    4.7     2.4883E-09        -2.2138069237  7.32E-07
    22 Broy./Diag. 0.50E-01    4.6     3.8861E-09        -2.2138072587 -3.35E-07
    23 Broy./Diag. 0.50E-01    4.6     2.3030E-09        -2.2138067621  4.97E-07
    24 Broy./Diag. 0.50E-01    4.7     2.6320E-09        -2.2138057263  1.04E-06
    25 Broy./Diag. 0.50E-01    4.7     1.9576E-09        -2.2138046983  1.03E-06
    26 Broy./Diag. 0.50E-01    4.7     1.0278E-09        -2.2138045503  1.48E-07
    27 Broy./Diag. 0.50E-01    4.7     1.0508E-09        -2.2138047213 -1.71E-07
    28 Broy./Diag. 0.50E-01    4.6     1.1821E-09        -2.2138043059  4.15E-07
    29 Broy./Diag. 0.50E-01    4.7     1.4846E-09        -2.2138035813  7.25E-07
    30 Broy./Diag. 0.50E-01    4.7     1.1722E-10        -2.2138036171 -3.58E-08

  *** SCF run converged in    30 steps ***


  Electronic density on regular grids:         -4.0000000000        0.0000000000
  Core density on regular grids:                4.0000000000       -0.0000000000
  Total charge density on r-space grids:        0.0000000000
  Total charge density g-space grids:           0.0000000000

  Overlap energy of the core charge distribution:               0.00000074652500
  Self energy of the core charge distribution:                 -5.64189583547756
  Core Hamiltonian energy:                                      2.71041830059455
  Hartree energy:                                               2.31946634708711
  Exchange-correlation energy:                                 -1.60179317583814

  Total energy:                                                -2.21380361710904

 !-----------------------------------------------------------------------------!
                     Mulliken Population Analysis

 #  Atom  Element  Kind  Atomic population                           Net charge
       1     H        1          1.000000                             -0.000000
       2     H        1          1.000000                              0.000000
       3     H        1          1.000000                             -0.000000
       4     H        1          1.000000                              0.000000
 # Total charge                              4.000000                 -0.000000

 !-----------------------------------------------------------------------------!

 !-----------------------------------------------------------------------------!
                           Hirshfeld Charges

  #Atom  Element  Kind  Ref Charge     Population                    Net charge
      1       H      1       1.000          0.976                         0.024
      2       H      1       1.000          0.976                         0.024
      3       H      1       1.000          0.976                         0.024
      4       H      1       1.000          0.976                         0.024

  Total Charge                                                            0.095
 !-----------------------------------------------------------------------------!

 KPOINTS| Band Structure Calculation
 KPOINTS| Number of k-point sets                                               1
 KPOINTS| Number of added MOs/bands                                           -1
 KPOINTS| Number of k-points in set    1                                     148
 KPOINTS| In units of b-vector [2pi/Bohr]
 KPOINTS| Special point     1 not specifi     0.000000     0.000000     0.000000
 KPOINTS| Special point     2 not specifi     0.500000     0.000000     0.000000
 KPOINTS| Special point     3 not specifi     0.333333     0.333333     0.000000
 KPOINTS| Special point     4 not specifi     0.000000     0.000000     0.000000
 KPOINTS| Time for k-point line                                            1.350

 ENERGY| Total FORCE_EVAL ( QS ) energy [hartree]             -2.213803617109040

 -------------------------------------------------------------------------------
 -                                                                             -
 -                                DBCSR STATISTICS                             -
 -                                                                             -
 -------------------------------------------------------------------------------
 COUNTER                                    TOTAL       BLAS       SMM       ACC
 flops inhomo. stacks                           0       0.0%      0.0%      0.0%
 flops total                         0.000000E+00       0.0%      0.0%      0.0%
 flops max/rank                      0.000000E+00       0.0%      0.0%      0.0%
 matmuls inhomo. stacks                         0       0.0%      0.0%      0.0%
 matmuls total                                  0       0.0%      0.0%      0.0%
 number of processed stacks                     0       0.0%      0.0%      0.0%
 average stack size                                     0.0       0.0       0.0
 marketing flops                     0.000000E+00
 -------------------------------------------------------------------------------
 -                                                                             -
 -                      DBCSR MESSAGE PASSING PERFORMANCE                      -
 -                                                                             -
 -------------------------------------------------------------------------------
 ROUTINE             CALLS      AVE VOLUME [Bytes]
 MP_Bcast                1                     12.
 MP_Allreduce           19                     21.
 MP_Alltoall        731816                    192.
 -------------------------------------------------------------------------------

 -------------------------------------------------------------------------------
 -                                                                             -
 -                                DBM STATISTICS                               -
 -                                                                             -
 -------------------------------------------------------------------------------
    M  x    N  x    K                                          COUNT     PERCENT
 -------------------------------------------------------------------------------

 -------------------------------------------------------------------------------
 -                                                                             -
 -                                GRID STATISTICS                              -
 -                                                                             -
 -------------------------------------------------------------------------------
 LP    KERNEL             BACKEND                              COUNT     PERCENT
 0     collocate general  CPU                                3513114      50.82%
 0     integrate general  CPU                                3399784      49.18%
 -------------------------------------------------------------------------------

 MEMORY| Estimated peak process memory [MiB]                                 361

 -------------------------------------------------------------------------------
 ----                             MULTIGRID INFO                            ----
 -------------------------------------------------------------------------------
 count for grid        1:          26326          cutoff [a.u.]          500.00
 count for grid        2:          16538          cutoff [a.u.]          166.67
 count for grid        3:          20248          cutoff [a.u.]           55.56
 count for grid        4:          96406          cutoff [a.u.]           18.52
 total gridlevel count  :         159518

 -------------------------------------------------------------------------------
 -                                                                             -
 -                         MESSAGE PASSING PERFORMANCE                         -
 -                                                                             -
 -------------------------------------------------------------------------------

 ROUTINE             CALLS      AVE VOLUME [Bytes]
 MP_Group                6
 MP_Bcast           281206                  20506.
 MP_Allreduce       346081                      9.
 MP_Sync                 4
 MP_Alltoall           545                3399391.
 MP_SendRecv           882                 200279.
 MP_ISendRecv          847                 197078.
 MP_Wait            193443
 MP_comm_split           4
 MP_ISend           205004                     15.
 MP_IRecv           327296                     12.
 -------------------------------------------------------------------------------


 -------------------------------------------------------------------------------
 -                                                                             -
 -                           R E F E R E N C E S                               -
 -                                                                             -
 -------------------------------------------------------------------------------
 
 CP2K version 2025.1 (Development Version), the CP2K developers group (2025).
 CP2K is freely available from https://www.cp2k.org/ .
 
 T. D. Kuehne, M. Iannuzzi, M. Del Ben, V. V. Rybkin, P. Seewald, F. Stein, T. 
 Laino, R. Z. Khaliullin, O. Schuett, F. Schiffmann, D. Golze, J. Wilhelm, S. 
 Chulkov, M. H. Bani-Hashemian, V. Weber, U. Borstnik, M. Taillefumier, A. S. 
 Jakobovits, A. Lazzaro, H. Pabst, T. Mueller, R. Schade, M. Guidon, S. 
 Andermatt, N. Holmberg, G. K. Schenter, A. Hehn, A. Bussy, F. Belleflamme, G. 
 Tabacchi, A. Gloess, M. Lass, I. Bethune, C. J. Mundy, C. Plessl, M. Watkins, 
 J. VandeVondele, M. Krack, J. Hutter.
 J. Chem. Phys. 152, 194103 (2020).
 CP2K: An electronic structure and molecular dynamics software package - 
 Quickstep: Efficient and accurate electronic structure calculations.
 https://doi.org/10.1063/5.0007045

 O. Schuett, P. Messmer, J. Hutter, J. VandeVondele.
 Electronic Structure Calculations on Graphics Processing Units, 173-190 (2016).
 GPU-Accelerated Sparse Matrix-Matrix Multiplication for Linear Scaling Density 
 Functional Theory.
 https://doi.org/10.1002/9781118670712.ch8

 J. Hutter, M. Iannuzzi, F. Schiffmann, J. VandeVondele.
 WIREs Comput Mol Sci. 4, 15-25 (2014).
 CP2K: atomistic simulations of condensed matter systems.
 https://doi.org/10.1002/wcms.1159

 U. Borstnik, J. VandeVondele, V. Weber, J. Hutter.
 Parallel Comput. 40, 47-58 (2014).
 Sparse matrix multiplication: The distributed block-compressed sparse row 
 library.
 https://doi.org/10.1016/j.parco.2014.03.012

 J. VandeVondele, J. Hutter.
 J. Chem. Phys. 127, 114105 (2007).
 Gaussian basis sets for accurate calculations on molecular systems in gas and 
 condensed phases.
 https://doi.org/10.1063/1.2770708

 J. VandeVondele, M. Krack, F. Mohamed, M. Parrinello, T. Chassaing, J. Hutter.
 Comput. Phys. Commun. 167, 103-128 (2005).
 QUICKSTEP: Fast and accurate density functional calculations using a mixed 
 Gaussian and plane waves approach.
 https://doi.org/10.1016/j.cpc.2004.12.014

 M. Krack.
 Theor. Chem. Acc. 114, 145-152 (2005).
 Pseudopotentials for H to Kr optimized for gradient-corrected 
 exchange-correlation functionals.
 https://doi.org/10.1007/s00214-005-0655-y

 M. Frigo, S. G. Johnson.
 Proc. IEEE 93, 216-231 (2005).
 The design and implementation of FFTW3.
 https://doi.org/10.1109/JPROC.2004.840301

 C. Hartwigsen, S. Goedecker, J. Hutter.
 Phys. Rev. B 58, 3641-3662 (1998).
 Relativistic separable dual-space Gaussian pseudopotentials from H to Rn.
 https://doi.org/10.1103/PhysRevB.58.3641

 G. Lippert, J. Hutter, M. Parrinello.
 Mol. Phys. 92, 477-487 (1997).
 A hybrid Gaussian and plane wave density functional scheme.
 https://doi.org/10.1080/002689797170220

 S. Goedecker, M. Teter, J. Hutter.
 Phys. Rev. B 54, 1703-1710 (1996).
 Separable dual-space Gaussian pseudopotentials.
 https://doi.org/10.1103/PhysRevB.54.1703

 J. P. Perdew, K. Burke, M. Ernzerhof.
 Phys. Rev. Lett. 77, 3865-3868 (1996).
 Generalized gradient approximation made simple.
 https://doi.org/10.1103/PhysRevLett.77.3865


 -------------------------------------------------------------------------------
 -                                                                             -
 -                                T I M I N G                                  -
 -                                                                             -
 -------------------------------------------------------------------------------
 SUBROUTINE                       CALLS  ASD         SELF TIME        TOTAL TIME
                                MAXIMUM       AVERAGE  MAXIMUM  AVERAGE  MAXIMUM
 CP2K                                 1  1.0    0.028    0.031  155.893  155.893
 qs_energies                          1  2.0    0.012    0.014  154.604  154.605
 scf_env_do_scf                       1  3.0    0.000    0.000  144.522  144.523
 scf_env_do_scf_inner_loop           30  4.0    0.097    0.099  144.522  144.522
 do_general_diag_kp                  31  5.9    0.185    0.189  103.400  105.708
 qs_scf_new_mos_kp                   30  5.0    0.000    0.000  102.104  104.412
 rskp_transform                   15656  6.9   30.119   48.107   30.119   48.107
 mp_alltoall_i22                 124628  8.7   35.135   47.589   35.135   47.589
 dbcsr_desymmetrize_deep          70290  7.4    1.075    1.094   31.487   40.683
 kpoint_density_transform            30  7.0    0.138    0.140   28.485   28.519
 dbcsr_complete_redistribute      54338  8.1    1.674    1.710   23.419   27.009
 qs_ks_update_qs_env                 30  5.0    0.000    0.000   16.331   23.171
 transform_dmat                    7680  8.0   14.429   23.134   14.429   23.134
 rebuild_ks_matrix                   30  6.0    0.000    0.000   13.259   20.099
 qs_ks_build_kohn_sham_matrix        30  7.0    0.184    0.187   13.259   20.099
 qs_rho_update_rho_low               31  5.0    0.000    0.000   19.006   19.060
 calculate_rho_elec                  31  6.0    0.022    0.024   19.005   19.060
 grid_collocate_task_list            31  7.0   11.709   18.649   11.709   18.649
 sum_up_and_integrate                30  8.0    0.000    0.000   11.700   18.580
 integrate_v_rspace                  30  9.0    0.104    0.167   11.699   18.578
 grid_integrate_task_list            30 10.0   11.284   18.064   11.284   18.064
 copy_dbcsr_to_fm                 38978  6.8    0.397    0.408   17.399   17.726
 copy_fm_to_dbcsr                 15360  8.0    0.095    0.097   12.675   16.005
 transfer_rs2pw                     126  8.0    0.001    0.002    8.740   11.580
 transfer_rs2pw_500                  33  8.9    0.080    0.085    8.687   11.527
 mp_sendrecv_dv                     882 10.0    8.642   11.483    8.642   11.483
 density_rs2pw                       31  7.0    0.001    0.001    7.272    9.645
 cp_dbcsr_alloc_block_from_nbl    27013  5.0    4.373    7.279    4.457    7.364
 qs_energies_init_hamiltonians        1  3.0    0.000    0.000    4.975    4.975
 write_kpoints_restart               30  5.0    0.043    0.049    4.847    4.848
 dbcsr_finalize                  186320  7.8    0.626    0.665    4.284    4.693
 dbcsr_dot                       229981  8.0    0.952    0.996    3.211    3.858
 build_core_hamiltonian_matrix        1  4.0    0.014    0.014    2.241    3.847
 cp_fm_start_copy_general         46672  7.3    0.475    0.782    3.209    3.245
 evaluate_core_matrix_traces         30  6.0    0.000    0.000    3.071    3.072
 calculate_ptrace_kp                 60  7.0    0.170    0.177    3.071    3.071
 mp_cart_sub                      77958  8.8    3.056    3.061    3.056    3.061
 mp_alltoall_d11v                373884  9.3    2.891    2.976    2.891    2.976
 mp_sum_d                        230639  9.0    1.979    2.782    1.979    2.782
 dbcsr_merge_all                  54338 10.1    1.341    1.697    2.357    2.723
 qs_env_update_s_mstruct              1  4.0    0.000    0.000    2.298    2.662
 mp_alltoall_i11v                233304  8.9    2.241    2.288    2.241    2.288
 calculate_rho_core                   1  5.0    0.001    0.001    1.620    2.114
 dbcsr_copy                      249173  6.6    1.289    1.402    1.976    2.084
 hybrid_alltoall_any              70290  8.4    0.271    0.275    1.957    2.023
 mixing_allocate                      1  3.0    0.022    0.023    1.301    2.019
 mp_cart_create                   38985  8.8    1.751    1.775    1.751    1.775
 init_scf_run                         1  3.0    0.000    0.000    1.403    1.650
 scf_env_initial_rho_setup            1  4.0    0.000    0.000    1.403    1.650
 self_consistency_check              30  5.0    0.161    0.164    1.568    1.582
 dbcsr_create_new                435991  7.7    1.223    1.273    1.497    1.551
 build_kinetic_matrix_low             1  5.0    0.026    0.027    0.721    1.483
 cp_fm_write_unformatted           7666  6.0    1.371    1.430    1.381    1.446
 dbcsr_iterator_start            690786  8.6    1.119    1.131    1.318    1.330
 cp_sm_mix                       114990  6.0    0.327    0.347    1.272    1.287
 mp_bcast_iv                     186852  8.3    1.117    1.274    1.117    1.274
 mp_allgather_i                   93344  8.3    1.119    1.223    1.119    1.223
 create_qs_kind_set                   1  2.0    0.000    0.000    1.115    1.115
 read_qs_kind                         1  3.0    0.660    0.667    1.115    1.115
 dbcsr_work_create               124628  8.7    0.826    0.856    1.078    1.113
 build_overlap_matrix_low             1  5.0    0.026    0.027    0.664    1.024
 qs_env_rebuild_rho                   1  5.0    0.000    0.000    0.648    1.004
 qs_rho_rebuild                       1  6.0    0.010    0.010    0.648    1.004
 calculate_first_density_matrix       1  5.0    0.003    0.003    0.727    0.974
 mp_bcast_b_src                      31  6.0    0.358    0.957    0.358    0.957
 calculate_atomic_block_dm            1  6.0    0.000    0.001    0.311    0.954
 dbcsr_work_destroy_all          124628  9.7    0.588    0.595    0.892    0.906
 dbcsr_iterator_stop             690786  8.6    0.745    0.753    0.885    0.895
 copy_dbcsr_to_fm_bc              38978  7.8    0.364    0.380    0.816    0.831
 tree_to_linear_d                 54338 11.1    0.779    0.810    0.779    0.810
 fft_wrap_pw1pw2                    545 10.0    0.004    0.004    0.728    0.779
 fft_wrap_pw1pw2_500                362 11.3    0.046    0.047    0.670    0.719
 copy_fm_to_dbcsr_bc              15360  9.0    0.207    0.217    0.692    0.713
 dbcsr_data_release             2210380  9.9    0.687    0.702    0.687    0.702
 mp_max_d                        114992  7.0    0.674    0.698    0.674    0.698
 fft3d_ps                           545 12.0    0.215    0.219    0.600    0.653
 dbcsr_destroy                   206011  7.5    0.334    0.341    0.568    0.576
 parser_read_line                143715  4.0    0.048    0.050    0.521    0.526
 dbcsr_data_new                 1379014  9.5    0.505    0.520    0.505    0.520
 calculate_ecore_overlap              1  4.0    0.000    0.000    0.377    0.507
 parser_read_line_low               163  5.2    0.054    0.237    0.473    0.480
 mp_sum_iv                           24  5.3    0.349    0.479    0.349    0.479
 qs_scf_ensure_work_matrices          1  3.0    0.000    0.000    0.349    0.479
 qs_vxc_create                       30  8.0    0.000    0.000    0.454    0.455
 xc_vxc_pw_create                    30  9.0    0.019    0.019    0.454    0.454
 broadcast_input_information        163  6.2    0.109    0.117    0.420    0.453
 dbcsr_set                       338749  7.2    0.294    0.296    0.420    0.423
 mp_bcast_av_src                      1  6.0    0.052    0.404    0.052    0.404
 mp_alltoall_z22v                   545 14.0    0.341    0.400    0.341    0.400
 mp_bcast_im                      93344  8.3    0.344    0.397    0.344    0.397
 gspace_mixing                       29  5.0    0.016    0.016    0.389    0.389
 dbcsr_copy_into_existing         19193  9.2    0.218    0.278    0.327    0.385
 quick_finalize                   70290  9.4    0.223    0.226    0.368    0.378
 potential_pw2rs                     30 10.0    0.002    0.002    0.311    0.359
 mp_waitall_1                    193443  8.3    0.185    0.335    0.185    0.335
 broyden_mixing                      29  6.0    0.310    0.316    0.318    0.320
 xc_pw_derive                       180 11.0    0.001    0.001    0.287    0.288
 mp_comm_free                    116980  8.8    0.272    0.288    0.272    0.288
 build_core_ppl                       1  5.0    0.136    0.256    0.136    0.256
 yz_to_x                            245 12.8    0.015    0.016    0.203    0.255
 xc_rho_set_and_dset_create          30 10.0    0.014    0.014    0.244    0.246
 mp_bcast_i_src                     652  7.2    0.181    0.213    0.181    0.213
 dbcsr_make_index_exist          435991  8.7    0.188    0.207    0.188    0.207
 dbcsr_iterator_seek             690786  9.6    0.199    0.206    0.199    0.206
 xc_pw_divergence                    30 10.0    0.000    0.000    0.187    0.189
 x_to_yz                            300 13.2    0.025    0.027    0.178    0.184
 dbcsr_sort_indices              167001 10.2    0.165    0.175    0.165    0.175
 transfer_pw2rs                     121 11.0    0.001    0.001    0.169    0.170
 dbcsr_reserve_blocks             42373  7.8    0.102    0.105    0.137    0.142
 mp_bcast_am_src                    163  7.2    0.112    0.116    0.128    0.135
 transfer_pw2rs_500                  31 11.9    0.064    0.067    0.125    0.129
 dbcsr_zero                      338749  8.2    0.126    0.128    0.126    0.128
 merge_index                      54338 11.1    0.104    0.118    0.104    0.118
 kpoint_init_cell_index               2  3.5    0.090    0.100    0.101    0.102
 kpoint_density_matrices             30  7.0    0.005    0.005    0.092    0.096
 dbcsr_reserve_all_blocks         15360 10.0    0.025    0.027    0.089    0.093
 parallel_gemm_fm                  3840  8.0    0.003    0.003    0.087    0.090
 parallel_gemm_fm_gemm             3840  9.0    0.003    0.003    0.083    0.087
 mp_irecv_iv                     186688  8.3    0.011    0.086    0.011    0.086
 dbcsr_switch_data_area           70290 10.4    0.064    0.066    0.083    0.084
 cp_fm_gemm                        3840 10.0    0.080    0.084    0.080    0.084
 xc_functional_eval                  30 11.0    0.000    0.000    0.079    0.081
 pbe_lda_eval                        30 12.0    0.079    0.081    0.079    0.081
 topology_control                     1  2.0    0.000    0.000    0.073    0.073
 cp_fm_finish_copy_general        19348  7.8    0.033    0.034    0.067    0.069
 mp_isend_iv                     105160  8.3    0.016    0.061    0.016    0.061
 mp_comm_size                    231007  9.0    0.056    0.059    0.056    0.059
 mp_comm_rank                    231007  9.0    0.053    0.055    0.053    0.055
 cp_fm_cleanup_copy_general       33232  7.0    0.033    0.033    0.052    0.054
 cp_cfm_geeig                       997  6.9    0.005    0.006    0.052    0.053
 qs_create_task_list                  1  5.0    0.000    0.000    0.030    0.051
 generate_qs_task_list                1  6.0    0.021    0.034    0.030    0.051
 read_cell_cif                        2  4.5    0.002    0.005    0.050    0.051
 dbcsr_distribution_new           54340  8.4    0.045    0.048    0.045    0.048
 mp_isend_dv                      47264  8.2    0.043    0.047    0.043    0.047
 dbcsr_make_dbcsr_index          167001 10.2    0.043    0.046    0.043    0.046
 coordinate_control                   1  3.0    0.001    0.001    0.045    0.045
 coordinate_control_READ_COORDI       1  4.0    0.000    0.000    0.044    0.044
 read_coordinate_cif                  1  5.0    0.002    0.002    0.044    0.044
 pw_scatter_p                       300 12.2    0.043    0.043    0.043    0.043
 mp_irecv_im2                     93344  8.3    0.005    0.043    0.005    0.043
 dbcsr_get_data_size_used        124628  9.7    0.040    0.043    0.040    0.043
 pw_poisson_solve                    30  8.0    0.000    0.000    0.041    0.041
 transfer_rs2pw_170                  31  9.0    0.012    0.013    0.037    0.040
 fft_wrap_pw1pw2_170                 61 10.5    0.002    0.002    0.035    0.037
 mp_recv_dv                       22998  7.0    0.004    0.036    0.004    0.036
 transfer_pw2rs_170                  30 12.0    0.012    0.012    0.032    0.035
 mp_isendrecv_dv                    847 13.0    0.016    0.035    0.016    0.035
 qs_init_subsys                       1  2.0    0.001    0.001    0.031    0.031
 cp_cfm_heevd                       997  7.9    0.001    0.001    0.029    0.030
 scf_post_calculation_gpw             1  3.0    0.000    0.000    0.029    0.029
 qs_env_setup                         1  3.0    0.000    0.000    0.028    0.029
 write_available_results              1  4.0    0.000    0.000    0.029    0.029
 cp_cfm_heevd_base                  997  8.9    0.028    0.029    0.028    0.029
 write_mo_free_results                1  5.0    0.001    0.001    0.029    0.029
 qs_env_rebuild_pw_env                2  3.5    0.000    0.000    0.028    0.028
 pw_env_rebuild                       1  5.0    0.000    0.001    0.028    0.028
 mp_isend_im2                     52580  8.3    0.007    0.028    0.007    0.028
 pw_grid_setup                        4  6.0    0.000    0.000    0.027    0.027
 pw_grid_setup_internal               4  7.0    0.001    0.001    0.027    0.027
 mp_irecv_dv                      47264  8.2    0.026    0.027    0.026    0.027
 pw_integral_ab_c1d_c1d_gs           30  9.0    0.024    0.025    0.026    0.026
 dbcsr_data_copy_aa2              54338 11.1    0.023    0.024    0.023    0.024
 pw_gather_p                        245 11.8    0.022    0.023    0.022    0.023
 dbcsr_filter_anytype            122656  7.9    0.022    0.023    0.022    0.023
 pw_copy                            450 10.5    0.017    0.017    0.017    0.017
 scf_env_cleanup                      1  3.0    0.006    0.006    0.016    0.016
 mulliken_population_analysis         1  6.0    0.007    0.007    0.016    0.016
 pw_grid_sort                         4  8.0    0.011    0.011    0.016    0.016
 mp_send_dv                        7666  7.0    0.005    0.016    0.005    0.016
 -------------------------------------------------------------------------------

 The number of warnings for this run is : 2
 
 -------------------------------------------------------------------------------
  **** **** ******  **  PROGRAM ENDED AT                 2025-08-20 16:58:19.731
 ***** ** ***  *** **   PROGRAM RAN ON                              i04r08c06s08
 **    ****   ******    PROGRAM RAN BY                                   di38fab
 ***** **    ** ** **   PROGRAM PROCESS ID                                 54209
  **** **  *******  **  PROGRAM STOPPED IN /hppfs/scratch/04/di38fab/09_GTH/Delt
                                           a_Set/H/SZV-MOLOPT-GTH/8x8x8
