 DBCSR| CPU Multiplication driver                                           BLAS (U)
 DBCSR| Multrec recursion limit                                              512 (U)
 DBCSR| Multiplication stack size                                           1000 (D)
 DBCSR| Maximum elements for images                                    UNLIMITED (U)
 DBCSR| Multiplicative factor virtual images                                   1 (U)
 DBCSR| Use multiplication densification                                       T (D)
 DBCSR| Multiplication size stacks                                             3 (U)
 DBCSR| Use memory pool for CPU allocation                                     F (U)
 DBCSR| Number of 3D layers                                               SINGLE (U)
 DBCSR| Use MPI memory allocation                                              F (U)
 DBCSR| Use RMA algorithm                                                      F (U)
 DBCSR| Use Communication thread                                               T (U)
 DBCSR| Communication thread load                                             45 (D)
 DBCSR| MPI: My process id                                                     0
 DBCSR| MPI: Number of processes                                               8
 DBCSR| OMP: Current number of threads                                        12
 DBCSR| OMP: Max number of threads                                            12
 DBCSR| Split modifier for TAS multiplication algorithm                  1.0E+00 (U)


  **** **** ******  **  PROGRAM STARTED AT               2025-08-04 16:25:08.056
 ***** ** ***  *** **   PROGRAM STARTED ON                          i05r11c06s04
 **    ****   ******    PROGRAM STARTED BY                               di38fab
 ***** **    ** ** **   PROGRAM PROCESS ID                               1981129
  **** **  *******  **  PROGRAM STARTED IN /hppfs/scratch/04/di38fab/09_GTH/Delt
                                           a_Set/Rb/aug-SZV-MOLOPT-GTH-tier-1/8x
                                           8x8

 CP2K| version string:                 CP2K version 2025.1 (Development Version)
 CP2K| source code revision number:                                  git:3130539
 CP2K| cp2kflags: omp libint fftw3 libxc parallel scalapack max_contr=4         
 CP2K| is freely available from                            https://www.cp2k.org/
 CP2K| Program compiled at                         Tue Jun  3 16:14:32 CEST 2025
 CP2K| Program compiled on                                               login01
 CP2K| Program compiled for                                        Supermuc-foss
 CP2K| Data directory path                  /hppfs/work/pn36zo/di38fab/cp2k/data
 CP2K| Input file name                                                    GW.inp

 GLOBAL| Force Environment number                                              1
 GLOBAL| Basis set file name            /hppfs/scratch/04/di38fab/09_GTH/BASIS_A
 GLOBAL| Potential file name            /hppfs/work/pn36zo/di38fab/cp2k/data/GTH
 GLOBAL| MM Potential file name                                     MM_POTENTIAL
 GLOBAL| Coordinate file name                                             Rb.cif
 GLOBAL| Method name                                                        CP2K
 GLOBAL| Project name                                                       WSe2
 GLOBAL| Run type                                                         ENERGY
 GLOBAL| FFT library                                                       FFTW3
 GLOBAL| Diagonalization library                                       ScaLAPACK
 GLOBAL| Cholesky decomposition library                                ScaLAPACK
 GLOBAL| DGEMM library                                                      BLAS
 GLOBAL| Orthonormality check for eigenvectors                          DISABLED
 GLOBAL| Matrix multiplication library                                 ScaLAPACK
 GLOBAL| All-to-all communication in single precision                          F
 GLOBAL| FFTs using library dependent lengths                                  F
 GLOBAL| Grid backend                                                       AUTO
 GLOBAL| Global print level                                               MEDIUM
 GLOBAL| MPI I/O enabled                                                       T
 GLOBAL| Total number of message passing processes                             8
 GLOBAL| Number of threads for this process                                   12
 GLOBAL| This output is from process                                           0
 GLOBAL| OpenMP stack size per thread (OMP_STACKSIZE)                    default
 GLOBAL| CPU model name             Intel(R) Xeon(R) Platinum 8174 CPU @ 3.10GHz

 MEMORY| system memory details [Kb]
 MEMORY|                        rank 0           min           max       average
 MEMORY| MemTotal             98436708      98436660      98436708      98436684
 MEMORY| MemFree              86401564      86322276      86401564      86361920
 MEMORY| Buffers                     0             0             0             0
 MEMORY| Cached                2337508       2337508       2345388       2341448
 MEMORY| Slab                   975620        975620        990572        983096
 MEMORY| SReclaimable           220404        220404        221156        220780
 MEMORY| MemLikelyFree        88959476      88888820      88959476      88924148


 *** Fundamental physical constants (SI units) ***

 *** Literature: B. J. Mohr and B. N. Taylor,
 ***             CODATA recommended values of the fundamental physical
 ***             constants: 2006, Web Version 5.1
 ***             http://physics.nist.gov/constants

 Speed of light in vacuum [m/s]                             2.99792458000000E+08
 Magnetic constant or permeability of vacuum [N/A**2]       1.25663706143592E-06
 Electric constant or permittivity of vacuum [F/m]          8.85418781762039E-12
 Planck constant (h) [J*s]                                  6.62606896000000E-34
 Planck constant (h-bar) [J*s]                              1.05457162825177E-34
 Elementary charge [C]                                      1.60217648700000E-19
 Electron mass [kg]                                         9.10938215000000E-31
 Electron g factor [ ]                                     -2.00231930436220E+00
 Proton mass [kg]                                           1.67262163700000E-27
 Fine-structure constant                                    7.29735253760000E-03
 Rydberg constant [1/m]                                     1.09737315685270E+07
 Avogadro constant [1/mol]                                  6.02214179000000E+23
 Boltzmann constant [J/K]                                   1.38065040000000E-23
 Atomic mass unit [kg]                                      1.66053878200000E-27
 Bohr radius [m]                                            5.29177208590000E-11

 *** Conversion factors ***

 [u] -> [a.u.]                                              1.82288848426455E+03
 [Angstrom] -> [Bohr] = [a.u.]                              1.88972613288564E+00
 [a.u.] = [Bohr] -> [Angstrom]                              5.29177208590000E-01
 [a.u.] -> [s]                                              2.41888432650478E-17
 [a.u.] -> [fs]                                             2.41888432650478E-02
 [a.u.] -> [J]                                              4.35974393937059E-18
 [a.u.] -> [N]                                              8.23872205491840E-08
 [a.u.] -> [K]                                              3.15774647902944E+05
 [a.u.] -> [kJ/mol]                                         2.62549961709828E+03
 [a.u.] -> [kcal/mol]                                       6.27509468713739E+02
 [a.u.] -> [Pa]                                             2.94210107994716E+13
 [a.u.] -> [bar]                                            2.94210107994716E+08
 [a.u.] -> [atm]                                            2.90362800883016E+08
 [a.u.] -> [eV]                                             2.72113838565563E+01
 [a.u.] -> [Hz]                                             6.57968392072181E+15
 [a.u.] -> [1/cm] (wave numbers)                            2.19474631370540E+05
 [a.u./Bohr**2] -> [1/cm]                                   5.14048714338585E+03
 

 CELL_TOP| Volume [angstrom^3]:                                       182.474329
 CELL_TOP| Vector a [angstrom     5.672     0.000     0.000   |a| =     5.671970
 CELL_TOP| Vector b [angstrom     0.000     5.672     0.000   |b| =     5.671970
 CELL_TOP| Vector c [angstrom     0.000     0.000     5.672   |c| =     5.671970
 CELL_TOP| Angle (b,c), alpha [degree]:                                90.000000
 CELL_TOP| Angle (a,c), beta  [degree]:                                90.000000
 CELL_TOP| Angle (a,b), gamma [degree]:                                90.000000
 CELL_TOP| Numerically orthorhombic:                                         YES
 CELL_TOP| Periodicity                                                       XYZ

 CELL_CIF| Volume [angstrom^3]:                                       182.474329
 CELL_CIF| Vector a [angstrom     5.672     0.000     0.000   |a| =     5.671970
 CELL_CIF| Vector b [angstrom     0.000     5.672     0.000   |b| =     5.671970
 CELL_CIF| Vector c [angstrom     0.000     0.000     5.672   |c| =     5.671970
 CELL_CIF| Angle (b,c), alpha [degree]:                                90.000000
 CELL_CIF| Angle (a,c), beta  [degree]:                                90.000000
 CELL_CIF| Angle (a,b), gamma [degree]:                                90.000000
 CELL_CIF| Numerically orthorhombic:                                         YES
 CELL_CIF| Periodicity                                                       XYZ

 GENERATE|  Preliminary Number of Bonds generated:                             0
 GENERATE|  Achieved consistency in connectivity generation.

 CELL| Volume [angstrom^3]:                                           182.474329
 CELL| Vector a [angstrom]:       5.672     0.000     0.000   |a| =     5.671970
 CELL| Vector b [angstrom]:       0.000     5.672     0.000   |b| =     5.671970
 CELL| Vector c [angstrom]:       0.000     0.000     5.672   |c| =     5.671970
 CELL| Angle (b,c), alpha [degree]:                                    90.000000
 CELL| Angle (a,c), beta  [degree]:                                    90.000000
 CELL| Angle (a,b), gamma [degree]:                                    90.000000
 CELL| Numerically orthorhombic:                                             YES
 CELL| Periodicity                                                           XYZ

 CELL_REF| Volume [angstrom^3]:                                       182.474329
 CELL_REF| Vector a [angstrom     5.672     0.000     0.000   |a| =     5.671970
 CELL_REF| Vector b [angstrom     0.000     5.672     0.000   |b| =     5.671970
 CELL_REF| Vector c [angstrom     0.000     0.000     5.672   |c| =     5.671970
 CELL_REF| Angle (b,c), alpha [degree]:                                90.000000
 CELL_REF| Angle (a,c), beta  [degree]:                                90.000000
 CELL_REF| Angle (a,b), gamma [degree]:                                90.000000
 CELL_REF| Numerically orthorhombic:                                         YES
 CELL_REF| Periodicity                                                       XYZ

 *** WARNING in cryssym.F:180 :: Symmetry library SPGLIB not available ***


 *******************************************************************************
                                    Kpoints
 *******************************************************************************
 BRILLOUIN| K-point scheme                                        Monkhorst-Pack
 BRILLOUIN| K-Point grid                                             8    8    8
 BRILLOUIN| Accuracy in Symmetry determination                      0.100000E-05
 BRILLOUIN| K-Point point group symmetrization                               OFF
 BRILLOUIN| Wavefunction type                                            COMPLEX
 BRILLOUIN| List of Kpoints [2 Pi/Bohr]                                      256
 BRILLOUIN| Number           Weight            X              Y              Z
 BRILLOUIN|     1           0.00391       -0.43750       -0.43750       -0.43750
 BRILLOUIN|     2           0.00391       -0.43750       -0.43750       -0.31250
 BRILLOUIN|     3           0.00391       -0.43750       -0.43750       -0.18750
 BRILLOUIN|     4           0.00391       -0.43750       -0.43750       -0.06250
 BRILLOUIN|     5           0.00391       -0.43750       -0.43750        0.06250
 BRILLOUIN|     6           0.00391       -0.43750       -0.43750        0.18750
 BRILLOUIN|     7           0.00391       -0.43750       -0.43750        0.31250
 BRILLOUIN|     8           0.00391       -0.43750       -0.43750        0.43750
 BRILLOUIN|     9           0.00391       -0.43750       -0.31250       -0.43750
 BRILLOUIN|    10           0.00391       -0.43750       -0.31250       -0.31250
 BRILLOUIN|    11           0.00391       -0.43750       -0.31250       -0.18750
 BRILLOUIN|    12           0.00391       -0.43750       -0.31250       -0.06250
 BRILLOUIN|    13           0.00391       -0.43750       -0.31250        0.06250
 BRILLOUIN|    14           0.00391       -0.43750       -0.31250        0.18750
 BRILLOUIN|    15           0.00391       -0.43750       -0.31250        0.31250
 BRILLOUIN|    16           0.00391       -0.43750       -0.31250        0.43750
 BRILLOUIN|    17           0.00391       -0.43750       -0.18750       -0.43750
 BRILLOUIN|    18           0.00391       -0.43750       -0.18750       -0.31250
 BRILLOUIN|    19           0.00391       -0.43750       -0.18750       -0.18750
 BRILLOUIN|    20           0.00391       -0.43750       -0.18750       -0.06250
 BRILLOUIN|    21           0.00391       -0.43750       -0.18750        0.06250
 BRILLOUIN|    22           0.00391       -0.43750       -0.18750        0.18750
 BRILLOUIN|    23           0.00391       -0.43750       -0.18750        0.31250
 BRILLOUIN|    24           0.00391       -0.43750       -0.18750        0.43750
 BRILLOUIN|    25           0.00391       -0.43750       -0.06250       -0.43750
 BRILLOUIN|    26           0.00391       -0.43750       -0.06250       -0.31250
 BRILLOUIN|    27           0.00391       -0.43750       -0.06250       -0.18750
 BRILLOUIN|    28           0.00391       -0.43750       -0.06250       -0.06250
 BRILLOUIN|    29           0.00391       -0.43750       -0.06250        0.06250
 BRILLOUIN|    30           0.00391       -0.43750       -0.06250        0.18750
 BRILLOUIN|    31           0.00391       -0.43750       -0.06250        0.31250
 BRILLOUIN|    32           0.00391       -0.43750       -0.06250        0.43750
 BRILLOUIN|    33           0.00391       -0.43750        0.06250       -0.43750
 BRILLOUIN|    34           0.00391       -0.43750        0.06250       -0.31250
 BRILLOUIN|    35           0.00391       -0.43750        0.06250       -0.18750
 BRILLOUIN|    36           0.00391       -0.43750        0.06250       -0.06250
 BRILLOUIN|    37           0.00391       -0.43750        0.06250        0.06250
 BRILLOUIN|    38           0.00391       -0.43750        0.06250        0.18750
 BRILLOUIN|    39           0.00391       -0.43750        0.06250        0.31250
 BRILLOUIN|    40           0.00391       -0.43750        0.06250        0.43750
 BRILLOUIN|    41           0.00391       -0.43750        0.18750       -0.43750
 BRILLOUIN|    42           0.00391       -0.43750        0.18750       -0.31250
 BRILLOUIN|    43           0.00391       -0.43750        0.18750       -0.18750
 BRILLOUIN|    44           0.00391       -0.43750        0.18750       -0.06250
 BRILLOUIN|    45           0.00391       -0.43750        0.18750        0.06250
 BRILLOUIN|    46           0.00391       -0.43750        0.18750        0.18750
 BRILLOUIN|    47           0.00391       -0.43750        0.18750        0.31250
 BRILLOUIN|    48           0.00391       -0.43750        0.18750        0.43750
 BRILLOUIN|    49           0.00391       -0.43750        0.31250       -0.43750
 BRILLOUIN|    50           0.00391       -0.43750        0.31250       -0.31250
 BRILLOUIN|    51           0.00391       -0.43750        0.31250       -0.18750
 BRILLOUIN|    52           0.00391       -0.43750        0.31250       -0.06250
 BRILLOUIN|    53           0.00391       -0.43750        0.31250        0.06250
 BRILLOUIN|    54           0.00391       -0.43750        0.31250        0.18750
 BRILLOUIN|    55           0.00391       -0.43750        0.31250        0.31250
 BRILLOUIN|    56           0.00391       -0.43750        0.31250        0.43750
 BRILLOUIN|    57           0.00391       -0.43750        0.43750       -0.43750
 BRILLOUIN|    58           0.00391       -0.43750        0.43750       -0.31250
 BRILLOUIN|    59           0.00391       -0.43750        0.43750       -0.18750
 BRILLOUIN|    60           0.00391       -0.43750        0.43750       -0.06250
 BRILLOUIN|    61           0.00391       -0.43750        0.43750        0.06250
 BRILLOUIN|    62           0.00391       -0.43750        0.43750        0.18750
 BRILLOUIN|    63           0.00391       -0.43750        0.43750        0.31250
 BRILLOUIN|    64           0.00391       -0.43750        0.43750        0.43750
 BRILLOUIN|    65           0.00391       -0.31250       -0.43750       -0.43750
 BRILLOUIN|    66           0.00391       -0.31250       -0.43750       -0.31250
 BRILLOUIN|    67           0.00391       -0.31250       -0.43750       -0.18750
 BRILLOUIN|    68           0.00391       -0.31250       -0.43750       -0.06250
 BRILLOUIN|    69           0.00391       -0.31250       -0.43750        0.06250
 BRILLOUIN|    70           0.00391       -0.31250       -0.43750        0.18750
 BRILLOUIN|    71           0.00391       -0.31250       -0.43750        0.31250
 BRILLOUIN|    72           0.00391       -0.31250       -0.43750        0.43750
 BRILLOUIN|    73           0.00391       -0.31250       -0.31250       -0.43750
 BRILLOUIN|    74           0.00391       -0.31250       -0.31250       -0.31250
 BRILLOUIN|    75           0.00391       -0.31250       -0.31250       -0.18750
 BRILLOUIN|    76           0.00391       -0.31250       -0.31250       -0.06250
 BRILLOUIN|    77           0.00391       -0.31250       -0.31250        0.06250
 BRILLOUIN|    78           0.00391       -0.31250       -0.31250        0.18750
 BRILLOUIN|    79           0.00391       -0.31250       -0.31250        0.31250
 BRILLOUIN|    80           0.00391       -0.31250       -0.31250        0.43750
 BRILLOUIN|    81           0.00391       -0.31250       -0.18750       -0.43750
 BRILLOUIN|    82           0.00391       -0.31250       -0.18750       -0.31250
 BRILLOUIN|    83           0.00391       -0.31250       -0.18750       -0.18750
 BRILLOUIN|    84           0.00391       -0.31250       -0.18750       -0.06250
 BRILLOUIN|    85           0.00391       -0.31250       -0.18750        0.06250
 BRILLOUIN|    86           0.00391       -0.31250       -0.18750        0.18750
 BRILLOUIN|    87           0.00391       -0.31250       -0.18750        0.31250
 BRILLOUIN|    88           0.00391       -0.31250       -0.18750        0.43750
 BRILLOUIN|    89           0.00391       -0.31250       -0.06250       -0.43750
 BRILLOUIN|    90           0.00391       -0.31250       -0.06250       -0.31250
 BRILLOUIN|    91           0.00391       -0.31250       -0.06250       -0.18750
 BRILLOUIN|    92           0.00391       -0.31250       -0.06250       -0.06250
 BRILLOUIN|    93           0.00391       -0.31250       -0.06250        0.06250
 BRILLOUIN|    94           0.00391       -0.31250       -0.06250        0.18750
 BRILLOUIN|    95           0.00391       -0.31250       -0.06250        0.31250
 BRILLOUIN|    96           0.00391       -0.31250       -0.06250        0.43750
 BRILLOUIN|    97           0.00391       -0.31250        0.06250       -0.43750
 BRILLOUIN|    98           0.00391       -0.31250        0.06250       -0.31250
 BRILLOUIN|    99           0.00391       -0.31250        0.06250       -0.18750
 BRILLOUIN|   100           0.00391       -0.31250        0.06250       -0.06250
 BRILLOUIN|   101           0.00391       -0.31250        0.06250        0.06250
 BRILLOUIN|   102           0.00391       -0.31250        0.06250        0.18750
 BRILLOUIN|   103           0.00391       -0.31250        0.06250        0.31250
 BRILLOUIN|   104           0.00391       -0.31250        0.06250        0.43750
 BRILLOUIN|   105           0.00391       -0.31250        0.18750       -0.43750
 BRILLOUIN|   106           0.00391       -0.31250        0.18750       -0.31250
 BRILLOUIN|   107           0.00391       -0.31250        0.18750       -0.18750
 BRILLOUIN|   108           0.00391       -0.31250        0.18750       -0.06250
 BRILLOUIN|   109           0.00391       -0.31250        0.18750        0.06250
 BRILLOUIN|   110           0.00391       -0.31250        0.18750        0.18750
 BRILLOUIN|   111           0.00391       -0.31250        0.18750        0.31250
 BRILLOUIN|   112           0.00391       -0.31250        0.18750        0.43750
 BRILLOUIN|   113           0.00391       -0.31250        0.31250       -0.43750
 BRILLOUIN|   114           0.00391       -0.31250        0.31250       -0.31250
 BRILLOUIN|   115           0.00391       -0.31250        0.31250       -0.18750
 BRILLOUIN|   116           0.00391       -0.31250        0.31250       -0.06250
 BRILLOUIN|   117           0.00391       -0.31250        0.31250        0.06250
 BRILLOUIN|   118           0.00391       -0.31250        0.31250        0.18750
 BRILLOUIN|   119           0.00391       -0.31250        0.31250        0.31250
 BRILLOUIN|   120           0.00391       -0.31250        0.31250        0.43750
 BRILLOUIN|   121           0.00391       -0.31250        0.43750       -0.43750
 BRILLOUIN|   122           0.00391       -0.31250        0.43750       -0.31250
 BRILLOUIN|   123           0.00391       -0.31250        0.43750       -0.18750
 BRILLOUIN|   124           0.00391       -0.31250        0.43750       -0.06250
 BRILLOUIN|   125           0.00391       -0.31250        0.43750        0.06250
 BRILLOUIN|   126           0.00391       -0.31250        0.43750        0.18750
 BRILLOUIN|   127           0.00391       -0.31250        0.43750        0.31250
 BRILLOUIN|   128           0.00391       -0.31250        0.43750        0.43750
 BRILLOUIN|   129           0.00391       -0.18750       -0.43750       -0.43750
 BRILLOUIN|   130           0.00391       -0.18750       -0.43750       -0.31250
 BRILLOUIN|   131           0.00391       -0.18750       -0.43750       -0.18750
 BRILLOUIN|   132           0.00391       -0.18750       -0.43750       -0.06250
 BRILLOUIN|   133           0.00391       -0.18750       -0.43750        0.06250
 BRILLOUIN|   134           0.00391       -0.18750       -0.43750        0.18750
 BRILLOUIN|   135           0.00391       -0.18750       -0.43750        0.31250
 BRILLOUIN|   136           0.00391       -0.18750       -0.43750        0.43750
 BRILLOUIN|   137           0.00391       -0.18750       -0.31250       -0.43750
 BRILLOUIN|   138           0.00391       -0.18750       -0.31250       -0.31250
 BRILLOUIN|   139           0.00391       -0.18750       -0.31250       -0.18750
 BRILLOUIN|   140           0.00391       -0.18750       -0.31250       -0.06250
 BRILLOUIN|   141           0.00391       -0.18750       -0.31250        0.06250
 BRILLOUIN|   142           0.00391       -0.18750       -0.31250        0.18750
 BRILLOUIN|   143           0.00391       -0.18750       -0.31250        0.31250
 BRILLOUIN|   144           0.00391       -0.18750       -0.31250        0.43750
 BRILLOUIN|   145           0.00391       -0.18750       -0.18750       -0.43750
 BRILLOUIN|   146           0.00391       -0.18750       -0.18750       -0.31250
 BRILLOUIN|   147           0.00391       -0.18750       -0.18750       -0.18750
 BRILLOUIN|   148           0.00391       -0.18750       -0.18750       -0.06250
 BRILLOUIN|   149           0.00391       -0.18750       -0.18750        0.06250
 BRILLOUIN|   150           0.00391       -0.18750       -0.18750        0.18750
 BRILLOUIN|   151           0.00391       -0.18750       -0.18750        0.31250
 BRILLOUIN|   152           0.00391       -0.18750       -0.18750        0.43750
 BRILLOUIN|   153           0.00391       -0.18750       -0.06250       -0.43750
 BRILLOUIN|   154           0.00391       -0.18750       -0.06250       -0.31250
 BRILLOUIN|   155           0.00391       -0.18750       -0.06250       -0.18750
 BRILLOUIN|   156           0.00391       -0.18750       -0.06250       -0.06250
 BRILLOUIN|   157           0.00391       -0.18750       -0.06250        0.06250
 BRILLOUIN|   158           0.00391       -0.18750       -0.06250        0.18750
 BRILLOUIN|   159           0.00391       -0.18750       -0.06250        0.31250
 BRILLOUIN|   160           0.00391       -0.18750       -0.06250        0.43750
 BRILLOUIN|   161           0.00391       -0.18750        0.06250       -0.43750
 BRILLOUIN|   162           0.00391       -0.18750        0.06250       -0.31250
 BRILLOUIN|   163           0.00391       -0.18750        0.06250       -0.18750
 BRILLOUIN|   164           0.00391       -0.18750        0.06250       -0.06250
 BRILLOUIN|   165           0.00391       -0.18750        0.06250        0.06250
 BRILLOUIN|   166           0.00391       -0.18750        0.06250        0.18750
 BRILLOUIN|   167           0.00391       -0.18750        0.06250        0.31250
 BRILLOUIN|   168           0.00391       -0.18750        0.06250        0.43750
 BRILLOUIN|   169           0.00391       -0.18750        0.18750       -0.43750
 BRILLOUIN|   170           0.00391       -0.18750        0.18750       -0.31250
 BRILLOUIN|   171           0.00391       -0.18750        0.18750       -0.18750
 BRILLOUIN|   172           0.00391       -0.18750        0.18750       -0.06250
 BRILLOUIN|   173           0.00391       -0.18750        0.18750        0.06250
 BRILLOUIN|   174           0.00391       -0.18750        0.18750        0.18750
 BRILLOUIN|   175           0.00391       -0.18750        0.18750        0.31250
 BRILLOUIN|   176           0.00391       -0.18750        0.18750        0.43750
 BRILLOUIN|   177           0.00391       -0.18750        0.31250       -0.43750
 BRILLOUIN|   178           0.00391       -0.18750        0.31250       -0.31250
 BRILLOUIN|   179           0.00391       -0.18750        0.31250       -0.18750
 BRILLOUIN|   180           0.00391       -0.18750        0.31250       -0.06250
 BRILLOUIN|   181           0.00391       -0.18750        0.31250        0.06250
 BRILLOUIN|   182           0.00391       -0.18750        0.31250        0.18750
 BRILLOUIN|   183           0.00391       -0.18750        0.31250        0.31250
 BRILLOUIN|   184           0.00391       -0.18750        0.31250        0.43750
 BRILLOUIN|   185           0.00391       -0.18750        0.43750       -0.43750
 BRILLOUIN|   186           0.00391       -0.18750        0.43750       -0.31250
 BRILLOUIN|   187           0.00391       -0.18750        0.43750       -0.18750
 BRILLOUIN|   188           0.00391       -0.18750        0.43750       -0.06250
 BRILLOUIN|   189           0.00391       -0.18750        0.43750        0.06250
 BRILLOUIN|   190           0.00391       -0.18750        0.43750        0.18750
 BRILLOUIN|   191           0.00391       -0.18750        0.43750        0.31250
 BRILLOUIN|   192           0.00391       -0.18750        0.43750        0.43750
 BRILLOUIN|   193           0.00391       -0.06250       -0.43750       -0.43750
 BRILLOUIN|   194           0.00391       -0.06250       -0.43750       -0.31250
 BRILLOUIN|   195           0.00391       -0.06250       -0.43750       -0.18750
 BRILLOUIN|   196           0.00391       -0.06250       -0.43750       -0.06250
 BRILLOUIN|   197           0.00391       -0.06250       -0.43750        0.06250
 BRILLOUIN|   198           0.00391       -0.06250       -0.43750        0.18750
 BRILLOUIN|   199           0.00391       -0.06250       -0.43750        0.31250
 BRILLOUIN|   200           0.00391       -0.06250       -0.43750        0.43750
 BRILLOUIN|   201           0.00391       -0.06250       -0.31250       -0.43750
 BRILLOUIN|   202           0.00391       -0.06250       -0.31250       -0.31250
 BRILLOUIN|   203           0.00391       -0.06250       -0.31250       -0.18750
 BRILLOUIN|   204           0.00391       -0.06250       -0.31250       -0.06250
 BRILLOUIN|   205           0.00391       -0.06250       -0.31250        0.06250
 BRILLOUIN|   206           0.00391       -0.06250       -0.31250        0.18750
 BRILLOUIN|   207           0.00391       -0.06250       -0.31250        0.31250
 BRILLOUIN|   208           0.00391       -0.06250       -0.31250        0.43750
 BRILLOUIN|   209           0.00391       -0.06250       -0.18750       -0.43750
 BRILLOUIN|   210           0.00391       -0.06250       -0.18750       -0.31250
 BRILLOUIN|   211           0.00391       -0.06250       -0.18750       -0.18750
 BRILLOUIN|   212           0.00391       -0.06250       -0.18750       -0.06250
 BRILLOUIN|   213           0.00391       -0.06250       -0.18750        0.06250
 BRILLOUIN|   214           0.00391       -0.06250       -0.18750        0.18750
 BRILLOUIN|   215           0.00391       -0.06250       -0.18750        0.31250
 BRILLOUIN|   216           0.00391       -0.06250       -0.18750        0.43750
 BRILLOUIN|   217           0.00391       -0.06250       -0.06250       -0.43750
 BRILLOUIN|   218           0.00391       -0.06250       -0.06250       -0.31250
 BRILLOUIN|   219           0.00391       -0.06250       -0.06250       -0.18750
 BRILLOUIN|   220           0.00391       -0.06250       -0.06250       -0.06250
 BRILLOUIN|   221           0.00391       -0.06250       -0.06250        0.06250
 BRILLOUIN|   222           0.00391       -0.06250       -0.06250        0.18750
 BRILLOUIN|   223           0.00391       -0.06250       -0.06250        0.31250
 BRILLOUIN|   224           0.00391       -0.06250       -0.06250        0.43750
 BRILLOUIN|   225           0.00391       -0.06250        0.06250       -0.43750
 BRILLOUIN|   226           0.00391       -0.06250        0.06250       -0.31250
 BRILLOUIN|   227           0.00391       -0.06250        0.06250       -0.18750
 BRILLOUIN|   228           0.00391       -0.06250        0.06250       -0.06250
 BRILLOUIN|   229           0.00391       -0.06250        0.06250        0.06250
 BRILLOUIN|   230           0.00391       -0.06250        0.06250        0.18750
 BRILLOUIN|   231           0.00391       -0.06250        0.06250        0.31250
 BRILLOUIN|   232           0.00391       -0.06250        0.06250        0.43750
 BRILLOUIN|   233           0.00391       -0.06250        0.18750       -0.43750
 BRILLOUIN|   234           0.00391       -0.06250        0.18750       -0.31250
 BRILLOUIN|   235           0.00391       -0.06250        0.18750       -0.18750
 BRILLOUIN|   236           0.00391       -0.06250        0.18750       -0.06250
 BRILLOUIN|   237           0.00391       -0.06250        0.18750        0.06250
 BRILLOUIN|   238           0.00391       -0.06250        0.18750        0.18750
 BRILLOUIN|   239           0.00391       -0.06250        0.18750        0.31250
 BRILLOUIN|   240           0.00391       -0.06250        0.18750        0.43750
 BRILLOUIN|   241           0.00391       -0.06250        0.31250       -0.43750
 BRILLOUIN|   242           0.00391       -0.06250        0.31250       -0.31250
 BRILLOUIN|   243           0.00391       -0.06250        0.31250       -0.18750
 BRILLOUIN|   244           0.00391       -0.06250        0.31250       -0.06250
 BRILLOUIN|   245           0.00391       -0.06250        0.31250        0.06250
 BRILLOUIN|   246           0.00391       -0.06250        0.31250        0.18750
 BRILLOUIN|   247           0.00391       -0.06250        0.31250        0.31250
 BRILLOUIN|   248           0.00391       -0.06250        0.31250        0.43750
 BRILLOUIN|   249           0.00391       -0.06250        0.43750       -0.43750
 BRILLOUIN|   250           0.00391       -0.06250        0.43750       -0.31250
 BRILLOUIN|   251           0.00391       -0.06250        0.43750       -0.18750
 BRILLOUIN|   252           0.00391       -0.06250        0.43750       -0.06250
 BRILLOUIN|   253           0.00391       -0.06250        0.43750        0.06250
 BRILLOUIN|   254           0.00391       -0.06250        0.43750        0.18750
 BRILLOUIN|   255           0.00391       -0.06250        0.43750        0.31250
 BRILLOUIN|   256           0.00391       -0.06250        0.43750        0.43750
 *******************************************************************************

 *******************************************************************************
 *******************************************************************************
 **                                                                           **
 **     #####                         ##              ##                      **
 **    ##   ##            ##          ##              ##                      **
 **   ##     ##                       ##            ######                    **
 **   ##     ##  ##   ##  ##   #####  ##  ##   ####   ##    #####    #####    **
 **   ##     ##  ##   ##  ##  ##      ## ##   ##      ##   ##   ##  ##   ##   **
 **   ##  ## ##  ##   ##  ##  ##      ####     ###    ##   ######   ######    **
 **    ##  ###   ##   ##  ##  ##      ## ##      ##   ##   ##       ##        **
 **     #######   #####   ##   #####  ##  ##  ####    ##    #####   ##        **
 **           ##                                                    ##        **
 **                                                                           **
 **                                                ... make the atoms dance   **
 **                                                                           **
 **            Copyright (C) by CP2K developers group (2000-2025)             **
 **                      J. Chem. Phys. 152, 194103 (2020)                    **
 **                                                                           **
 *******************************************************************************

 DFT| Spin restricted Kohn-Sham (RKS) calculation                            RKS
 DFT| Multiplicity                                                             1
 DFT| Number of spin states                                                    1
 DFT| Charge                                                                   0
 DFT| Self-interaction correction (SIC)                                       NO
 DFT| Cutoffs: density                                              1.000000E-10
 DFT|          gradient                                             1.000000E-10
 DFT|          tau                                                  1.000000E-10
 DFT|          cutoff_smoothing_range                               0.000000E+00
 DFT| XC density smoothing                                                  NONE
 DFT| XC derivatives                                                          PW

 FUNCTIONAL| PBE:
 FUNCTIONAL| J.P.Perdew, K.Burke, M.Ernzerhof, Phys. Rev. Letter, vol. 77, n 18,
 FUNCTIONAL|  pp. 3865-3868, (1996) {spin unpolarized}                          


 QS| Method:                                                                 GPW
 QS| Density plane wave grid type                        NON-SPHERICAL FULLSPACE
 QS| Number of grid levels:                                                    4
 QS| Density cutoff [a.u.]:                                                500.0
 QS| Multi grid cutoff [a.u.]: 1) grid level                               500.0
 QS|                           2) grid level                               166.7
 QS|                           3) grid level                                55.6
 QS|                           4) grid level                                18.5
 QS| Grid level progression factor:                                          3.0
 QS| Relative density cutoff [a.u.]:                                        50.0
 QS| Interaction thresholds: eps_pgf_orb:                                1.0E-16
 QS|                         eps_filter_matrix:                          0.0E+00
 QS|                         eps_core_charge:                            1.0E-18
 QS|                         eps_rho_gspace:                             1.0E-16
 QS|                         eps_rho_rspace:                             1.0E-16
 QS|                         eps_gvg_rspace:                             1.0E-08
 QS|                         eps_ppl:                                    1.0E-02
 QS|                         eps_ppnl:                                   1.0E-10


 ATOMIC KIND INFORMATION

  1. Atomic kind: Rb                                    Number of atoms:       2

     Orbital Basis Set                                 aug-SZV-MOLOPT-GTH-tier-1

       Number of orbital shell sets:                                           1
       Number of orbital shells:                                               6
       Number of primitive Cartesian functions:                                8
       Number of Cartesian basis functions:                                   15
       Number of spherical basis functions:                                   14
       Norm type:                                                              2

       Normalised Cartesian orbitals:

                        Set   Shell   Orbital            Exponent    Coefficient

                          1       1    2s                0.029773       0.001349
                                                         0.048344       0.000000
                                                         0.078497       0.000274
                                                         0.198690      -0.067875
                                                         0.483816      -0.360023
                                                         1.134628      -0.083982
                                                         2.414406       0.709693
                                                         7.107231      -0.203041

                          1       2    3s                0.029773       0.045840
                                                         0.048344       0.000000
                                                         0.078497       0.036216
                                                         0.198690      -0.063806
                                                         0.483816      -0.132509
                                                         1.134628      -0.035782
                                                         2.414406       0.186778
                                                         7.107231      -0.045315

                          1       3    4s                0.029773      -0.007733
                                                         0.048344       0.047611
                                                         0.078497       0.016457
                                                         0.198690       0.072300
                                                         0.483816       0.016723
                                                         1.134628       0.045782
                                                         2.414406       0.000000
                                                         7.107231       0.000000

                          1       4    3px               0.029773      -0.000011
                                                         0.048344       0.000000
                                                         0.078497       0.002696
                                                         0.198690       0.066083
                                                         0.483816       0.327463
                                                         1.134628       0.402330
                                                         2.414406      -0.789357
                                                         7.107231       0.672860
                          1       4    3py               0.029773      -0.000011
                                                         0.048344       0.000000
                                                         0.078497       0.002696
                                                         0.198690       0.066083
                                                         0.483816       0.327463
                                                         1.134628       0.402330
                                                         2.414406      -0.789357
                                                         7.107231       0.672860
                          1       4    3pz               0.029773      -0.000011
                                                         0.048344       0.000000
                                                         0.078497       0.002696
                                                         0.198690       0.066083
                                                         0.483816       0.327463
                                                         1.134628       0.402330
                                                         2.414406      -0.789357
                                                         7.107231       0.672860

                          1       5    4px               0.029773       0.000023
                                                         0.048344       0.033695
                                                         0.078497      -0.002913
                                                         0.198690       0.000494
                                                         0.483816       0.001152
                                                         1.134628      -0.006602
                                                         2.414406       0.000000
                                                         7.107231       0.000000
                          1       5    4py               0.029773       0.000023
                                                         0.048344       0.033695
                                                         0.078497      -0.002913
                                                         0.198690       0.000494
                                                         0.483816       0.001152
                                                         1.134628      -0.006602
                                                         2.414406       0.000000
                                                         7.107231       0.000000
                          1       5    4pz               0.029773       0.000023
                                                         0.048344       0.033695
                                                         0.078497      -0.002913
                                                         0.198690       0.000494
                                                         0.483816       0.001152
                                                         1.134628      -0.006602
                                                         2.414406       0.000000
                                                         7.107231       0.000000

                          1       6    4dx2              0.029773       0.001004
                                                         0.048344       0.002299
                                                         0.078497       0.005562
                                                         0.198690       0.024930
                                                         0.483816       0.040682
                                                         1.134628       0.088802
                                                         2.414406       0.000000
                                                         7.107231       0.000000
                          1       6    4dxy              0.029773       0.001740
                                                         0.048344       0.003982
                                                         0.078497       0.009633
                                                         0.198690       0.043181
                                                         0.483816       0.070463
                                                         1.134628       0.153810
                                                         2.414406       0.000000
                                                         7.107231       0.000000
                          1       6    4dxz              0.029773       0.001740
                                                         0.048344       0.003982
                                                         0.078497       0.009633
                                                         0.198690       0.043181
                                                         0.483816       0.070463
                                                         1.134628       0.153810
                                                         2.414406       0.000000
                                                         7.107231       0.000000
                          1       6    4dy2              0.029773       0.001004
                                                         0.048344       0.002299
                                                         0.078497       0.005562
                                                         0.198690       0.024930
                                                         0.483816       0.040682
                                                         1.134628       0.088802
                                                         2.414406       0.000000
                                                         7.107231       0.000000
                          1       6    4dyz              0.029773       0.001740
                                                         0.048344       0.003982
                                                         0.078497       0.009633
                                                         0.198690       0.043181
                                                         0.483816       0.070463
                                                         1.134628       0.153810
                                                         2.414406       0.000000
                                                         7.107231       0.000000
                          1       6    4dz2              0.029773       0.001004
                                                         0.048344       0.002299
                                                         0.078497       0.005562
                                                         0.198690       0.024930
                                                         0.483816       0.040682
                                                         1.134628       0.088802
                                                         2.414406       0.000000
                                                         7.107231       0.000000

       Atomic covalent radius [Angstrom]:                                  2.160

       Atomic van der Waals radius [Angstrom]:                             3.030

     GTH Potential information for                                       GTH-PBE

       Description:                       Goedecker-Teter-Hutter pseudopotential
                                           Goedecker et al., PRB 54, 1703 (1996)
                                          Hartwigsen et al., PRB 58, 3641 (1998)
                                                      Krack, TCA 114, 145 (2005)

       Gaussian exponent of the core charge distribution:               2.082466
       Electronic configuration (s p d ...):                               3   6

       Parameters of the local part of the GTH pseudopotential:

                          rloc        C1          C2          C3          C4
                        0.490000    5.669086   -0.811627

       Parameters of the non-local part of the GTH (SOC) pseudopotential:

                   l      r(l)      h(i,j,l)
                                    k(i,j,l)
                   0    0.281803   21.390732   -8.078667
                                   -8.078667   10.429514
                   1    0.285708   12.256349  -12.198541
                                  -12.198541   14.433508
                                    1.411802   -2.614532
                                   -2.614532    3.093556
                   2    0.541797    0.345666
                                    0.006960


 MOLECULE KIND INFORMATION


 All atoms are their own molecule, skipping detailed information


 TOTAL NUMBERS AND MAXIMUM NUMBERS

  Total number of            - Atomic kinds:                                   1
                             - Atoms:                                          2
                             - Shell sets:                                     2
                             - Shells:                                        12
                             - Primitive Cartesian functions:                 16
                             - Cartesian basis functions:                     30
                             - Spherical basis functions:                     28

  Maximum angular momentum of- Orbital basis functions:                        2
                             - Local part of the GTH pseudopotential:          2
                             - Non-local part of the GTH pseudopotential:      3


 MODULE QUICKSTEP: ATOMIC COORDINATES IN ANGSTROM

   Atom Kind Element         X             Y             Z       Z(eff)     Mass
      1    1 Rb   37      0.000000      0.000000      0.000000   9.0000  85.4678
      2    1 Rb   37      2.835985      2.835985      2.835985   9.0000  85.4678



 SCF PARAMETERS         Density guess:                                    ATOMIC
                        --------------------------------------------------------
                        max_scf:                                             500
                        max_scf_history:                                       0
                        max_diis:                                              4
                        --------------------------------------------------------
                        eps_scf:                                        1.00E-09
                        eps_scf_history:                                0.00E+00
                        eps_diis:                                       1.00E-01
                        eps_eigval:                                     1.00E-05
                        --------------------------------------------------------
                        level_shift [a.u.]:                             0.000000
                        added MOs                                        19    0
                        --------------------------------------------------------
                        Mixing method:                            BROYDEN_MIXING
                                                charge density mixing in g-space
                        --------------------------------------------------------
                        Smear method:                                FERMI_DIRAC
                        Electronic temperature [K]:                        300.0
                        Electronic temperature [a.u.]:                  9.50E-04
                        Accuracy threshold:                             1.00E-10
                        --------------------------------------------------------
                        No outer SCF

 PW_GRID| Information for grid number                                          1
 PW_GRID| Grid distributed over                                     8 processors
 PW_GRID| Real space group dimensions                                     8    1
 PW_GRID| the grid is blocked:                                                NO
 PW_GRID| Cutoff [a.u.]                                                    500.0
 PW_GRID| spherical cutoff:                                                   NO
 PW_GRID|   Bounds   1            -54      53                Points:         108
 PW_GRID|   Bounds   2            -54      53                Points:         108
 PW_GRID|   Bounds   3            -54      53                Points:         108
 PW_GRID| Volume element (a.u.^3)  0.9775E-03     Volume (a.u.^3)      1231.3978
 PW_GRID| Grid span                                                    FULLSPACE
 PW_GRID|   Distribution                         Average         Max         Min
 PW_GRID|   G-Vectors                           157464.0      157464      157464
 PW_GRID|   G-Rays                                1458.0        1458        1458
 PW_GRID|   Real Space Points                   157464.0      163296      151632

 PW_GRID| Information for grid number                                          2
 PW_GRID| Number of the reference grid                                         1
 PW_GRID| Grid distributed over                                     8 processors
 PW_GRID| Real space group dimensions                                     8    1
 PW_GRID| the grid is blocked:                                                NO
 PW_GRID| Cutoff [a.u.]                                                    166.7
 PW_GRID| spherical cutoff:                                                   NO
 PW_GRID|   Bounds   1            -32      31                Points:          64
 PW_GRID|   Bounds   2            -32      31                Points:          64
 PW_GRID|   Bounds   3            -32      31                Points:          64
 PW_GRID| Volume element (a.u.^3)  0.4697E-02     Volume (a.u.^3)      1231.3978
 PW_GRID| Grid span                                                    FULLSPACE
 PW_GRID|   Distribution                         Average         Max         Min
 PW_GRID|   G-Vectors                            32768.0       32832       32704
 PW_GRID|   G-Rays                                 512.0         513         511
 PW_GRID|   Real Space Points                    32768.0       32768       32768

 PW_GRID| Information for grid number                                          3
 PW_GRID| Number of the reference grid                                         1
 PW_GRID| Grid distributed over                                     8 processors
 PW_GRID| Real space group dimensions                                     8    1
 PW_GRID| the grid is blocked:                                                NO
 PW_GRID| Cutoff [a.u.]                                                     55.6
 PW_GRID| spherical cutoff:                                                   NO
 PW_GRID|   Bounds   1            -18      17                Points:          36
 PW_GRID|   Bounds   2            -18      17                Points:          36
 PW_GRID|   Bounds   3            -18      17                Points:          36
 PW_GRID| Volume element (a.u.^3)  0.2639E-01     Volume (a.u.^3)      1231.3978
 PW_GRID| Grid span                                                    FULLSPACE
 PW_GRID|   Distribution                         Average         Max         Min
 PW_GRID|   G-Vectors                             5832.0        5904        5796
 PW_GRID|   G-Rays                                 162.0         164         161
 PW_GRID|   Real Space Points                     5832.0        6480        5184

 PW_GRID| Information for grid number                                          4
 PW_GRID| Number of the reference grid                                         1
 PW_GRID| Grid distributed over                                     8 processors
 PW_GRID| Real space group dimensions                                     8    1
 PW_GRID| the grid is blocked:                                                NO
 PW_GRID| Cutoff [a.u.]                                                     18.5
 PW_GRID| spherical cutoff:                                                   NO
 PW_GRID|   Bounds   1            -12      11                Points:          24
 PW_GRID|   Bounds   2            -12      11                Points:          24
 PW_GRID|   Bounds   3            -12      11                Points:          24
 PW_GRID| Volume element (a.u.^3)  0.8908E-01     Volume (a.u.^3)      1231.3978
 PW_GRID| Grid span                                                    FULLSPACE
 PW_GRID|   Distribution                         Average         Max         Min
 PW_GRID|   G-Vectors                             1728.0        1800        1680
 PW_GRID|   G-Rays                                  72.0          75          70
 PW_GRID|   Real Space Points                     1728.0        1728        1728

 POISSON| Solver                                                        PERIODIC
 POISSON| Periodicity                                                        XYZ

 RS_GRID| Information for grid number                                          1
 RS_GRID|   Bounds   1            -54      53                Points:         108
 RS_GRID|   Bounds   2            -54      53                Points:         108
 RS_GRID|   Bounds   3            -54      53                Points:         108
 RS_GRID| Real space fully replicated
 RS_GRID| Group size                                                           1

 RS_GRID| Information for grid number                                          2
 RS_GRID|   Bounds   1            -32      31                Points:          64
 RS_GRID|   Bounds   2            -32      31                Points:          64
 RS_GRID|   Bounds   3            -32      31                Points:          64
 RS_GRID| Real space fully replicated
 RS_GRID| Group size                                                           1

 RS_GRID| Information for grid number                                          3
 RS_GRID|   Bounds   1            -18      17                Points:          36
 RS_GRID|   Bounds   2            -18      17                Points:          36
 RS_GRID|   Bounds   3            -18      17                Points:          36
 RS_GRID| Real space fully replicated
 RS_GRID| Group size                                                           1

 RS_GRID| Information for grid number                                          4
 RS_GRID|   Bounds   1            -12      11                Points:          24
 RS_GRID|   Bounds   2            -12      11                Points:          24
 RS_GRID|   Bounds   3            -12      11                Points:          24
 RS_GRID| Real space fully replicated
 RS_GRID| Group size                                                           1

 Number of electrons:                                                         18
 Number of occupied orbitals:                                                  9
 Number of molecular orbitals:                                                28

 Number of orbital functions:                                                 28
 Number of independent orbital functions:                                     28

 Extrapolation method: initial_guess

 Atomic guess: The first density matrix is obtained in terms of atomic orbitals
               and electronic configurations assigned to each atomic kind

 Guess for atomic kind: Rb

 Electronic structure
    Total number of core electrons                                         28.00
    Total number of valence electrons                                       9.00
    Total number of electrons                                              37.00
    Multiplicity                                                   not specified
    S   [  2.00  2.00  2.00] 2.00  1.00
    P   [  6.00  6.00] 6.00
    D   [ 10.00]


 *******************************************************************************
                  Iteration          Convergence                     Energy [au]
 *******************************************************************************
                          1        0.240274                     -23.922493616612
                          2        0.523331E-01                 -23.938068422005
                          3        0.780896E-03                 -23.938744955290
                          4        0.351942E-05                 -23.938745107661
                          5        0.182043E-08                 -23.938745107664

 Energy components [Hartree]           Total Energy ::          -23.938745107664
                                        Band Energy ::           -5.739682717858
                                     Kinetic Energy ::            7.488828492878
                                   Potential Energy ::          -31.427573600542
                                      Virial (-V/T) ::            4.196594117549
                                        Core Energy ::          -39.657675956732
                                          XC Energy ::           -3.585864819452
                                     Coulomb Energy ::           19.304795668520
                       Total Pseudopotential Energy ::          -47.185719653841
                       Local Pseudopotential Energy ::          -49.099078162073
                    Nonlocal Pseudopotential Energy ::            1.913358508232
                                        Confinement ::            0.392152042307

 Orbital energies  State     L     Occupation   Energy[a.u.]          Energy[eV]

                       1     0          2.000      -1.148188          -31.243792
                       2     0          1.000      -0.058779           -1.599451

                       1     1          6.000      -0.564088          -15.349612


 Total Electron Density at R=0:                                         0.000052
 Re-scaling the density matrix to get the right number of electrons
                  # Electrons              Trace(P)               Scaling factor
                           18                18.000                        1.000


 SCF WAVEFUNCTION OPTIMIZATION

  Step     Update method      Time    Convergence         Total energy    Change
  ------------------------------------------------------------------------------
     1 NoMix/Diag. 0.10E+00    4.1     0.65100127       -48.2209499880 -4.82E+01
     2 Broy./Diag. 0.10E+00    4.5     0.00048266       -48.2415497618 -2.06E-02
     3 Broy./Diag. 0.10E+00    4.5     0.01029570       -48.2465494049 -5.00E-03
     4 Broy./Diag. 0.10E+00    4.5     0.00031300       -48.2339901231  1.26E-02
     5 Broy./Diag. 0.10E+00    4.5     0.00229616       -48.2349264635 -9.36E-04
     6 Broy./Diag. 0.10E+00    4.5     0.00009149       -48.2244875216  1.04E-02
     7 Broy./Diag. 0.10E+00    4.5     0.00066057       -48.2110647724  1.34E-02
     8 Broy./Diag. 0.10E+00    4.5     0.00001065       -48.2079575881  3.11E-03
     9 Broy./Diag. 0.10E+00    4.6     0.00007223       -48.2061820755  1.78E-03
    10 Broy./Diag. 0.10E+00    4.5     0.00000137       -48.2059050647  2.77E-04
    11 Broy./Diag. 0.10E+00    4.5     0.00001279       -48.2060539866 -1.49E-04
    12 Broy./Diag. 0.10E+00    4.5     0.00000046       -48.2060193763  3.46E-05
    13 Broy./Diag. 0.10E+00    4.5     0.00000471       -48.2060269115 -7.54E-06
    14 Broy./Diag. 0.10E+00    4.5     0.00000006       -48.2060236967  3.21E-06
    15 Broy./Diag. 0.10E+00    4.5     0.00000040       -48.2060105660  1.31E-05
    16 Broy./Diag. 0.10E+00    4.6     0.00000019       -48.2060085624  2.00E-06
    17 Broy./Diag. 0.10E+00    4.5     0.00000038       -48.2060074688  1.09E-06
    18 Broy./Diag. 0.10E+00    4.5     0.00000003       -48.2060057885  1.68E-06
    19 Broy./Diag. 0.10E+00    4.5     0.00000003       -48.2060047626  1.03E-06
    20 Broy./Diag. 0.10E+00    4.6     5.0583E-09       -48.2060048580 -9.54E-08
    21 Broy./Diag. 0.10E+00    4.5     0.00000002       -48.2060051204 -2.62E-07
    22 Broy./Diag. 0.10E+00    4.5     0.00000001       -48.2060054088 -2.88E-07
    23 Broy./Diag. 0.10E+00    4.6     4.6324E-09       -48.2060055439 -1.35E-07
    24 Broy./Diag. 0.10E+00    4.5     5.7350E-10       -48.2060055647 -2.08E-08

  *** SCF run converged in    24 steps ***


  Electronic density on regular grids:        -18.0000000000       -0.0000000000
  Core density on regular grids:               18.0000000000        0.0000000000
  Total charge density on r-space grids:       -0.0000000000
  Total charge density g-space grids:          -0.0000000000

  Overlap energy of the core charge distribution:               0.00000000000000
  Self energy of the core charge distribution:                -93.26399238238422
  Core Hamiltonian energy:                                     20.60774083688409
  Hartree energy:                                              31.85493261577675
  Exchange-correlation energy:                                 -7.40451735446956
  Electronic entropic energy:                                  -0.00016928047413
  Fermi energy:                                                 0.05154142349149

  Total energy:                                               -48.20600556466722

 !-----------------------------------------------------------------------------!
                     Mulliken Population Analysis

 #  Atom  Element  Kind  Atomic population                           Net charge
       1     Rb       1          9.000000                              0.000000
       2     Rb       1          9.000000                              0.000000
 # Total charge                             18.000000                  0.000000

 !-----------------------------------------------------------------------------!

 !-----------------------------------------------------------------------------!
                           Hirshfeld Charges

  #Atom  Element  Kind  Ref Charge     Population                    Net charge
      1       Rb     1       9.000          9.000                         0.000
      2       Rb     1       9.000          9.000                         0.000

  Total Charge                                                            0.000
 !-----------------------------------------------------------------------------!

 KPOINTS| Band Structure Calculation
 KPOINTS| Number of k-point sets                                               1
 KPOINTS| Number of added MOs/bands                                           -1
 KPOINTS| Number of k-points in set    1                                     148
 KPOINTS| In units of b-vector [2pi/Bohr]
 KPOINTS| Special point     1 not specifi     0.000000     0.000000     0.000000
 KPOINTS| Special point     2 not specifi     0.500000    -0.500000     0.500000
 KPOINTS| Special point     3 not specifi     0.000000     0.000000     0.500000
 KPOINTS| Special point     4 not specifi     0.000000     0.000000     0.000000
 KPOINTS| Time for k-point line                                            1.488

 ENERGY| Total FORCE_EVAL ( QS ) energy [hartree]            -48.206005564667223

 -------------------------------------------------------------------------------
 -                                                                             -
 -                                DBCSR STATISTICS                             -
 -                                                                             -
 -------------------------------------------------------------------------------
 COUNTER                                    TOTAL       BLAS       SMM       ACC
 flops inhomo. stacks                           0       0.0%      0.0%      0.0%
 flops total                         0.000000E+00       0.0%      0.0%      0.0%
 flops max/rank                      0.000000E+00       0.0%      0.0%      0.0%
 matmuls inhomo. stacks                         0       0.0%      0.0%      0.0%
 matmuls total                                  0       0.0%      0.0%      0.0%
 number of processed stacks                     0       0.0%      0.0%      0.0%
 average stack size                                     0.0       0.0       0.0
 marketing flops                     0.000000E+00
 -------------------------------------------------------------------------------
 -                                                                             -
 -                      DBCSR MESSAGE PASSING PERFORMANCE                      -
 -                                                                             -
 -------------------------------------------------------------------------------
 ROUTINE             CALLS      AVE VOLUME [Bytes]
 MP_Bcast                1                     12.
 MP_Allreduce           19                     21.
 MP_Alltoall        546104                   1418.
 -------------------------------------------------------------------------------

 -------------------------------------------------------------------------------
 -                                                                             -
 -                                DBM STATISTICS                               -
 -                                                                             -
 -------------------------------------------------------------------------------
    M  x    N  x    K                                          COUNT     PERCENT
 -------------------------------------------------------------------------------

 -------------------------------------------------------------------------------
 -                                                                             -
 -                                GRID STATISTICS                              -
 -                                                                             -
 -------------------------------------------------------------------------------
 LP    KERNEL             BACKEND                              COUNT     PERCENT
 4     collocate ortho    CPU                                 543900      51.02%
 4     integrate ortho    CPU                                 522144      48.98%
 0     collocate general  CPU                                      4       0.00%
 0     integrate general  CPU                                      2       0.00%
 -------------------------------------------------------------------------------

 MEMORY| Estimated peak process memory [MiB]                                 477

 -------------------------------------------------------------------------------
 ----                             MULTIGRID INFO                            ----
 -------------------------------------------------------------------------------
 count for grid        1:          23236          cutoff [a.u.]          500.00
 count for grid        2:          30590          cutoff [a.u.]          166.67
 count for grid        3:          15928          cutoff [a.u.]           55.56
 count for grid        4:          42906          cutoff [a.u.]           18.52
 total gridlevel count  :         112660

 -------------------------------------------------------------------------------
 -                                                                             -
 -                         MESSAGE PASSING PERFORMANCE                         -
 -                                                                             -
 -------------------------------------------------------------------------------

 ROUTINE             CALLS      AVE VOLUME [Bytes]
 MP_Group                6
 MP_Bcast           224935                   2218.
 MP_Allreduce        97741                     25.
 MP_Sync                 4
 MP_Alltoall           437                7103907.
 MP_SendRecv           714                 426148.
 MP_ISendRecv          679                 417800.
 MP_Wait            155259
 MP_comm_split           4
 MP_ISend           164684                    190.
 MP_IRecv           262784                    121.
 -------------------------------------------------------------------------------


 -------------------------------------------------------------------------------
 -                                                                             -
 -                           R E F E R E N C E S                               -
 -                                                                             -
 -------------------------------------------------------------------------------
 
 CP2K version 2025.1 (Development Version), the CP2K developers group (2025).
 CP2K is freely available from https://www.cp2k.org/ .
 
 T. D. Kuehne, M. Iannuzzi, M. Del Ben, V. V. Rybkin, P. Seewald, F. Stein, T. 
 Laino, R. Z. Khaliullin, O. Schuett, F. Schiffmann, D. Golze, J. Wilhelm, S. 
 Chulkov, M. H. Bani-Hashemian, V. Weber, U. Borstnik, M. Taillefumier, A. S. 
 Jakobovits, A. Lazzaro, H. Pabst, T. Mueller, R. Schade, M. Guidon, S. 
 Andermatt, N. Holmberg, G. K. Schenter, A. Hehn, A. Bussy, F. Belleflamme, G. 
 Tabacchi, A. Gloess, M. Lass, I. Bethune, C. J. Mundy, C. Plessl, M. Watkins, 
 J. VandeVondele, M. Krack, J. Hutter.
 J. Chem. Phys. 152, 194103 (2020).
 CP2K: An electronic structure and molecular dynamics software package - 
 Quickstep: Efficient and accurate electronic structure calculations.
 https://doi.org/10.1063/5.0007045

 O. Schuett, P. Messmer, J. Hutter, J. VandeVondele.
 Electronic Structure Calculations on Graphics Processing Units, 173-190 (2016).
 GPU-Accelerated Sparse Matrix-Matrix Multiplication for Linear Scaling Density 
 Functional Theory.
 https://doi.org/10.1002/9781118670712.ch8

 J. Hutter, M. Iannuzzi, F. Schiffmann, J. VandeVondele.
 WIREs Comput Mol Sci. 4, 15-25 (2014).
 CP2K: atomistic simulations of condensed matter systems.
 https://doi.org/10.1002/wcms.1159

 U. Borstnik, J. VandeVondele, V. Weber, J. Hutter.
 Parallel Comput. 40, 47-58 (2014).
 Sparse matrix multiplication: The distributed block-compressed sparse row 
 library.
 https://doi.org/10.1016/j.parco.2014.03.012

 J. VandeVondele, J. Hutter.
 J. Chem. Phys. 127, 114105 (2007).
 Gaussian basis sets for accurate calculations on molecular systems in gas and 
 condensed phases.
 https://doi.org/10.1063/1.2770708

 J. VandeVondele, M. Krack, F. Mohamed, M. Parrinello, T. Chassaing, J. Hutter.
 Comput. Phys. Commun. 167, 103-128 (2005).
 QUICKSTEP: Fast and accurate density functional calculations using a mixed 
 Gaussian and plane waves approach.
 https://doi.org/10.1016/j.cpc.2004.12.014

 M. Krack.
 Theor. Chem. Acc. 114, 145-152 (2005).
 Pseudopotentials for H to Kr optimized for gradient-corrected 
 exchange-correlation functionals.
 https://doi.org/10.1007/s00214-005-0655-y

 M. Frigo, S. G. Johnson.
 Proc. IEEE 93, 216-231 (2005).
 The design and implementation of FFTW3.
 https://doi.org/10.1109/JPROC.2004.840301

 C. Hartwigsen, S. Goedecker, J. Hutter.
 Phys. Rev. B 58, 3641-3662 (1998).
 Relativistic separable dual-space Gaussian pseudopotentials from H to Rn.
 https://doi.org/10.1103/PhysRevB.58.3641

 G. Lippert, J. Hutter, M. Parrinello.
 Mol. Phys. 92, 477-487 (1997).
 A hybrid Gaussian and plane wave density functional scheme.
 https://doi.org/10.1080/002689797170220

 S. Goedecker, M. Teter, J. Hutter.
 Phys. Rev. B 54, 1703-1710 (1996).
 Separable dual-space Gaussian pseudopotentials.
 https://doi.org/10.1103/PhysRevB.54.1703

 J. P. Perdew, K. Burke, M. Ernzerhof.
 Phys. Rev. Lett. 77, 3865-3868 (1996).
 Generalized gradient approximation made simple.
 https://doi.org/10.1103/PhysRevLett.77.3865


 -------------------------------------------------------------------------------
 -                                                                             -
 -                                T I M I N G                                  -
 -                                                                             -
 -------------------------------------------------------------------------------
 SUBROUTINE                       CALLS  ASD         SELF TIME        TOTAL TIME
                                MAXIMUM       AVERAGE  MAXIMUM  AVERAGE  MAXIMUM
 CP2K                                 1  1.0    0.015    0.018  114.371  114.372
 qs_energies                          1  2.0    0.017    0.099  114.090  114.137
 scf_env_do_scf                       1  3.0    0.000    0.000  110.685  110.685
 scf_env_do_scf_inner_loop           24  4.0    0.028    0.031  110.685  110.685
 do_general_diag_kp                  25  5.9    0.131    0.149   93.223   96.449
 qs_scf_new_mos_kp                   24  5.0    0.000    0.000   91.844   95.065
 mp_alltoall_i22                  93164  8.7   62.755   77.200   62.755   77.200
 dbcsr_desymmetrize_deep          53022  7.4    0.754    0.846   51.276   62.077
 rskp_transform                   12584  6.9    7.451   39.742    7.451   39.742
 dbcsr_complete_redistribute      40142  8.2    1.178    1.346   26.057   29.706
 kpoint_density_transform            24  7.0    0.061    0.071   22.851   22.912
 copy_fm_to_dbcsr                 12288  8.0    0.069    0.077   18.301   21.768
 qs_ks_update_qs_env                 24  5.0    0.000    0.000    5.592   19.607
 rebuild_ks_matrix                   24  6.0    0.000    0.000    4.737   18.752
 qs_ks_build_kohn_sham_matrix        24  7.0    0.053    0.055    4.737   18.752
 transform_dmat                    6144  8.0    3.474   18.596    3.474   18.596
 sum_up_and_integrate                24  8.0    0.000    0.000    3.601   17.594
 integrate_v_rspace                  24  9.0    0.017    0.085    3.599   17.593
 grid_integrate_task_list            24 10.0    3.219   17.166    3.219   17.166
 copy_dbcsr_to_fm                 27854  6.8    0.265    0.286   12.508   12.673
 transfer_rs2pw                     102  8.0    0.001    0.002    8.758   10.753
 transfer_rs2pw_500                  27  8.9    0.115    0.124    8.686   10.679
 mp_sendrecv_dv                     714 10.0    8.612   10.609    8.612   10.609
 qs_rho_update_rho_low               25  5.0    0.000    0.000   10.546   10.557
 calculate_rho_elec                  25  6.0    0.030    0.038   10.545   10.557
 density_rs2pw                       25  7.0    0.001    0.001    8.425   10.306
 grid_collocate_task_list            25  7.0    2.087    9.976    2.087    9.976
 dbcsr_finalize                  114944  8.2    0.445    0.460    3.075    3.266
 cp_fm_start_copy_general         37456  7.3    0.415    0.665    2.770    2.813
 mp_alltoall_d11v                279492  9.3    2.468    2.626    2.468    2.626
 mp_cart_sub                      55710  8.8    2.262    2.277    2.262    2.277
 dbcsr_merge_all                  40142 10.2    1.107    1.325    1.733    1.931
 write_kpoints_restart               24  5.0    0.010    0.014    1.750    1.751
 hybrid_alltoall_any              53022  8.4    0.202    0.219    1.637    1.743
 mp_alltoall_i11v                173448  9.0    1.589    1.626    1.589    1.626
 mp_cart_create                   27861  8.8    1.220    1.264    1.220    1.264
 mp_allgather_i                   74912  8.3    1.064    1.143    1.064    1.143
 dbcsr_dot                        64465  8.0    0.255    0.314    1.033    1.087
 fft_wrap_pw1pw2                    437 10.0    0.004    0.005    1.002    1.023
 cp_dbcsr_alloc_block_from_nbl     9547  5.0    0.201    0.967    0.219    1.017
 mp_bcast_iv                     149850  8.3    0.879    1.012    0.879    1.012
 fft_wrap_pw1pw2_500                290 11.3    0.076    0.078    0.929    0.952
 qs_energies_init_hamiltonians        1  3.0    0.000    0.000    0.908    0.908
 dbcsr_create_new                207343  7.9    0.709    0.742    0.853    0.896
 mp_sum_d                         65075  8.9    0.759    0.876    0.759    0.876
 dbcsr_work_create                93164  8.7    0.549    0.566    0.800    0.875
 evaluate_core_matrix_traces         24  6.0    0.000    0.000    0.854    0.854
 calculate_ptrace_kp                 48  7.0    0.046    0.048    0.854    0.854
 fft3d_ps                           437 12.0    0.342    0.353    0.794    0.814
 dbcsr_copy                       78095  6.9    0.361    0.394    0.637    0.786
 dbcsr_iterator_start            351774  8.8    0.637    0.664    0.729    0.750
 init_scf_run                         1  3.0    0.000    0.000    0.686    0.739
 scf_env_initial_rho_setup            1  4.0    0.000    0.000    0.686    0.739
 qs_vxc_create                       24  8.0    0.000    0.000    0.708    0.709
 xc_vxc_pw_create                    24  9.0    0.029    0.030    0.707    0.709
 build_core_hamiltonian_matrix        1  4.0    0.005    0.005    0.185    0.677
 dbcsr_work_destroy_all           93164  9.7    0.434    0.446    0.653    0.663
 qs_env_update_s_mstruct              1  4.0    0.000    0.000    0.564    0.649
 calculate_rho_core                   1  5.0    0.002    0.002    0.517    0.636
 gspace_mixing                       23  5.0    0.026    0.027    0.600    0.600
 dbcsr_data_new                 1011622  9.6    0.446    0.595    0.446    0.595
 copy_dbcsr_to_fm_bc              27854  7.8    0.255    0.265    0.578    0.589
 cp_fm_write_unformatted           2686  6.0    0.497    0.555    0.501    0.572
 tree_to_linear_d                 40142 11.2    0.467    0.554    0.467    0.554
 copy_fm_to_dbcsr_bc              12288  9.0    0.151    0.164    0.504    0.542
 self_consistency_check              24  5.0    0.045    0.046    0.511    0.525
 broyden_mixing                      23  6.0    0.478    0.485    0.491    0.493
 dbcsr_iterator_stop             351774  8.8    0.409    0.414    0.482    0.490
 dbcsr_data_release             1469440 10.0    0.465    0.477    0.465    0.477
 xc_pw_derive                       144 11.0    0.001    0.001    0.446    0.454
 cp_sm_mix                        32232  6.0    0.080    0.119    0.423    0.440
 cp_cfm_geeig_canon                 805  6.9    0.005    0.005    0.420    0.432
 mp_alltoall_z22v                   437 14.0    0.392    0.417    0.392    0.417
 dbcsr_destroy                   142879  7.9    0.227    0.242    0.389    0.411
 cp_cfm_heevd                      1610  7.9    0.002    0.002    0.389    0.400
 cp_cfm_heevd_base                 1610  8.9    0.388    0.398    0.388    0.398
 xc_rho_set_and_dset_create          24 10.0    0.019    0.021    0.386    0.393
 potential_pw2rs                     24 10.0    0.002    0.002    0.363    0.376
 mp_waitall_1                    155259  8.3    0.179    0.319    0.179    0.319
 mixing_allocate                      1  3.0    0.008    0.008    0.081    0.307
 mp_bcast_im                      74912  8.3    0.267    0.304    0.267    0.304
 xc_pw_divergence                    24 10.0    0.000    0.000    0.288    0.295
 mp_max_d                         32234  7.0    0.266    0.293    0.266    0.293
 dbcsr_copy_into_existing         13631  9.6    0.099    0.208    0.174    0.286
 calculate_first_density_matrix       1  5.0    0.001    0.001    0.231    0.285
 quick_finalize                   53022  9.4    0.131    0.168    0.215    0.285
 calculate_atomic_block_dm            1  6.0    0.001    0.001    0.229    0.282
 x_to_yz                            240 13.2    0.034    0.036    0.244    0.252
 transfer_pw2rs                      97 11.0    0.001    0.001    0.245    0.246
 yz_to_x                            197 12.8    0.021    0.022    0.204    0.225
 kpoint_set_mo_occupation            24  7.0    0.197    0.199    0.207    0.211
 mp_comm_free                     83605  8.8    0.184    0.201    0.184    0.201
 dbcsr_set                       137929  7.5    0.121    0.126    0.168    0.197
 transfer_pw2rs_500                  25 11.8    0.097    0.101    0.183    0.186
 calculate_ecore_overlap              1  4.0    0.000    0.000    0.147    0.181
 build_overlap_matrix_low             1  5.0    0.012    0.026    0.048    0.173
 build_kinetic_matrix_low             1  5.0    0.011    0.023    0.046    0.169
 mp_sum_dv                          319  3.3    0.087    0.156    0.087    0.156
 qs_env_rebuild_rho                   1  5.0    0.000    0.000    0.039    0.152
 qs_rho_rebuild                       1  6.0    0.003    0.004    0.039    0.152
 mp_sum_iv                           24  5.3    0.113    0.140    0.113    0.140
 qs_scf_ensure_work_matrices          1  3.0    0.000    0.000    0.113    0.140
 xc_functional_eval                  24 11.0    0.000    0.000    0.131    0.136
 pbe_lda_eval                        24 12.0    0.131    0.136    0.131    0.136
 scf_post_calculation_gpw             1  3.0    0.000    0.000    0.126    0.126
 write_available_results              1  4.0    0.000    0.000    0.126    0.126
 write_mo_free_results                1  5.0    0.002    0.002    0.126    0.126
 dbcsr_iterator_seek             351774  9.8    0.092    0.114    0.092    0.114
 dbcsr_sort_indices              114999 10.9    0.073    0.104    0.073    0.104
 dbcsr_make_index_exist          207343  8.9    0.092    0.101    0.092    0.101
 dbcsr_reserve_blocks             21835  8.8    0.046    0.079    0.059    0.099
 cp_fm_finish_copy_general        15508  7.8    0.059    0.066    0.077    0.094
 restraint_control                    1  2.0    0.000    0.000    0.047    0.093
 mp_sum_i                             4  2.8    0.047    0.093    0.047    0.093
 build_core_ppnl                      1  5.0    0.020    0.093    0.020    0.093
 parser_read_line                  6201  4.1    0.002    0.002    0.088    0.089
 parser_read_line_low                25  6.1    0.009    0.034    0.086    0.087
 merge_index                      40142 11.2    0.078    0.085    0.078    0.085
 kpoint_density_matrices             24  7.0    0.007    0.007    0.082    0.084
 broadcast_input_information         25  7.1    0.026    0.031    0.077    0.082
 parallel_gemm_fm                  3072  8.0    0.003    0.003    0.074    0.076
 dbcsr_reserve_all_blocks         12288 10.0    0.017    0.020    0.062    0.075
 parallel_gemm_fm_gemm             3072  9.0    0.003    0.003    0.072    0.073
 dbcsr_zero                      137929  8.5    0.047    0.072    0.047    0.072
 cp_fm_gemm                        3072 10.0    0.069    0.070    0.069    0.070
 qs_init_subsys                       1  2.0    0.001    0.002    0.070    0.070
 pw_scatter_p                       240 12.2    0.068    0.069    0.068    0.069
 qs_env_setup                         1  3.0    0.000    0.000    0.067    0.068
 qs_env_rebuild_pw_env                2  3.5    0.000    0.000    0.067    0.067
 mp_irecv_iv                     149824  8.3    0.008    0.067    0.008    0.067
 pw_env_rebuild                       1  5.0    0.000    0.000    0.066    0.067
 hirshfeld_integration                1  6.0    0.014    0.058    0.065    0.065
 dbcsr_switch_data_area           53022 10.4    0.048    0.048    0.062    0.063
 create_qs_kind_set                   1  2.0    0.000    0.000    0.062    0.062
 read_qs_kind                         1  3.0    0.030    0.032    0.062    0.062
 topology_control                     1  2.0    0.000    0.000    0.061    0.062
 pw_poisson_solve                    24  8.0    0.000    0.000    0.061    0.061
 build_core_ppl                       1  5.0    0.012    0.058    0.012    0.058
 mp_isend_dv                      38048  8.2    0.051    0.056    0.051    0.056
 transfer_rs2pw_170                  25  9.0    0.024    0.025    0.053    0.056
 calculate_hirshfeld_normalizat       1  6.0    0.010    0.042    0.052    0.052
 fft_wrap_pw1pw2_170                 49 10.5    0.003    0.004    0.048    0.051
 transfer_pw2rs_170                  24 12.0    0.021    0.024    0.046    0.050
 pw_grid_setup                        4  6.0    0.000    0.000    0.049    0.050
 pw_grid_setup_internal               4  7.0    0.001    0.002    0.049    0.050
 mp_isend_iv                      84424  8.3    0.013    0.049    0.013    0.049
 mp_isendrecv_dv                    679 13.0    0.022    0.049    0.022    0.049
 cp_fm_cleanup_copy_general       26704  7.0    0.029    0.030    0.045    0.047
 read_cell_cif                        2  4.5    0.002    0.004    0.042    0.043
 qs_create_task_list                  1  5.0    0.000    0.000    0.008    0.042
 generate_qs_task_list                1  6.0    0.005    0.029    0.008    0.042
 pw_integral_ab_c1d_c1d_gs           24  9.0    0.038    0.039    0.040    0.041
 coordinate_control                   1  3.0    0.000    0.001    0.037    0.037
 coordinate_control_READ_COORDI       1  4.0    0.000    0.000    0.037    0.037
 read_coordinate_cif                  1  5.0    0.002    0.002    0.037    0.037
 mp_bcast_i_src                     100  8.1    0.030    0.035    0.030    0.035
 dbcsr_distribution_new           40144  8.5    0.027    0.034    0.027    0.034
 pw_grid_sort                         4  8.0    0.023    0.024    0.033    0.034
 mp_irecv_im2                     74912  8.3    0.004    0.034    0.004    0.034
 pw_gather_p                        197 11.8    0.033    0.033    0.033    0.033
 dbcsr_get_data_size_used         93164  9.7    0.029    0.033    0.029    0.033
 dbcsr_make_dbcsr_index          114999 10.8    0.029    0.030    0.029    0.030
 mp_bcast_am_src                     25  8.1    0.015    0.016    0.021    0.028
 mixing_init                          1  5.0    0.026    0.027    0.027    0.027
 dbcsr_data_copy_aa2              40142 11.0    0.015    0.026    0.015    0.026
 pw_copy                            360 10.5    0.023    0.025    0.023    0.025
 cp_cfm_gemm                       2415  7.9    0.023    0.024    0.023    0.024
 mp_isend_im2                     42212  8.3    0.006    0.023    0.006    0.023
 mp_irecv_dv                      38048  8.2    0.021    0.022    0.021    0.022
 pw_derive                          216 11.3    0.019    0.019    0.019    0.019
 mp_comm_size                     65371  9.0    0.016    0.019    0.016    0.019
 kpoint_init_cell_index               2  3.5    0.012    0.016    0.018    0.019
 pw_copy_from_array                 240 12.2    0.015    0.019    0.015    0.019
 mp_recv_dv                        8058  7.0    0.002    0.017    0.002    0.017
 mp_comm_rank                     65371  9.0    0.015    0.017    0.015    0.017
 init_cube_info                       4  6.0    0.015    0.015    0.015    0.015
 fft_wrap_pw1pw2_60                  49 10.5    0.001    0.001    0.014    0.015
 pw_poisson_set                      25  8.9    0.000    0.000    0.013    0.014
 transfer_rs2pw_60                   25  9.0    0.004    0.004    0.012    0.013
 mp_sum_dm3                          24  8.0    0.010    0.013    0.010    0.013
 mp_sum_dm                           23  7.0    0.008    0.013    0.008    0.013
 -------------------------------------------------------------------------------

 The number of warnings for this run is : 1
 
 -------------------------------------------------------------------------------
  **** **** ******  **  PROGRAM ENDED AT                 2025-08-04 16:27:02.780
 ***** ** ***  *** **   PROGRAM RAN ON                              i05r11c06s04
 **    ****   ******    PROGRAM RAN BY                                   di38fab
 ***** **    ** ** **   PROGRAM PROCESS ID                               1981129
  **** **  *******  **  PROGRAM STOPPED IN /hppfs/scratch/04/di38fab/09_GTH/Delt
                                           a_Set/Rb/aug-SZV-MOLOPT-GTH-tier-1/8x
                                           8x8
