Pt                                      
   1.00000000000000     
     3.976750    0.000000    0.000000
     0.000000    3.976750    0.000000
     0.000000    0.000000    3.976750
   Pt
     4
Direct
  0.000000  0.000000  0.000000
  0.000000  0.500000  0.500000
  0.500000  0.000000  0.500000
  0.500000  0.500000  0.000000
 
   36   36   36
  237.94      230.25      210.56      186.09      162.18      139.29      115.28      89.472      64.404      43.864    
  29.858      21.355      15.976      12.666      10.654      9.3942      8.5998      8.1525      8.0077      8.1525    
  8.5998      9.3942      10.654      12.666      15.976      21.355      29.858      43.864      64.404      89.472    
  115.28      139.29      162.18      186.09      210.56      230.25      230.25      223.05      204.55      181.41    
  158.48      136.16      112.55      87.231      62.798      42.906      29.395      21.162      15.928      12.705    
  10.743      9.5110      8.7328      8.2944      8.1525      8.2944      8.7328      9.5110      10.743      12.705    
  15.928      21.162      29.395      42.906      62.798      87.231      112.55      136.17      158.48      181.41    
  204.55      223.05      210.56      204.55      188.99      169.04      148.42      127.45      104.88      80.948    
  58.331      40.270      28.133      20.638      15.818      12.846      11.025      9.8741      9.1442      8.7328    
  8.5998      8.7328      9.1442      9.8741      11.025      12.846      15.818      20.638      28.134      40.270    
  58.331      80.949      104.88      127.45      148.42      169.04      188.99      204.55      186.09      181.41    
  169.04      152.46      134.22      114.69      93.549      71.765      51.923      36.570      26.392      19.929    
  15.732      13.139      11.539      10.521      9.8741      9.5110      9.3942      9.5110      9.8741      10.521    
  11.539      13.139      15.732      19.929      26.392      36.570      51.923      71.765      93.549      114.69    
  134.22      152.46      169.04      181.41      162.18      158.48      148.42      134.22      117.64      99.408    
  80.085      61.128      44.736      32.551      24.532      19.223      15.786      13.668      12.362      11.539    
  11.025      10.743      10.654      10.743      11.025      11.539      12.362      13.668      15.786      19.223    
  24.532      32.551      44.737      61.129      80.085      99.409      117.64      134.22      148.42      158.48    
  139.29      136.16      127.45      114.69      99.408      82.764      65.930      50.441      37.842      28.844    
  22.818      18.725      16.134      14.579      13.668      13.139      12.846      12.705      12.666      12.705    
  12.846      13.139      13.668      14.579      16.134      18.725      22.818      28.844      37.842      50.441    
  65.931      82.765      99.409      114.69      127.45      136.17      115.28      112.55      104.88      93.549    
  80.085      65.930      52.442      40.859      31.988      25.793      21.481      18.651      16.989      16.134    
  15.786      15.732      15.818      15.928      15.976      15.928      15.818      15.732      15.786      16.134    
  16.989      18.652      21.481      25.793      31.989      40.860      52.443      65.931      80.085      93.549    
  104.88      112.55      89.472      87.231      80.948      71.765      61.128      50.441      40.859      33.142    
  27.483      23.461      20.762      19.242      18.651      18.725      19.223      19.929      20.638      21.162    
  21.355      21.162      20.638      19.929      19.223      18.725      18.652      19.242      20.762      23.461    
  27.484      33.142      40.860      50.441      61.129      71.765      80.949      87.231      64.404      62.798    
  58.331      51.923      44.736      37.842      31.988      27.483      24.182      21.973      20.869      20.762    
  21.481      22.818      24.532      26.392      28.133      29.395      29.858      29.395      28.134      26.392    
  24.532      22.818      21.481      20.762      20.869      21.974      24.183      27.484      31.989      37.842    
  44.737      51.923      58.331      62.798      43.864      42.906      40.270      36.570      32.551      28.844    
  25.793      23.461      21.973      21.464      21.973      23.461      25.793      28.844      32.551      36.570    
  40.270      42.906      43.864      42.906      40.270      36.570      32.551      28.844      25.793      23.461    
  21.974      21.464      21.974      23.461      25.793      28.844      32.551      36.570      40.270      42.906    
  29.858      29.395      28.133      26.392      24.532      22.818      21.481      20.762      20.869      21.973    
  24.182      27.483      31.988      37.842      44.736      51.923      58.331      62.798      64.404      62.798    
  58.331      51.923      44.737      37.842      31.989      27.484      24.183      21.974      20.869      20.762    
  21.481      22.818      24.532      26.392      28.134      29.395      21.355      21.162      20.638      19.929    
  19.223      18.725      18.651      19.242      20.762      23.461      27.483      33.142      40.859      50.441    
  61.128      71.765      80.948      87.231      89.472      87.231      80.949      71.765      61.129      50.441    
  40.860      33.142      27.484      23.461      20.762      19.242      18.652      18.725      19.223      19.929    
  20.638      21.162      15.976      15.928      15.818      15.732      15.786      16.134      16.989      18.651    
  21.481      25.793      31.988      40.859      52.442      65.930      80.085      93.549      104.88      112.55    
  115.28      112.55      104.88      93.549      80.085      65.931      52.443      40.860      31.989      25.793    
  21.481      18.652      16.989      16.134      15.786      15.732      15.818      15.928      12.666      12.705    
  12.846      13.139      13.668      14.579      16.134      18.725      22.818      28.844      37.842      50.441    
  65.930      82.764      99.408      114.69      127.45      136.16      139.29      136.17      127.45      114.69    
  99.409      82.765      65.931      50.441      37.842      28.844      22.818      18.725      16.134      14.579    
  13.668      13.139      12.846      12.705      10.654      10.743      11.025      11.539      12.362      13.668    
  15.786      19.223      24.532      32.551      44.736      61.128      80.085      99.408      117.64      134.22    
  148.42      158.48      162.18      158.48      148.42      134.22      117.64      99.409      80.085      61.129    
  44.737      32.551      24.532      19.223      15.786      13.668      12.362      11.539      11.025      10.743    
  9.3942      9.5110      9.8741      10.521      11.539      13.139      15.732      19.929      26.392      36.570    
  51.923      71.765      93.549      114.69      134.22      152.46      169.04      181.41      186.09      181.41    
  169.04      152.46      134.22      114.69      93.549      71.765      51.923      36.570      26.392      19.929    
  15.732      13.139      11.539      10.521      9.8741      9.5110      8.5998      8.7328      9.1442      9.8741    
  11.025      12.846      15.818      20.638      28.133      40.270      58.331      80.948      104.88      127.45    
  148.42      169.04      188.99      204.55      210.56      204.55      188.99      169.04      148.42      127.45    
  104.88      80.949      58.331      40.270      28.134      20.638      15.818      12.846      11.025      9.8741    
  9.1442      8.7328      8.1525      8.2944      8.7328      9.5110      10.743      12.705      15.928      21.162    
  29.395      42.906      62.798      87.231      112.55      136.16      158.48      181.41      204.55      223.05    
  230.25      223.05      204.55      181.41      158.48      136.17      112.55      87.231      62.798      42.906    
  29.395      21.162      15.928      12.705      10.743      9.5110      8.7328      8.2944      8.0077      8.1525    
  8.5998      9.3942      10.654      12.666      15.976      21.355      29.858      43.864      64.404      89.472    
  115.28      139.29      162.18      186.09      210.56      230.25      237.94      230.25      210.56      186.09    
  162.18      139.29      115.28      89.472      64.404      43.864      29.858      21.355      15.976      12.666    
  10.654      9.3942      8.5998      8.1525      8.1525      8.2944      8.7328      9.5110      10.743      12.705    
  15.928      21.162      29.395      42.906      62.798      87.231      112.55      136.17      158.48      181.41    
  204.55      223.05      230.25      223.05      204.55      181.41      158.48      136.16      112.55      87.231    
  62.798      42.906      29.395      21.162      15.928      12.705      10.743      9.5110      8.7328      8.2944    
  8.5998      8.7328      9.1442      9.8741      11.025      12.846      15.818      20.638      28.134      40.270    
  58.331      80.949      104.88      127.45      148.42      169.04      188.99      204.55      210.56      204.55    
  188.99      169.04      148.42      127.45      104.88      80.948      58.331      40.270      28.133      20.638    
  15.818      12.846      11.025      9.8741      9.1442      8.7328      9.3942      9.5110      9.8741      10.521    
  11.539      13.139      15.732      19.929      26.392      36.570      51.923      71.765      93.549      114.69    
  134.22      152.46      169.04      181.41      186.09      181.41      169.04      152.46      134.22      114.69    
  93.549      71.765      51.923      36.570      26.392      19.929      15.732      13.139      11.539      10.521    
  9.8741      9.5110      10.654      10.743      11.025      11.539      12.362      13.668      15.786      19.223    
  24.532      32.551      44.737      61.129      80.085      99.409      117.64      134.22      148.42      158.48    
  162.18      158.48      148.42      134.22      117.64      99.408      80.085      61.128      44.736      32.551    
  24.532      19.223      15.786      13.668      12.362      11.539      11.025      10.743      12.666      12.705    
  12.846      13.139      13.668      14.579      16.134      18.725      22.818      28.844      37.842      50.441    
  65.931      82.765      99.409      114.69      127.45      136.17      139.29      136.16      127.45      114.69    
  99.408      82.764      65.930      50.441      37.842      28.844      22.818      18.725      16.134      14.579    
  13.668      13.139      12.846      12.705      15.976      15.928      15.818      15.732      15.786      16.134    
  16.989      18.652      21.481      25.793      31.989      40.860      52.443      65.931      80.085      93.549    
  104.88      112.55      115.28      112.55      104.88      93.549      80.085      65.930      52.442      40.859    
  31.988      25.793      21.481      18.651      16.989      16.134      15.786      15.732      15.818      15.928    
  21.355      21.162      20.638      19.929      19.223      18.725      18.652      19.242      20.762      23.461    
  27.484      33.142      40.860      50.441      61.129      71.765      80.949      87.231      89.472      87.231    
  80.948      71.765      61.128      50.441      40.859      33.142      27.483      23.461      20.762      19.242    
  18.651      18.725      19.223      19.929      20.638      21.162      29.858      29.395      28.134      26.392    
  24.532      22.818      21.481      20.762      20.869      21.974      24.183      27.484      31.989      37.842    
  44.737      51.923      58.331      62.798      64.404      62.798      58.331      51.923      44.736      37.842    
  31.988      27.483      24.182      21.973      20.869      20.762      21.481      22.818      24.532      26.392    
  28.133      29.395      43.864      42.906      40.270      36.570      32.551      28.844      25.793      23.461    
  21.974      21.464      21.974      23.461      25.793      28.844      32.551      36.570      40.270      42.906    
  43.864      42.906      40.270      36.570      32.551      28.844      25.793      23.461      21.973      21.464    
  21.973      23.461      25.793      28.844      32.551      36.570      40.270      42.906      64.404      62.798    
  58.331      51.923      44.737      37.842      31.989      27.484      24.183      21.974      20.869      20.762    
  21.481      22.818      24.532      26.392      28.134      29.395      29.858      29.395      28.133      26.392    
  24.532      22.818      21.481      20.762      20.869      21.973      24.182      27.483      31.988      37.842    
  44.736      51.923      58.331      62.798      89.472      87.231      80.949      71.765      61.129      50.441    
  40.860      33.142      27.484      23.461      20.762      19.242      18.652      18.725      19.223      19.929    
  20.638      21.162      21.355      21.162      20.638      19.929      19.223      18.725      18.651      19.242    
  20.762      23.461      27.483      33.142      40.859      50.441      61.128      71.765      80.948      87.231    
  115.28      112.55      104.88      93.549      80.085      65.931      52.443      40.860      31.989      25.793    
  21.481      18.652      16.989      16.134      15.786      15.732      15.818      15.928      15.976      15.928    
  15.818      15.732      15.786      16.134      16.989      18.651      21.481      25.793      31.988      40.859    
  52.442      65.930      80.085      93.549      104.88      112.55      139.29      136.17      127.45      114.69    
  99.409      82.765      65.931      50.441      37.842      28.844      22.818      18.725      16.134      14.579    
  13.668      13.139      12.846      12.705      12.666      12.705      12.846      13.139      13.668      14.579    
  16.134      18.725      22.818      28.844      37.842      50.441      65.930      82.764      99.408      114.69    
  127.45      136.16      162.18      158.48      148.42      134.22      117.64      99.409      80.085      61.129    
  44.737      32.551      24.532      19.223      15.786      13.668      12.362      11.539      11.025      10.743    
  10.654      10.743      11.025      11.539      12.362      13.668      15.786      19.223      24.532      32.551    
  44.736      61.128      80.085      99.408      117.64      134.22      148.42      158.48      186.09      181.41    
  169.04      152.46      134.22      114.69      93.549      71.765      51.923      36.570      26.392      19.929    
  15.732      13.139      11.539      10.521      9.8741      9.5110      9.3942      9.5110      9.8741      10.521    
  11.539      13.139      15.732      19.929      26.392      36.570      51.923      71.765      93.549      114.69    
  134.22      152.46      169.04      181.41      210.56      204.55      188.99      169.04      148.42      127.45    
  104.88      80.949      58.331      40.270      28.134      20.638      15.818      12.846      11.025      9.8741    
  9.1442      8.7328      8.5998      8.7328      9.1442      9.8741      11.025      12.846      15.818      20.638    
  28.133      40.270      58.331      80.948      104.88      127.45      148.42      169.04      188.99      204.55    
  230.25      223.05      204.55      181.41      158.48      136.17      112.55      87.231      62.798      42.906    
  29.395      21.162      15.928      12.705      10.743      9.5110      8.7328      8.2944      8.1525      8.2944    
  8.7328      9.5110      10.743      12.705      15.928      21.162      29.395      42.906      62.798      87.231    
  112.55      136.16      158.48      181.41      204.55      223.05      230.25      223.05      204.55      181.41    
  158.48      136.16      112.55      87.231      62.798      42.906      29.395      21.162      15.928      12.705    
  10.743      9.5110      8.7328      8.2944      8.1525      8.2944      8.7328      9.5110      10.743      12.705    
  15.928      21.162      29.395      42.906      62.798      87.231      112.55      136.17      158.48      181.41    
  204.55      223.05      223.05      216.29      198.89      176.95      154.91      133.11      109.88      85.048    
  61.239      41.979      28.946      20.971      15.880      12.743      10.829      9.6249      8.8628      8.4334    
  8.2944      8.4334      8.8628      9.6249      10.829      12.743      15.880      20.971      28.946      41.979    
  61.240      85.048      109.88      133.12      154.91      176.95      198.89      216.29      204.55      198.89    
  184.15      165.11      145.16      124.60      102.39      78.929      56.907      39.430      27.722      20.455    
  15.768      12.877      11.102      9.9787      9.2650      8.8628      8.7328      8.8628      9.2650      9.9786    
  11.102      12.877      15.768      20.455      27.722      39.430      56.908      78.929      102.39      124.60    
  145.16      165.11      184.15      198.89      181.41      176.95      165.11      149.11      131.31      112.11    
  91.306      69.986      50.696      35.852      26.031      19.756      15.678      13.158      11.601      10.609    
  9.9787      9.6249      9.5110      9.6249      9.9786      10.609      11.601      13.158      15.678      19.756    
  26.031      35.852      50.696      69.986      91.306      112.11      131.31      149.11      165.11      176.95    
  158.48      154.91      145.16      131.31      115.04      97.107      78.141      59.638      43.735      31.967    
  24.217      19.060      15.725      13.669      12.402      11.601      11.102      10.829      10.743      10.829    
  11.102      11.601      12.402      13.669      15.725      19.060      24.217      31.967      43.735      59.638    
  78.142      97.107      115.04      131.31      145.16      154.91      136.16      133.11      124.60      112.11    
  97.107      80.781      64.326      49.260      37.066      28.379      22.538      18.567      16.057      14.551    
  13.669      13.158      12.877      12.743      12.705      12.743      12.877      13.158      13.669      14.551    
  16.057      18.567      22.538      28.379      37.066      49.260      64.326      80.781      97.107      112.11    
  124.60      133.11      112.55      109.88      102.39      91.306      78.141      64.326      51.203      39.978    
  31.409      25.416      21.229      18.489      16.882      16.057      15.725      15.678      15.768      15.880    
  15.928      15.880      15.768      15.678      15.725      16.057      16.882      18.489      21.229      25.416    
  31.409      39.979      51.203      64.326      78.141      91.306      102.39      109.88      87.231      85.048    
  78.929      69.986      59.638      49.260      39.978      32.520      27.048      23.141      20.524      19.055    
  18.489      18.567      19.060      19.756      20.455      20.971      21.162      20.971      20.455      19.756    
  19.060      18.567      18.489      19.055      20.524      23.141      27.048      32.520      39.978      49.260    
  59.638      69.986      78.929      85.048      62.798      61.239      56.907      50.696      43.735      37.066    
  31.409      27.048      23.837      21.691      20.622      20.524      21.229      22.538      24.217      26.031    
  27.722      28.946      29.395      28.946      27.722      26.031      24.217      22.538      21.229      20.524    
  20.623      21.692      23.837      27.048      31.409      37.066      43.735      50.696      56.908      61.239    
  42.906      41.979      39.430      35.852      31.967      28.379      25.416      23.141      21.691      21.195    
  21.691      23.140      25.416      28.379      31.967      35.852      39.430      41.979      42.906      41.979    
  39.430      35.852      31.967      28.379      25.416      23.141      21.692      21.195      21.692      23.141    
  25.416      28.379      31.967      35.852      39.430      41.979      29.395      28.946      27.722      26.031    
  24.217      22.538      21.229      20.524      20.622      21.691      23.837      27.048      31.409      37.066    
  43.735      50.696      56.907      61.239      62.798      61.240      56.908      50.696      43.735      37.066    
  31.409      27.048      23.837      21.692      20.623      20.524      21.229      22.538      24.217      26.031    
  27.722      28.946      21.162      20.971      20.455      19.756      19.060      18.567      18.489      19.055    
  20.524      23.140      27.048      32.520      39.978      49.260      59.638      69.986      78.929      85.048    
  87.231      85.048      78.929      69.986      59.638      49.260      39.979      32.520      27.048      23.141    
  20.524      19.055      18.489      18.567      19.060      19.756      20.455      20.971      15.928      15.880    
  15.768      15.678      15.725      16.057      16.882      18.489      21.229      25.416      31.409      39.978    
  51.203      64.325      78.141      91.306      102.39      109.88      112.55      109.88      102.39      91.306    
  78.142      64.326      51.203      39.978      31.409      25.416      21.229      18.489      16.882      16.057    
  15.725      15.678      15.768      15.880      12.705      12.743      12.877      13.158      13.669      14.551    
  16.057      18.567      22.538      28.379      37.066      49.260      64.325      80.781      97.106      112.11    
  124.60      133.11      136.17      133.12      124.60      112.11      97.107      80.781      64.326      49.260    
  37.066      28.379      22.538      18.567      16.057      14.551      13.669      13.158      12.877      12.743    
  10.743      10.829      11.102      11.601      12.402      13.669      15.725      19.060      24.217      31.967    
  43.735      59.638      78.141      97.106      115.04      131.31      145.16      154.91      158.48      154.91    
  145.16      131.31      115.04      97.107      78.141      59.638      43.735      31.967      24.217      19.060    
  15.725      13.669      12.402      11.601      11.102      10.829      9.5110      9.6249      9.9787      10.609    
  11.601      13.158      15.678      19.756      26.031      35.852      50.696      69.986      91.306      112.11    
  131.31      149.11      165.11      176.95      181.41      176.95      165.11      149.11      131.31      112.11    
  91.306      69.986      50.696      35.852      26.031      19.756      15.678      13.158      11.601      10.609    
  9.9787      9.6249      8.7328      8.8628      9.2650      9.9787      11.102      12.877      15.768      20.455    
  27.722      39.430      56.907      78.929      102.39      124.60      145.16      165.11      184.15      198.89    
  204.55      198.89      184.15      165.11      145.16      124.60      102.39      78.929      56.908      39.430    
  27.722      20.455      15.768      12.877      11.102      9.9787      9.2650      8.8628      8.2944      8.4334    
  8.8628      9.6249      10.829      12.743      15.880      20.971      28.946      41.979      61.239      85.048    
  109.88      133.11      154.91      176.95      198.89      216.29      223.05      216.29      198.89      176.95    
  154.91      133.11      109.88      85.048      61.239      41.979      28.946      20.971      15.880      12.743    
  10.829      9.6249      8.8628      8.4334      8.1525      8.2944      8.7328      9.5110      10.743      12.705    
  15.928      21.162      29.395      42.906      62.798      87.231      112.55      136.17      158.48      181.41    
  204.55      223.05      230.25      223.05      204.55      181.41      158.48      136.16      112.55      87.231    
  62.798      42.906      29.395      21.162      15.928      12.705      10.743      9.5110      8.7328      8.2944    
  8.2944      8.4334      8.8628      9.6249      10.829      12.743      15.880      20.971      28.946      41.979    
  61.240      85.048      109.88      133.12      154.91      176.95      198.89      216.29      223.05      216.29    
  198.89      176.95      154.91      133.11      109.88      85.048      61.239      41.979      28.946      20.971    
  15.880      12.743      10.829      9.6249      8.8628      8.4334      8.7328      8.8628      9.2650      9.9786    
  11.102      12.877      15.768      20.455      27.722      39.430      56.908      78.929      102.39      124.60    
  145.16      165.11      184.15      198.89      204.55      198.89      184.15      165.11      145.16      124.60    
  102.39      78.929      56.907      39.430      27.722      20.455      15.768      12.877      11.102      9.9787    
  9.2650      8.8628      9.5110      9.6249      9.9786      10.609      11.601      13.158      15.678      19.756    
  26.031      35.852      50.696      69.986      91.306      112.11      131.31      149.11      165.11      176.95    
  181.41      176.95      165.11      149.11      131.31      112.11      91.306      69.986      50.696      35.852    
  26.031      19.756      15.678      13.158      11.601      10.609      9.9787      9.6249      10.743      10.829    
  11.102      11.601      12.402      13.669      15.725      19.060      24.217      31.967      43.735      59.638    
  78.142      97.107      115.04      131.31      145.16      154.91      158.48      154.91      145.16      131.31    
  115.04      97.107      78.141      59.638      43.735      31.967      24.217      19.060      15.725      13.669    
  12.402      11.601      11.102      10.829      12.705      12.743      12.877      13.158      13.669      14.551    
  16.057      18.567      22.538      28.379      37.066      49.260      64.326      80.781      97.107      112.11    
  124.60      133.11      136.16      133.11      124.60      112.11      97.107      80.781      64.326      49.260    
  37.066      28.379      22.538      18.567      16.057      14.551      13.669      13.158      12.877      12.743    
  15.928      15.880      15.768      15.678      15.725      16.057      16.882      18.489      21.229      25.416    
  31.409      39.979      51.203      64.326      78.141      91.306      102.39      109.88      112.55      109.88    
  102.39      91.306      78.141      64.326      51.203      39.978      31.409      25.416      21.229      18.489    
  16.882      16.057      15.725      15.678      15.768      15.880      21.162      20.971      20.455      19.756    
  19.060      18.567      18.489      19.055      20.524      23.141      27.048      32.520      39.978      49.260    
  59.638      69.986      78.929      85.048      87.231      85.048      78.929      69.986      59.638      49.260    
  39.978      32.520      27.048      23.141      20.524      19.055      18.489      18.567      19.060      19.756    
  20.455      20.971      29.395      28.946      27.722      26.031      24.217      22.538      21.229      20.524    
  20.623      21.692      23.837      27.048      31.409      37.066      43.735      50.696      56.908      61.239    
  62.798      61.239      56.907      50.696      43.735      37.066      31.409      27.048      23.837      21.691    
  20.622      20.524      21.229      22.538      24.217      26.031      27.722      28.946      42.906      41.979    
  39.430      35.852      31.967      28.379      25.416      23.141      21.692      21.195      21.692      23.141    
  25.416      28.379      31.967      35.852      39.430      41.979      42.906      41.979      39.430      35.852    
  31.967      28.379      25.416      23.141      21.691      21.195      21.691      23.140      25.416      28.379    
  31.967      35.852      39.430      41.979      62.798      61.240      56.908      50.696      43.735      37.066    
  31.409      27.048      23.837      21.692      20.623      20.524      21.229      22.538      24.217      26.031    
  27.722      28.946      29.395      28.946      27.722      26.031      24.217      22.538      21.229      20.524    
  20.622      21.691      23.837      27.048      31.409      37.066      43.735      50.696      56.907      61.239    
  87.231      85.048      78.929      69.986      59.638      49.260      39.979      32.520      27.048      23.141    
  20.524      19.055      18.489      18.567      19.060      19.756      20.455      20.971      21.162      20.971    
  20.455      19.756      19.060      18.567      18.489      19.055      20.524      23.140      27.048      32.520    
  39.978      49.260      59.638      69.986      78.929      85.048      112.55      109.88      102.39      91.306    
  78.142      64.326      51.203      39.978      31.409      25.416      21.229      18.489      16.882      16.057    
  15.725      15.678      15.768      15.880      15.928      15.880      15.768      15.678      15.725      16.057    
  16.882      18.489      21.229      25.416      31.409      39.978      51.203      64.325      78.141      91.306    
  102.39      109.88      136.17      133.12      124.60      112.11      97.107      80.781      64.326      49.260    
  37.066      28.379      22.538      18.567      16.057      14.551      13.669      13.158      12.877      12.743    
  12.705      12.743      12.877      13.158      13.669      14.551      16.057      18.567      22.538      28.379    
  37.066      49.260      64.325      80.781      97.106      112.11      124.60      133.11      158.48      154.91    