Pt                                      
   1.00000000000000     
     3.976750    0.000000    0.000000
     0.000000    3.976750    0.000000
     0.000000    0.000000    3.976750
   Pt
     4
Direct
  0.000000  0.000000  0.000000
  0.000000  0.500000  0.500000
  0.500000  0.000000  0.500000
  0.500000  0.500000  0.000000
 
   36   36   36
 0.23794393474E+03 0.23025027936E+03 0.21055637663E+03 0.18609424651E+03 0.16217749191E+03
 0.13929391875E+03 0.11527879873E+03 0.89471714189E+02 0.64403636014E+02 0.43863680229E+02
 0.29858188670E+02 0.21354876346E+02 0.15975978688E+02 0.12665529576E+02 0.10653840572E+02
 0.93941584802E+01 0.85997794825E+01 0.81524827247E+01 0.80076752332E+01 0.81524827247E+01
 0.85997794825E+01 0.93941584802E+01 0.10653840572E+02 0.12665529576E+02 0.15975978688E+02
 0.21354876346E+02 0.29858188670E+02 0.43863680229E+02 0.64403636014E+02 0.89471714189E+02
 0.11527879873E+03 0.13929391875E+03 0.16217749191E+03 0.18609424651E+03 0.21055637663E+03
 0.23025027936E+03 0.23025027936E+03 0.22304569048E+03 0.20455228227E+03 0.18141482363E+03
 0.15847968137E+03 0.13616495017E+03 0.11254933340E+03 0.87230898747E+02 0.62797533120E+02
 0.42905740068E+02 0.29395063997E+02 0.21161832525E+02 0.15928096916E+02 0.12705425823E+02
 0.10743000410E+02 0.95110384407E+01 0.87328029731E+01 0.82943917737E+01 0.81524827247E+01
 0.82943908012E+01 0.87328016399E+01 0.95110376527E+01 0.10743001019E+02 0.12705428650E+02
 0.15928103369E+02 0.21161845635E+02 0.29395089717E+02 0.42905789993E+02 0.62797621126E+02
 0.87231030870E+02 0.11254949837E+03 0.13616511932E+03 0.15847982091E+03 0.18141491264E+03
 0.20455232296E+03 0.22304570204E+03 0.21055637663E+03 0.20455228241E+03 0.18898707985E+03
 0.16903739425E+03 0.14841962893E+03 0.12745041778E+03 0.10487798791E+03 0.80948365939E+02
 0.58331133627E+02 0.40269966339E+02 0.28133482224E+02 0.20638331794E+02 0.15818062288E+02
 0.12845528857E+02 0.11024817086E+02 0.98740684041E+01 0.91441730962E+01 0.87328029700E+01
 0.85997794825E+01 0.87328016428E+01 0.91441714314E+01 0.98740678815E+01 0.11024819136E+02
 0.12845534941E+02 0.15818074985E+02 0.20638356595E+02 0.28133529508E+02 0.40270056241E+02
 0.58331291877E+02 0.80948606352E+02 0.10487829458E+03 0.12745074258E+03 0.14841991102E+03
 0.16903759092E+03 0.18898718602E+03 0.20455232282E+03 0.18609424651E+03 0.18141482406E+03
 0.16903739472E+03 0.15246212899E+03 0.13421621085E+03 0.11469035469E+03 0.93548773337E+02
 0.71765002130E+02 0.51923289989E+02 0.36569542884E+02 0.26392221164E+02 0.19929051199E+02
 0.15731854444E+02 0.13138539456E+02 0.11538660482E+02 0.10520671933E+02 0.98740683943E+01
 0.95110384316E+01 0.93941584802E+01 0.95110376610E+01 0.98740678896E+01 0.10520673275E+02
 0.11538665279E+02 0.13138549504E+02 0.15731873034E+02 0.19929085258E+02 0.26392283221E+02
 0.36569656385E+02 0.51923488059E+02 0.71765307498E+02 0.93549174641E+02 0.11469079885E+03
 0.13421662207E+03 0.15246244437E+03 0.16903759045E+03 0.18141491221E+03 0.16217749191E+03
 0.15847968214E+03 0.14841962999E+03 0.13421621157E+03 0.11763849796E+03 0.99408038725E+02
 0.80084776817E+02 0.61128249024E+02 0.44736409145E+02 0.32551328589E+02 0.24531513357E+02
 0.19223161350E+02 0.15786261673E+02 0.13667535809E+02 0.12362359854E+02 0.11538660471E+02
 0.11024817068E+02 0.10743000397E+02 0.10653840572E+02 0.10743001030E+02 0.11024819149E+02
 0.11538665285E+02 0.12362368806E+02 0.13667550667E+02 0.15786285837E+02 0.19223201924E+02
 0.24531582939E+02 0.32551448580E+02 0.44736613398E+02 0.61128567068E+02 0.80085208132E+02
 0.99408538954E+02 0.11763899092E+03 0.13421662134E+03 0.14841990995E+03 0.15847982014E+03
 0.13929391875E+03 0.13616495117E+03 0.12745041927E+03 0.11469035601E+03 0.99408039407E+02
 0.82764120418E+02 0.65930377436E+02 0.50441203312E+02 0.37841728591E+02 0.28843621771E+02
 0.22817828556E+02 0.18724972229E+02 0.16133634505E+02 0.14579147222E+02 0.13667535812E+02
 0.13138539451E+02 0.12845528847E+02 0.12705425816E+02 0.12665529576E+02 0.12705428654E+02
 0.12845534942E+02 0.13138549498E+02 0.13667550658E+02 0.14579168172E+02 0.16133664403E+02
 0.18725017205E+02 0.22817899617E+02 0.28843735678E+02 0.37841912885E+02 0.50441488453E+02
 0.65930773728E+02 0.82764599916E+02 0.99408538283E+02 0.11469079753E+03 0.12745074108E+03
 0.13616511832E+03 0.11527879873E+03 0.11254933440E+03 0.10487798947E+03 0.93548774837E+02
 0.80084777818E+02 0.65930377847E+02 0.52442332631E+02 0.40859345295E+02 0.31988483694E+02
 0.25792936112E+02 0.21480698106E+02 0.18651461837E+02 0.16989289716E+02 0.16133634530E+02
 0.15786261708E+02 0.15731854479E+02 0.15818062317E+02 0.15928096933E+02 0.15975978688E+02
 0.15928103351E+02 0.15818074950E+02 0.15731872991E+02 0.15786285796E+02 0.16133664378E+02
 0.16989326932E+02 0.18651510801E+02 0.21480767191E+02 0.25793037909E+02 0.31988636005E+02
 0.40859572357E+02 0.52442649807E+02 0.65930773347E+02 0.80085207169E+02 0.93549173171E+02
 0.10487829304E+03 0.11254949738E+03 0.89471714189E+02 0.87230899552E+02 0.80948367212E+02
 0.71765003403E+02 0.61128249952E+02 0.50441203807E+02 0.40859345464E+02 0.33142291838E+02
 0.27483417259E+02 0.23461023323E+02 0.20761657276E+02 0.19242344183E+02 0.18651461879E+02
 0.18724972308E+02 0.19223161458E+02 0.19929051319E+02 0.20638331899E+02 0.21161832587E+02
 0.21354876346E+02 0.21161845574E+02 0.20638356494E+02 0.19929085145E+02 0.19223201828E+02
 0.18725017140E+02 0.18651510771E+02 0.19242399444E+02 0.20761724629E+02 0.23461111900E+02
 0.27483538357E+02 0.33142459330E+02 0.40859572224E+02 0.50441488022E+02 0.61128566211E+02
 0.71765306283E+02 0.80948605110E+02 0.87231030074E+02 0.64403636014E+02 0.62797533643E+02
 0.58331134465E+02 0.51923290844E+02 0.44736409799E+02 0.37841728983E+02 0.31988483878E+02
 0.27483417319E+02 0.24182425021E+02 0.21973498771E+02 0.20868745555E+02 0.20761657314E+02
 0.21480698201E+02 0.22817828717E+02 0.24531513578E+02 0.26392221417E+02 0.28133482453E+02
 0.29395064135E+02 0.29858188670E+02 0.29395089585E+02 0.28133529298E+02 0.26392283002E+02
 0.24531582760E+02 0.22817899499E+02 0.21480767129E+02 0.20761724607E+02 0.20868815089E+02
 0.21973577350E+02 0.24182520996E+02 0.27483538321E+02 0.31988635878E+02 0.37841912575E+02
 0.44736612832E+02 0.51923487274E+02 0.58331291080E+02 0.62797620613E+02 0.43863680229E+02
 0.42905740352E+02 0.40269966799E+02 0.36569543367E+02 0.32551328980E+02 0.28843622032E+02
 0.25792936260E+02 0.23461023388E+02 0.21973498787E+02 0.21463701451E+02 0.21973498787E+02
 0.23461023388E+02 0.25792936260E+02 0.28843622032E+02 0.32551328980E+02 0.36569543367E+02
 0.40269966799E+02 0.42905740352E+02 0.43863680229E+02 0.42905789719E+02 0.40270055815E+02
 0.36569655962E+02 0.32551448263E+02 0.28843735488E+02 0.25793037815E+02 0.23461111864E+02
 0.21973577342E+02 0.21463776365E+02 0.21973577342E+02 0.23461111864E+02 0.25793037815E+02
 0.28843735488E+02 0.32551448263E+02 0.36569655962E+02 0.40270055815E+02 0.42905789719E+02
 0.29858188670E+02 0.29395064135E+02 0.28133482453E+02 0.26392221417E+02 0.24531513578E+02
 0.22817828717E+02 0.21480698201E+02 0.20761657314E+02 0.20868745555E+02 0.21973498771E+02
 0.24182425021E+02 0.27483417319E+02 0.31988483878E+02 0.37841728983E+02 0.44736409799E+02
 0.51923290844E+02 0.58331134465E+02 0.62797533643E+02 0.64403636014E+02 0.62797620613E+02
 0.58331291080E+02 0.51923487274E+02 0.44736612832E+02 0.37841912575E+02 0.31988635878E+02
 0.27483538321E+02 0.24182520996E+02 0.21973577350E+02 0.20868815089E+02 0.20761724607E+02
 0.21480767129E+02 0.22817899499E+02 0.24531582760E+02 0.26392283002E+02 0.28133529298E+02
 0.29395089585E+02 0.21354876346E+02 0.21161832587E+02 0.20638331899E+02 0.19929051319E+02
 0.19223161458E+02 0.18724972308E+02 0.18651461879E+02 0.19242344183E+02 0.20761657276E+02
 0.23461023323E+02 0.27483417259E+02 0.33142291838E+02 0.40859345464E+02 0.50441203807E+02
 0.61128249952E+02 0.71765003403E+02 0.80948367212E+02 0.87230899552E+02 0.89471714189E+02
 0.87231030074E+02 0.80948605110E+02 0.71765306283E+02 0.61128566211E+02 0.50441488022E+02
 0.40859572224E+02 0.33142459330E+02 0.27483538357E+02 0.23461111900E+02 0.20761724629E+02
 0.19242399444E+02 0.18651510771E+02 0.18725017140E+02 0.19223201828E+02 0.19929085145E+02
 0.20638356494E+02 0.21161845574E+02 0.15975978688E+02 0.15928096933E+02 0.15818062317E+02
 0.15731854479E+02 0.15786261708E+02 0.16133634530E+02 0.16989289716E+02 0.18651461837E+02
 0.21480698106E+02 0.25792936112E+02 0.31988483694E+02 0.40859345295E+02 0.52442332631E+02
 0.65930377847E+02 0.80084777818E+02 0.93548774837E+02 0.10487798947E+03 0.11254933440E+03
 0.11527879873E+03 0.11254949738E+03 0.10487829304E+03 0.93549173171E+02 0.80085207169E+02
 0.65930773347E+02 0.52442649807E+02 0.40859572357E+02 0.31988636005E+02 0.25793037909E+02
 0.21480767191E+02 0.18651510801E+02 0.16989326932E+02 0.16133664378E+02 0.15786285796E+02
 0.15731872991E+02 0.15818074950E+02 0.15928103351E+02 0.12665529576E+02 0.12705425816E+02
 0.12845528847E+02 0.13138539451E+02 0.13667535812E+02 0.14579147222E+02 0.16133634505E+02
 0.18724972229E+02 0.22817828556E+02 0.28843621771E+02 0.37841728591E+02 0.50441203312E+02
 0.65930377436E+02 0.82764120418E+02 0.99408039407E+02 0.11469035601E+03 0.12745041927E+03
 0.13616495117E+03 0.13929391875E+03 0.13616511832E+03 0.12745074108E+03 0.11469079753E+03
 0.99408538283E+02 0.82764599916E+02 0.65930773728E+02 0.50441488453E+02 0.37841912885E+02
 0.28843735678E+02 0.22817899617E+02 0.18725017205E+02 0.16133664403E+02 0.14579168172E+02
 0.13667550658E+02 0.13138549498E+02 0.12845534942E+02 0.12705428654E+02 0.10653840572E+02
 0.10743000397E+02 0.11024817068E+02 0.11538660471E+02 0.12362359854E+02 0.13667535809E+02
 0.15786261673E+02 0.19223161350E+02 0.24531513357E+02 0.32551328589E+02 0.44736409145E+02
 0.61128249024E+02 0.80084776817E+02 0.99408038725E+02 0.11763849796E+03 0.13421621157E+03
 0.14841962999E+03 0.15847968214E+03 0.16217749191E+03 0.15847982014E+03 0.14841990995E+03
 0.13421662134E+03 0.11763899092E+03 0.99408538954E+02 0.80085208132E+02 0.61128567068E+02
 0.44736613398E+02 0.32551448580E+02 0.24531582939E+02 0.19223201924E+02 0.15786285837E+02
 0.13667550667E+02 0.12362368806E+02 0.11538665285E+02 0.11024819149E+02 0.10743001030E+02
 0.93941584802E+01 0.95110384316E+01 0.98740683943E+01 0.10520671933E+02 0.11538660482E+02
 0.13138539456E+02 0.15731854444E+02 0.19929051199E+02 0.26392221164E+02 0.36569542884E+02
 0.51923289989E+02 0.71765002130E+02 0.93548773337E+02 0.11469035469E+03 0.13421621085E+03
 0.15246212899E+03 0.16903739472E+03 0.18141482406E+03 0.18609424651E+03 0.18141491221E+03
 0.16903759045E+03 0.15246244437E+03 0.13421662207E+03 0.11469079885E+03 0.93549174641E+02
 0.71765307498E+02 0.51923488059E+02 0.36569656385E+02 0.26392283221E+02 0.19929085258E+02
 0.15731873034E+02 0.13138549504E+02 0.11538665279E+02 0.10520673275E+02 0.98740678896E+01
 0.95110376610E+01 0.85997794825E+01 0.87328029700E+01 0.91441730962E+01 0.98740684041E+01
 0.11024817086E+02 0.12845528857E+02 0.15818062288E+02 0.20638331794E+02 0.28133482224E+02
 0.40269966339E+02 0.58331133627E+02 0.80948365939E+02 0.10487798791E+03 0.12745041778E+03
 0.14841962893E+03 0.16903739425E+03 0.18898707985E+03 0.20455228241E+03 0.21055637663E+03
 0.20455232282E+03 0.18898718602E+03 0.16903759092E+03 0.14841991102E+03 0.12745074258E+03
 0.10487829458E+03 0.80948606352E+02 0.58331291877E+02 0.40270056241E+02 0.28133529508E+02
 0.20638356595E+02 0.15818074985E+02 0.12845534941E+02 0.11024819136E+02 0.98740678815E+01
 0.91441714314E+01 0.87328016428E+01 0.81524827247E+01 0.82943917737E+01 0.87328029731E+01
 0.95110384407E+01 0.10743000410E+02 0.12705425823E+02 0.15928096916E+02 0.21161832525E+02
 0.29395063997E+02 0.42905740068E+02 0.62797533120E+02 0.87230898747E+02 0.11254933340E+03
 0.13616495017E+03 0.15847968137E+03 0.18141482363E+03 0.20455228227E+03 0.22304569048E+03
 0.23025027936E+03 0.22304570204E+03 0.20455232296E+03 0.18141491264E+03 0.15847982091E+03
 0.13616511932E+03 0.11254949837E+03 0.87231030870E+02 0.62797621126E+02 0.42905789993E+02
 0.29395089717E+02 0.21161845635E+02 0.15928103369E+02 0.12705428650E+02 0.10743001019E+02
 0.95110376527E+01 0.87328016399E+01 0.82943908012E+01 0.80076752332E+01 0.81524827247E+01
 0.85997794825E+01 0.93941584802E+01 0.10653840572E+02 0.12665529576E+02 0.15975978688E+02
 0.21354876346E+02 0.29858188670E+02 0.43863680229E+02 0.64403636014E+02 0.89471714189E+02
 0.11527879873E+03 0.13929391875E+03 0.16217749191E+03 0.18609424651E+03 0.21055637663E+03
 0.23025027936E+03 0.23794393474E+03 0.23025027936E+03 0.21055637663E+03 0.18609424651E+03
 0.16217749191E+03 0.13929391875E+03 0.11527879873E+03 0.89471714189E+02 0.64403636014E+02
 0.43863680229E+02 0.29858188670E+02 0.21354876346E+02 0.15975978688E+02 0.12665529576E+02
 0.10653840572E+02 0.93941584802E+01 0.85997794825E+01 0.81524827247E+01 0.81524827247E+01
 0.82943908012E+01 0.87328016399E+01 0.95110376527E+01 0.10743001019E+02 0.12705428650E+02
 0.15928103369E+02 0.21161845635E+02 0.29395089717E+02 0.42905789993E+02 0.62797621126E+02
 0.87231030870E+02 0.11254949837E+03 0.13616511932E+03 0.15847982091E+03 0.18141491264E+03
 0.20455232296E+03 0.22304570204E+03 0.23025027936E+03 0.22304569048E+03 0.20455228227E+03
 0.18141482363E+03 0.15847968137E+03 0.13616495017E+03 0.11254933340E+03 0.87230898747E+02
 0.62797533120E+02 0.42905740068E+02 0.29395063997E+02 0.21161832525E+02 0.15928096916E+02
 0.12705425823E+02 0.10743000410E+02 0.95110384407E+01 0.87328029731E+01 0.82943917737E+01
 0.85997794825E+01 0.87328016428E+01 0.91441714314E+01 0.98740678815E+01 0.11024819136E+02
 0.12845534941E+02 0.15818074985E+02 0.20638356595E+02 0.28133529508E+02 0.40270056241E+02
 0.58331291877E+02 0.80948606352E+02 0.10487829458E+03 0.12745074258E+03 0.14841991102E+03
 0.16903759092E+03 0.18898718602E+03 0.20455232282E+03 0.21055637663E+03 0.20455228241E+03
 0.18898707985E+03 0.16903739425E+03 0.14841962893E+03 0.12745041778E+03 0.10487798791E+03
 0.80948365939E+02 0.58331133627E+02 0.40269966339E+02 0.28133482224E+02 0.20638331794E+02
 0.15818062288E+02 0.12845528857E+02 0.11024817086E+02 0.98740684041E+01 0.91441730962E+01
 0.87328029700E+01 0.93941584802E+01 0.95110376610E+01 0.98740678896E+01 0.10520673275E+02
 0.11538665279E+02 0.13138549504E+02 0.15731873034E+02 0.19929085258E+02 0.26392283221E+02
 0.36569656385E+02 0.51923488059E+02 0.71765307498E+02 0.93549174641E+02 0.11469079885E+03
 0.13421662207E+03 0.15246244437E+03 0.16903759045E+03 0.18141491221E+03 0.18609424651E+03
 0.18141482406E+03 0.16903739472E+03 0.15246212899E+03 0.13421621085E+03 0.11469035469E+03
 0.93548773337E+02 0.71765002130E+02 0.51923289989E+02 0.36569542884E+02 0.26392221164E+02
 0.19929051199E+02 0.15731854444E+02 0.13138539456E+02 0.11538660482E+02 0.10520671933E+02
 0.98740683943E+01 0.95110384316E+01 0.10653840572E+02 0.10743001030E+02 0.11024819149E+02
 0.11538665285E+02 0.12362368806E+02 0.13667550667E+02 0.15786285837E+02 0.19223201924E+02
 0.24531582939E+02 0.32551448580E+02 0.44736613398E+02 0.61128567068E+02 0.80085208132E+02
 0.99408538954E+02 0.11763899092E+03 0.13421662134E+03 0.14841990995E+03 0.15847982014E+03
 0.16217749191E+03 0.15847968214E+03 0.14841962999E+03 0.13421621157E+03 0.11763849796E+03
 0.99408038725E+02 0.80084776817E+02 0.61128249024E+02 0.44736409145E+02 0.32551328589E+02
 0.24531513357E+02 0.19223161350E+02 0.15786261673E+02 0.13667535809E+02 0.12362359854E+02
 0.11538660471E+02 0.11024817068E+02 0.10743000397E+02 0.12665529576E+02 0.12705428654E+02
 0.12845534942E+02 0.13138549498E+02 0.13667550658E+02 0.14579168172E+02 0.16133664403E+02
 0.18725017205E+02 0.22817899617E+02 0.28843735678E+02 0.37841912885E+02 0.50441488453E+02
 0.65930773728E+02 0.82764599916E+02 0.99408538283E+02 0.11469079753E+03 0.12745074108E+03
 0.13616511832E+03 0.13929391875E+03 0.13616495117E+03 0.12745041927E+03 0.11469035601E+03
 0.99408039407E+02 0.82764120418E+02 0.65930377436E+02 0.50441203312E+02 0.37841728591E+02
 0.28843621771E+02 0.22817828556E+02 0.18724972229E+02 0.16133634505E+02 0.14579147222E+02
 0.13667535812E+02 0.13138539451E+02 0.12845528847E+02 0.12705425816E+02 0.15975978688E+02
 0.15928103351E+02 0.15818074950E+02 0.15731872991E+02 0.15786285796E+02 0.16133664378E+02
 0.16989326932E+02 0.18651510801E+02 0.21480767191E+02 0.25793037909E+02 0.31988636005E+02
 0.40859572357E+02 0.52442649807E+02 0.65930773347E+02 0.80085207169E+02 0.93549173171E+02
 0.10487829304E+03 0.11254949738E+03 0.11527879873E+03 0.11254933440E+03 0.10487798947E+03
 0.93548774837E+02 0.80084777818E+02 0.65930377847E+02 0.52442332631E+02 0.40859345295E+02
 0.31988483694E+02 0.25792936112E+02 0.21480698106E+02 0.18651461837E+02 0.16989289716E+02
 0.16133634530E+02 0.15786261708E+02 0.15731854479E+02 0.15818062317E+02 0.15928096933E+02
 0.21354876346E+02 0.21161845574E+02 0.20638356494E+02 0.19929085145E+02 0.19223201828E+02
 0.18725017140E+02 0.18651510771E+02 0.19242399444E+02 0.20761724629E+02 0.23461111900E+02
 0.27483538357E+02 0.33142459330E+02 0.40859572224E+02 0.50441488022E+02 0.61128566211E+02
 0.71765306283E+02 0.80948605110E+02 0.87231030074E+02 0.89471714189E+02 0.87230899552E+02
 0.80948367212E+02 0.71765003403E+02 0.61128249952E+02 0.50441203807E+02 0.40859345464E+02
 0.33142291838E+02 0.27483417259E+02 0.23461023323E+02 0.20761657276E+02 0.19242344183E+02
 0.18651461879E+02 0.18724972308E+02 0.19223161458E+02 0.19929051319E+02 0.20638331899E+02
 0.21161832587E+02 0.29858188670E+02 0.29395089585E+02 0.28133529298E+02 0.26392283002E+02
 0.24531582760E+02 0.22817899499E+02 0.21480767129E+02 0.20761724607E+02 0.20868815089E+02
 0.21973577350E+02 0.24182520996E+02 0.27483538321E+02 0.31988635878E+02 0.37841912575E+02
 0.44736612832E+02 0.51923487274E+02 0.58331291080E+02 0.62797620613E+02 0.64403636014E+02
 0.62797533643E+02 0.58331134465E+02 0.51923290844E+02 0.44736409799E+02 0.37841728983E+02
 0.31988483878E+02 0.27483417319E+02 0.24182425021E+02 0.21973498771E+02 0.20868745555E+02
 0.20761657314E+02 0.21480698201E+02 0.22817828717E+02 0.24531513578E+02 0.26392221417E+02
 0.28133482453E+02 0.29395064135E+02 0.43863680229E+02 0.42905789719E+02 0.40270055815E+02
 0.36569655962E+02 0.32551448263E+02 0.28843735488E+02 0.25793037815E+02 0.23461111864E+02
 0.21973577342E+02 0.21463776365E+02 0.21973577342E+02 0.23461111864E+02 0.25793037815E+02
 0.28843735488E+02 0.32551448263E+02 0.36569655962E+02 0.40270055815E+02 0.42905789719E+02
 0.43863680229E+02 0.42905740352E+02 0.40269966799E+02 0.36569543367E+02 0.32551328980E+02
 0.28843622032E+02 0.25792936260E+02 0.23461023388E+02 0.21973498787E+02 0.21463701451E+02
 0.21973498787E+02 0.23461023388E+02 0.25792936260E+02 0.28843622032E+02 0.32551328980E+02
 0.36569543367E+02 0.40269966799E+02 0.42905740352E+02 0.64403636014E+02 0.62797620613E+02
 0.58331291080E+02 0.51923487274E+02 0.44736612832E+02 0.37841912575E+02 0.31988635878E+02
 0.27483538321E+02 0.24182520996E+02 0.21973577350E+02 0.20868815089E+02 0.20761724607E+02
 0.21480767129E+02 0.22817899499E+02 0.24531582760E+02 0.26392283002E+02 0.28133529298E+02
 0.29395089585E+02 0.29858188670E+02 0.29395064135E+02 0.28133482453E+02 0.26392221417E+02
 0.24531513578E+02 0.22817828717E+02 0.21480698201E+02 0.20761657314E+02 0.20868745555E+02
 0.21973498771E+02 0.24182425021E+02 0.27483417319E+02 0.31988483878E+02 0.37841728983E+02
 0.44736409799E+02 0.51923290844E+02 0.58331134465E+02 0.62797533643E+02 0.89471714189E+02
 0.87231030074E+02 0.80948605110E+02 0.71765306283E+02 0.61128566211E+02 0.50441488022E+02
 0.40859572224E+02 0.33142459330E+02 0.27483538357E+02 0.23461111900E+02 0.20761724629E+02
 0.19242399444E+02 0.18651510771E+02 0.18725017140E+02 0.19223201828E+02 0.19929085145E+02
 0.20638356494E+02 0.21161845574E+02 0.21354876346E+02 0.21161832587E+02 0.20638331899E+02
 0.19929051319E+02 0.19223161458E+02 0.18724972308E+02 0.18651461879E+02 0.19242344183E+02
 0.20761657276E+02 0.23461023323E+02 0.27483417259E+02 0.33142291838E+02 0.40859345464E+02
 0.50441203807E+02 0.61128249952E+02 0.71765003403E+02 0.80948367212E+02 0.87230899552E+02
 0.11527879873E+03 0.11254949738E+03 0.10487829304E+03 0.93549173171E+02 0.80085207169E+02
 0.65930773347E+02 0.52442649807E+02 0.40859572357E+02 0.31988636005E+02 0.25793037909E+02
 0.21480767191E+02 0.18651510801E+02 0.16989326932E+02 0.16133664378E+02 0.15786285796E+02
 0.15731872991E+02 0.15818074950E+02 0.15928103351E+02 0.15975978688E+02 0.15928096933E+02
 0.15818062317E+02 0.15731854479E+02 0.15786261708E+02 0.16133634530E+02 0.16989289716E+02
 0.18651461837E+02 0.21480698106E+02 0.25792936112E+02 0.31988483694E+02 0.40859345295E+02
 0.52442332631E+02 0.65930377847E+02 0.80084777818E+02 0.93548774837E+02 0.10487798947E+03
 0.11254933440E+03 0.13929391875E+03 0.13616511832E+03 0.12745074108E+03 0.11469079753E+03
 0.99408538283E+02 0.82764599916E+02 0.65930773728E+02 0.50441488453E+02 0.37841912885E+02
 0.28843735678E+02 0.22817899617E+02 0.18725017205E+02 0.16133664403E+02 0.14579168172E+02
 0.13667550658E+02 0.13138549498E+02 0.12845534942E+02 0.12705428654E+02 0.12665529576E+02
 0.12705425816E+02 0.12845528847E+02 0.13138539451E+02 0.13667535812E+02 0.14579147222E+02
 0.16133634505E+02 0.18724972229E+02 0.22817828556E+02 0.28843621771E+02 0.37841728591E+02
 0.50441203312E+02 0.65930377436E+02 0.82764120418E+02 0.99408039407E+02 0.11469035601E+03
 0.12745041927E+03 0.13616495117E+03 0.16217749191E+03 0.15847982014E+03 0.14841990995E+03
 0.13421662134E+03 0.11763899092E+03 0.99408538954E+02 0.80085208132E+02 0.61128567068E+02
 0.44736613398E+02 0.32551448580E+02 0.24531582939E+02 0.19223201924E+02 0.15786285837E+02
 0.13667550667E+02 0.12362368806E+02 0.11538665285E+02 0.11024819149E+02 0.10743001030E+02
 0.10653840572E+02 0.10743000397E+02 0.11024817068E+02 0.11538660471E+02 0.12362359854E+02
 0.13667535809E+02 0.15786261673E+02 0.19223161350E+02 0.24531513357E+02 0.32551328589E+02
 0.44736409145E+02 0.61128249024E+02 0.80084776817E+02 0.99408038725E+02 0.11763849796E+03
 0.13421621157E+03 0.14841962999E+03 0.15847968214E+03 0.18609424651E+03 0.18141491221E+03
 0.16903759045E+03 0.15246244437E+03 0.13421662207E+03 0.11469079885E+03 0.93549174641E+02
 0.71765307498E+02 0.51923488059E+02 0.36569656385E+02 0.26392283221E+02 0.19929085258E+02
 0.15731873034E+02 0.13138549504E+02 0.11538665279E+02 0.10520673275E+02 0.98740678896E+01
 0.95110376610E+01 0.93941584802E+01 0.95110384316E+01 0.98740683943E+01 0.10520671933E+02
 0.11538660482E+02 0.13138539456E+02 0.15731854444E+02 0.19929051199E+02 0.26392221164E+02
 0.36569542884E+02 0.51923289989E+02 0.71765002130E+02 0.93548773337E+02 0.11469035469E+03
 0.13421621085E+03 0.15246212899E+03 0.16903739472E+03 0.18141482406E+03 0.21055637663E+03
 0.20455232282E+03 0.18898718602E+03 0.16903759092E+03 0.14841991102E+03 0.12745074258E+03
 0.10487829458E+03 0.80948606352E+02 0.58331291877E+02 0.40270056241E+02 0.28133529508E+02
 0.20638356595E+02 0.15818074985E+02 0.12845534941E+02 0.11024819136E+02 0.98740678815E+01
 0.91441714314E+01 0.87328016428E+01 0.85997794825E+01 0.87328029700E+01 0.91441730962E+01
 0.98740684041E+01 0.11024817086E+02 0.12845528857E+02 0.15818062288E+02 0.20638331794E+02
 0.28133482224E+02 0.40269966339E+02 0.58331133627E+02 0.80948365939E+02 0.10487798791E+03
 0.12745041778E+03 0.14841962893E+03 0.16903739425E+03 0.18898707985E+03 0.20455228241E+03
 0.23025027936E+03 0.22304570204E+03 0.20455232296E+03 0.18141491264E+03 0.15847982091E+03
 0.13616511932E+03 0.11254949837E+03 0.87231030870E+02 0.62797621126E+02 0.42905789993E+02
 0.29395089717E+02 0.21161845635E+02 0.15928103369E+02 0.12705428650E+02 0.10743001019E+02
 0.95110376527E+01 0.87328016399E+01 0.82943908012E+01 0.81524827247E+01 0.82943917737E+01
 0.87328029731E+01 0.95110384407E+01 0.10743000410E+02 0.12705425823E+02 0.15928096916E+02
 0.21161832525E+02 0.29395063997E+02 0.42905740068E+02 0.62797533120E+02 0.87230898747E+02
 0.11254933340E+03 0.13616495017E+03 0.15847968137E+03 0.18141482363E+03 0.20455228227E+03
 0.22304569048E+03 0.23025027936E+03 0.22304569048E+03 0.20455228241E+03 0.18141482406E+03
 0.15847968214E+03 0.13616495117E+03 0.11254933440E+03 0.87230899552E+02 0.62797533643E+02
 0.42905740352E+02 0.29395064135E+02 0.21161832587E+02 0.15928096933E+02 0.12705425816E+02
 0.10743000397E+02 0.95110384316E+01 0.87328029700E+01 0.82943917737E+01 0.81524827247E+01
 0.82943908012E+01 0.87328016428E+01 0.95110376610E+01 0.10743001030E+02 0.12705428654E+02
 0.15928103351E+02 0.21161845574E+02 0.29395089585E+02 0.42905789719E+02 0.62797620613E+02
 0.87231030074E+02 0.11254949738E+03 0.13616511832E+03 0.15847982014E+03 0.18141491221E+03
 0.20455232282E+03 0.22304570204E+03 0.22304569048E+03 0.21628784541E+03 0.19888893019E+03
 0.17695482478E+03 0.15490864582E+03 0.13311477468E+03 0.10988325644E+03 0.85048189474E+02
 0.61239442362E+02 0.41979172170E+02 0.28946054141E+02 0.20971382834E+02 0.15879803961E+02
 0.12743166673E+02 0.10829275341E+02 0.96248587059E+01 0.88628131571E+01 0.84333680375E+01
 0.82943908012E+01 0.84333658356E+01 0.88628099824E+01 0.96248563816E+01 0.10829275579E+02
 0.12743171074E+02 0.15879815161E+02 0.20971406389E+02 0.28946100643E+02 0.41979261527E+02
 0.61239597096E+02 0.85048415844E+02 0.10988352813E+03 0.13311503536E+03 0.15490883540E+03
 0.17695491457E+03 0.19888894052E+03 0.21628782883E+03 0.20455228227E+03 0.19888893019E+03
 0.18415428357E+03 0.16510996054E+03 0.14515978238E+03 0.12460352251E+03 0.10238556706E+03
 0.78928651110E+02 0.56907454990E+02 0.39430053007E+02 0.27722270683E+02 0.20455063410E+02
 0.15768227006E+02 0.12876702804E+02 0.11102401701E+02 0.99786502231E+01 0.92650265757E+01
 0.88628129752E+01 0.87328016399E+01 0.88628099824E+01 0.92650221963E+01 0.99786468628E+01
 0.11102401666E+02 0.12876708298E+02 0.15768241575E+02 0.20455094296E+02 0.27722330963E+02
 0.39430166197E+02 0.56907647321E+02 0.78928927237E+02 0.10238588942E+03 0.12460381618E+03
 0.14515997153E+03 0.16511001583E+03 0.18415424412E+03 0.19888887782E+03 0.18141482363E+03
 0.17695482478E+03 0.16510996072E+03 0.14911445517E+03 0.13131061861E+03 0.11210548352E+03
 0.91305883681E+02 0.69986214231E+02 0.50695687875E+02 0.35852087481E+02 0.26030725476E+02
 0.19755844550E+02 0.15678399999E+02 0.13158235177E+02 0.11601274473E+02 0.10609146055E+02
 0.99786509776E+01 0.96248592563E+01 0.95110376527E+01 0.96248563816E+01 0.99786468655E+01
 0.10609143197E+02 0.11601275340E+02 0.13158242247E+02 0.15678417239E+02 0.19755879807E+02
 0.26030792174E+02 0.35852207998E+02 0.50695888128E+02 0.69986498733E+02 0.91306212994E+02
 0.11210577860E+03 0.13131079969E+03 0.14911449303E+03 0.16510990070E+03 0.17695475844E+03
 0.15847968137E+03 0.15490864582E+03 0.14515978283E+03 0.13131061900E+03 0.11504351969E+03
 0.97106738509E+02 0.78141210298E+02 0.59638204381E+02 0.43735116147E+02 0.31967130866E+02
 0.24216880134E+02 0.19060030842E+02 0.15725126352E+02 0.13669087821E+02 0.12401560280E+02
 0.11601275755E+02 0.11102403821E+02 0.10829277338E+02 0.10743001019E+02 0.10829275579E+02
 0.11102401669E+02 0.11601275342E+02 0.12401563821E+02 0.13669097687E+02 0.15725146381E+02
 0.19060068430E+02 0.24216947558E+02 0.31967246241E+02 0.43735301988E+02 0.59638467095E+02
 0.78141518060E+02 0.97107022101E+02 0.11504370566E+03 0.13131067650E+03 0.14515974752E+03
 0.15490859637E+03 0.13616495017E+03 0.13311477468E+03 0.12460352316E+03 0.11210548427E+03
 0.97106738941E+02 0.80781062427E+02 0.64325521983E+02 0.49260035257E+02 0.37065695892E+02
 0.28379354501E+02 0.22538226081E+02 0.18567450875E+02 0.16056734798E+02 0.14551346425E+02
 0.13669089160E+02 0.13158237948E+02 0.12876706670E+02 0.12743170701E+02 0.12705428650E+02
 0.12743171074E+02 0.12876708296E+02 0.13158242240E+02 0.13669097679E+02 0.14551361015E+02
 0.16056758627E+02 0.18567490064E+02 0.22538290752E+02 0.28379458075E+02 0.37065855095E+02
 0.49260258407E+02 0.64325789769E+02 0.80781324104E+02 0.97106934707E+02 0.11210558174E+03
 0.12460353909E+03 0.13311476061E+03 0.11254933340E+03 0.10988325644E+03 0.10238556776E+03
 0.91305884560E+02 0.78141210948E+02 0.64325522263E+02 0.51202916329E+02 0.39978332125E+02
 0.31408665714E+02 0.25416105716E+02 0.21229077275E+02 0.18488646385E+02 0.16881636844E+02
 0.16056735713E+02 0.15725128786E+02 0.15678404294E+02 0.15768233056E+02 0.15879810945E+02
 0.15928103369E+02 0.15879815161E+02 0.15768241557E+02 0.15678417208E+02 0.15725146349E+02
 0.16056758607E+02 0.16881667032E+02 0.18488688267E+02 0.21229138397E+02 0.25416195994E+02
 0.31408795741E+02 0.39978509791E+02 0.51203133664E+02 0.64325748417E+02 0.78141403185E+02
 0.91306012141E+02 0.10238562955E+03 0.10988327580E+03 0.87230898747E+02 0.85048189474E+02
 0.78928651686E+02 0.69986214988E+02 0.59638204991E+02 0.49260035596E+02 0.39978332240E+02
 0.32519945477E+02 0.27048281527E+02 0.23140501536E+02 0.20523711628E+02 0.19055376508E+02
 0.18488646119E+02 0.18567451451E+02 0.19060033263E+02 0.19755849820E+02 0.20455072115E+02
 0.20971394553E+02 0.21161845635E+02 0.20971406389E+02 0.20455094248E+02 0.19755879736E+02
 0.19060068361E+02 0.18567490015E+02 0.18488688244E+02 0.19055424825E+02 0.20523771510E+02
 0.23140580345E+02 0.27048386498E+02 0.32520081670E+02 0.39978497910E+02 0.49260215300E+02
 0.59638372246E+02 0.69986344901E+02 0.78928733262E+02 0.85048226478E+02 0.62797533120E+02
 0.61239442362E+02 0.56907455373E+02 0.50695688387E+02 0.43735116578E+02 0.37065696157E+02
 0.31408665835E+02 0.27048281562E+02 0.23836644035E+02 0.21691453638E+02 0.20622438541E+02
 0.20523709501E+02 0.21229074016E+02 0.22538222903E+02 0.24216879056E+02 0.26030729144E+02
 0.27722281583E+02 0.28946073303E+02 0.29395089717E+02 0.28946100643E+02 0.27722330867E+02
 0.26030792041E+02 0.24216947436E+02 0.22538290666E+02 0.21229138351E+02 0.20523771493E+02
 0.20622502488E+02 0.21691525682E+02 0.23836730289E+02 0.27048385725E+02 0.31408787431E+02
 0.37065828282E+02 0.43735244937E+02 0.50695796221E+02 0.56907530493E+02 0.61239480043E+02
 0.42905740068E+02 0.41979172170E+02 0.39430053219E+02 0.35852087772E+02 0.31967131121E+02