   4   4   0   0
  0.1572262E+02  0.3976750E-09  0.3976750E-09  0.3976750E-09  0.5000000E-15
  1.000000000000000E-004
  CAR 
 Pt                                      
     42.67692450     -1.27862977  301     10.56137378      1.00000000
     -1.279  0.0000E+00  0.0000E+00
     -1.132  0.0000E+00  0.0000E+00
     -0.986  0.0000E+00  0.0000E+00
     -0.839  0.0000E+00  0.0000E+00
     -0.693  0.0000E+00  0.0000E+00
     -0.546  0.0000E+00  0.0000E+00
     -0.400  0.0000E+00  0.0000E+00
     -0.253  0.0000E+00  0.0000E+00
     -0.106  0.0000E+00  0.0000E+00
      0.040  0.0000E+00  0.0000E+00
      0.187  0.0000E+00  0.0000E+00
      0.333  0.0000E+00  0.0000E+00
      0.480  0.9532E-13  0.1397E-13
      0.626  0.8351E-04  0.1224E-04
      0.773  0.2436E-01  0.3582E-02
      0.919  0.7363E-01  0.1437E-01
      1.066  0.1097E+00  0.3044E-01
      1.212  0.2982E+00  0.7412E-01
      1.359  0.1979E+00  0.1031E+00
      1.505  0.9415E-01  0.1169E+00
      1.652  0.1884E+00  0.1445E+00
      1.798  0.5722E+00  0.2284E+00
      1.945  0.5977E+00  0.3159E+00
      2.091  0.3393E-02  0.3164E+00
      2.238  0.2593E+00  0.3544E+00
      2.384  0.7121E+00  0.4588E+00
      2.531  0.3218E+00  0.5059E+00
      2.677  0.8003E+00  0.6232E+00
      2.824  0.5190E+00  0.6992E+00
      2.970  0.1185E+00  0.7166E+00
      3.117  0.1734E+01  0.9706E+00
      3.263  0.6284E+00  0.1063E+01
      3.410  0.2280E+00  0.1096E+01
      3.556  0.1558E+01  0.1324E+01
      3.703  0.2726E+01  0.1724E+01
      3.850  0.2044E+01  0.2023E+01
      3.996  0.4168E+01  0.2634E+01
      4.143  0.2585E+01  0.3013E+01
      4.289  0.5125E+01  0.3764E+01
      4.436  0.5691E+01  0.4597E+01
      4.582  0.7009E+01  0.5624E+01
      4.729  0.4988E+01  0.6355E+01
      4.875  0.5194E+01  0.7116E+01
      5.022  0.8209E+01  0.8319E+01
      5.168  0.2666E+01  0.8710E+01
      5.315  0.5619E+01  0.9533E+01
      5.461  0.4600E+01  0.1021E+02
      5.608  0.4119E+01  0.1081E+02
      5.754  0.5928E+01  0.1168E+02
      5.901  0.5896E+01  0.1254E+02
      6.047  0.6836E+01  0.1354E+02
      6.194  0.6103E+01  0.1444E+02
      6.340  0.8548E+01  0.1569E+02
      6.487  0.7191E+01  0.1674E+02
      6.633  0.6552E+01  0.1770E+02
      6.780  0.1027E+02  0.1921E+02
      6.926  0.5284E+01  0.1998E+02
      7.073  0.7072E+01  0.2102E+02
      7.219  0.4516E+01  0.2168E+02
      7.366  0.4309E+01  0.2231E+02
      7.512  0.4432E+01  0.2296E+02
      7.659  0.1804E+01  0.2323E+02
      7.806  0.3847E+01  0.2379E+02
      7.952  0.8182E+01  0.2499E+02
      8.099  0.5816E+01  0.2584E+02
      8.245  0.6416E+01  0.2678E+02
      8.392  0.5140E+01  0.2753E+02
      8.538  0.5064E+01  0.2828E+02
      8.685  0.5601E+01  0.2910E+02
      8.831  0.9625E+01  0.3051E+02
      8.978  0.3217E+01  0.3098E+02
      9.124  0.5970E+01  0.3185E+02
      9.271  0.5380E+01  0.3264E+02
      9.417  0.6532E+01  0.3360E+02
      9.564  0.4492E+01  0.3426E+02
      9.710  0.3045E+01  0.3470E+02
      9.857  0.4078E+01  0.3530E+02
     10.003  0.6967E+01  0.3632E+02
     10.150  0.6019E+01  0.3720E+02
     10.296  0.6351E+01  0.3813E+02
     10.443  0.6685E+01  0.3911E+02
     10.589  0.8106E+01  0.4030E+02
     10.736  0.7016E+01  0.4133E+02
     10.882  0.3285E+01  0.4181E+02
     11.029  0.2253E+01  0.4214E+02
     11.175  0.1450E+01  0.4235E+02
     11.322  0.7124E+00  0.4246E+02
     11.468  0.4044E+01  0.4305E+02
     11.615  0.1254E+01  0.4323E+02
     11.762  0.7440E+00  0.4334E+02
     11.908  0.5174E+00  0.4342E+02
     12.055  0.5327E+00  0.4350E+02
     12.201  0.2065E+00  0.4353E+02
     12.348  0.1121E+01  0.4369E+02
     12.494  0.4121E+01  0.4429E+02
     12.641  0.1357E+01  0.4449E+02
     12.787  0.5541E+00  0.4457E+02
     12.934  0.8249E+00  0.4470E+02
     13.080  0.3633E-03  0.4470E+02
     13.227  0.1115E+01  0.4486E+02
     13.373  0.2880E+01  0.4528E+02
     13.520  0.7814E+00  0.4540E+02
     13.666  0.4693E+00  0.4546E+02
     13.813  0.5055E+00  0.4554E+02
     13.959  0.9761E+00  0.4568E+02
     14.106  0.1437E+01  0.4589E+02
     14.252  0.1403E+01  0.4610E+02
     14.399  0.1041E+01  0.4625E+02
     14.545  0.1820E+01  0.4652E+02
     14.692  0.6183E+00  0.4661E+02
     14.838  0.1333E+01  0.4680E+02
     14.985  0.3595E-01  0.4681E+02
     15.131  0.4465E+00  0.4687E+02
     15.278  0.9189E+00  0.4701E+02
     15.424  0.5147E+00  0.4708E+02
     15.571  0.2249E+01  0.4741E+02
     15.718  0.1313E+01  0.4760E+02
     15.864  0.1084E+01  0.4776E+02
     16.011  0.1271E+01  0.4795E+02
     16.157  0.1229E+01  0.4813E+02
     16.304  0.4090E-01  0.4814E+02
     16.450  0.2278E+01  0.4847E+02
     16.597  0.3713E+01  0.4901E+02
     16.743  0.6946E+00  0.4912E+02
     16.890  0.1199E-01  0.4912E+02
     17.036  0.3974E+00  0.4918E+02
     17.183  0.5627E+00  0.4926E+02
     17.329  0.2270E+01  0.4959E+02
     17.476  0.2402E+01  0.4994E+02
     17.622  0.2013E+01  0.5024E+02
     17.769  0.1469E+01  0.5045E+02
     17.915  0.3350E+00  0.5050E+02
     18.062  0.1487E+01  0.5072E+02
     18.208  0.1418E+01  0.5093E+02
     18.355  0.1270E+01  0.5111E+02
     18.501  0.7795E+00  0.5123E+02
     18.648  0.1314E+01  0.5142E+02
     18.794  0.2789E+00  0.5146E+02
     18.941  0.1077E+01  0.5162E+02
     19.087  0.2312E+01  0.5196E+02
     19.234  0.1101E+01  0.5212E+02
     19.380  0.1054E+01  0.5227E+02
     19.527  0.2477E+01  0.5264E+02
     19.674  0.1210E+01  0.5281E+02
     19.820  0.5126E+00  0.5289E+02
     19.967  0.1101E+01  0.5305E+02
     20.113  0.1365E+01  0.5325E+02
     20.260  0.1129E+01  0.5342E+02
     20.406  0.7390E+00  0.5352E+02
     20.553  0.2049E+01  0.5382E+02
     20.699  0.1271E+01  0.5401E+02
     20.846  0.3511E+01  0.5452E+02
     20.992  0.4450E+00  0.5459E+02
     21.139  0.7388E+00  0.5470E+02
     21.285  0.9053E+00  0.5483E+02
     21.432  0.1767E+01  0.5509E+02
     21.578  0.1875E+01  0.5536E+02
     21.725  0.1812E+01  0.5563E+02
     21.871  0.1771E+01  0.5589E+02
     22.018  0.2102E+01  0.5620E+02
     22.164  0.8507E+00  0.5632E+02
     22.311  0.2146E+01  0.5664E+02
     22.457  0.3184E+01  0.5710E+02
     22.604  0.6697E+00  0.5720E+02
     22.750  0.1511E+00  0.5722E+02
     22.897  0.6665E+00  0.5732E+02
     23.043  0.3083E+01  0.5777E+02
     23.190  0.1260E+01  0.5796E+02
     23.336  0.3005E+01  0.5840E+02
     23.483  0.2678E+01  0.5879E+02
     23.630  0.2445E+01  0.5915E+02
     23.776  0.4163E+01  0.5976E+02
     23.923  0.2008E+00  0.5979E+02
     24.069  0.1317E+01  0.5998E+02
     24.216  0.9293E+00  0.6012E+02
     24.362  0.1707E+01  0.6037E+02
     24.509  0.3101E+01  0.6082E+02
     24.655  0.1594E+01  0.6105E+02
     24.802  0.1472E+01  0.6127E+02
     24.948  0.3151E+01  0.6173E+02
     25.095  0.1516E+01  0.6195E+02
     25.241  0.3920E+01  0.6253E+02
     25.388  0.4539E+01  0.6319E+02
     25.534  0.1803E+01  0.6346E+02
     25.681  0.3565E+01  0.6398E+02
     25.827  0.3617E+01  0.6451E+02
     25.974  0.2646E+01  0.6490E+02
     26.120  0.2134E+01  0.6521E+02
     26.267  0.7502E+00  0.6532E+02
     26.413  0.1259E+01  0.6550E+02
     26.560  0.4094E+01  0.6610E+02
     26.706  0.5812E+01  0.6696E+02
     26.853  0.3295E+01  0.6744E+02
     26.999  0.1196E+01  0.6761E+02
     27.146  0.3136E+01  0.6807E+02
     27.292  0.1418E+01  0.6828E+02
     27.439  0.2118E+01  0.6859E+02
     27.586  0.2998E+01  0.6903E+02
     27.732  0.1515E+01  0.6925E+02
     27.879  0.8078E+00  0.6937E+02
     28.025  0.2572E+01  0.6975E+02
     28.172  0.2715E+01  0.7015E+02
     28.318  0.2270E+01  0.7048E+02
     28.465  0.1248E+01  0.7066E+02
     28.611  0.6297E+00  0.7075E+02
     28.758  0.1542E+01  0.7098E+02
     28.904  0.7696E+00  0.7109E+02
     29.051  0.2148E+01  0.7141E+02
     29.197  0.2654E+01  0.7180E+02
     29.344  0.2849E+01  0.7221E+02
     29.490  0.1132E+01  0.7238E+02
     29.637  0.3396E+01  0.7288E+02
     29.783  0.3213E+01  0.7335E+02
     29.930  0.3353E+01  0.7384E+02
     30.076  0.6876E+00  0.7394E+02
     30.223  0.3696E+01  0.7448E+02
     30.369  0.2886E+01  0.7490E+02
     30.516  0.4439E+01  0.7555E+02
     30.662  0.4984E+01  0.7628E+02
     30.809  0.2966E+01  0.7672E+02
     30.955  0.3493E+01  0.7723E+02
     31.102  0.2507E+01  0.7760E+02
     31.248  0.5259E+00  0.7768E+02
     31.395  0.1682E+01  0.7792E+02
     31.542  0.1777E+01  0.7818E+02
     31.688  0.3512E+01  0.7870E+02
     31.835  0.6565E+00  0.7879E+02
     31.981  0.4297E+00  0.7886E+02
     32.128  0.1969E+01  0.7914E+02
     32.274  0.2436E+01  0.7950E+02
     32.421  0.1755E+01  0.7976E+02
     32.567  0.2688E+01  0.8015E+02
     32.714  0.1212E+01  0.8033E+02
     32.860  0.8451E+00  0.8045E+02
     33.007  0.1598E+01  0.8069E+02
     33.153  0.1731E+01  0.8094E+02
     33.300  0.2913E+01  0.8137E+02
     33.446  0.1079E+01  0.8153E+02
     33.593  0.5096E+00  0.8160E+02
     33.739  0.1978E+01  0.8189E+02
     33.886  0.1096E+01  0.8205E+02
     34.032  0.1219E+01  0.8223E+02
     34.179  0.1343E+01  0.8243E+02
     34.325  0.3078E+01  0.8288E+02
     34.472  0.2546E+01  0.8325E+02
     34.618  0.3540E+01  0.8377E+02
     34.765  0.2915E+01  0.8420E+02
     34.911  0.2265E+01  0.8453E+02
     35.058  0.3027E+01  0.8497E+02
     35.204  0.8904E+00  0.8510E+02
     35.351  0.2258E+01  0.8543E+02
     35.498  0.3069E+01  0.8588E+02
     35.644  0.9086E+00  0.8602E+02
     35.791  0.9018E+00  0.8615E+02
     35.937  0.2709E+00  0.8619E+02
     36.084  0.1291E+01  0.8638E+02
     36.230  0.2569E+01  0.8675E+02
     36.377  0.4141E+01  0.8736E+02
     36.523  0.5250E+01  0.8813E+02
     36.670  0.4276E+01  0.8876E+02
     36.816  0.3172E+01  0.8922E+02
     36.963  0.1280E+01  0.8941E+02
     37.109  0.2043E+01  0.8971E+02
     37.256  0.7691E+00  0.8982E+02
     37.402  0.2281E+01  0.9015E+02
     37.549  0.4676E+01  0.9084E+02
     37.695  0.6031E+01  0.9172E+02
     37.842  0.6465E+01  0.9267E+02
     37.988  0.4145E+01  0.9328E+02
     38.135  0.2185E+01  0.9360E+02
     38.281  0.3973E+01  0.9418E+02
     38.428  0.2161E+01  0.9450E+02
     38.574  0.2913E+01  0.9492E+02
     38.721  0.3144E+01  0.9538E+02
     38.867  0.2468E+01  0.9575E+02
     39.014  0.1431E+01  0.9596E+02
     39.160  0.2633E+00  0.9599E+02
     39.307  0.1692E-01  0.9600E+02
     39.454  0.8614E-08  0.9600E+02
     39.600  0.0000E+00  0.9600E+02
     39.747  0.0000E+00  0.9600E+02
     39.893  0.0000E+00  0.9600E+02
     40.040  0.0000E+00  0.9600E+02
     40.186  0.0000E+00  0.9600E+02
     40.333  0.0000E+00  0.9600E+02
     40.479  0.6263E-09  0.9600E+02
     40.626  0.2343E-02  0.9600E+02
     40.772  0.2424E-01  0.9600E+02
     40.919  0.7929E-04  0.9600E+02
     41.065  0.9037E-13  0.9600E+02
     41.212  0.0000E+00  0.9600E+02
     41.358  0.0000E+00  0.9600E+02
     41.505  0.0000E+00  0.9600E+02
     41.651  0.0000E+00  0.9600E+02
     41.798  0.0000E+00  0.9600E+02
     41.944  0.0000E+00  0.9600E+02
     42.091  0.0000E+00  0.9600E+02
     42.237  0.0000E+00  0.9600E+02
     42.384  0.0000E+00  0.9600E+02
     42.530  0.0000E+00  0.9600E+02
     42.677  0.0000E+00  0.9600E+02
