 DBCSR| CPU Multiplication driver                                           BLAS (U)
 DBCSR| Multrec recursion limit                                              512 (U)
 DBCSR| Multiplication stack size                                           1000 (D)
 DBCSR| Maximum elements for images                                    UNLIMITED (U)
 DBCSR| Multiplicative factor virtual images                                   1 (U)
 DBCSR| Use multiplication densification                                       T (D)
 DBCSR| Multiplication size stacks                                             3 (U)
 DBCSR| Use memory pool for CPU allocation                                     F (U)
 DBCSR| Number of 3D layers                                               SINGLE (U)
 DBCSR| Use MPI memory allocation                                              F (U)
 DBCSR| Use RMA algorithm                                                      F (U)
 DBCSR| Use Communication thread                                               T (U)
 DBCSR| Communication thread load                                             45 (D)
 DBCSR| MPI: My process id                                                     0
 DBCSR| MPI: Number of processes                                               8
 DBCSR| OMP: Current number of threads                                        12
 DBCSR| OMP: Max number of threads                                            12
 DBCSR| Split modifier for TAS multiplication algorithm                  1.0E+00 (U)


  **** **** ******  **  PROGRAM STARTED AT               2025-08-04 17:10:59.781
 ***** ** ***  *** **   PROGRAM STARTED ON                          i04r11c04s12
 **    ****   ******    PROGRAM STARTED BY                               di38fab
 ***** **    ** ** **   PROGRAM PROCESS ID                               3832228
  **** **  *******  **  PROGRAM STARTED IN /hppfs/scratch/04/di38fab/09_GTH/Delt
                                           a_Set/Ge/aug-SZV-MOLOPT-GTH-tier-1/8x
                                           8x8

 CP2K| version string:                 CP2K version 2025.1 (Development Version)
 CP2K| source code revision number:                                  git:3130539
 CP2K| cp2kflags: omp libint fftw3 libxc parallel scalapack max_contr=4         
 CP2K| is freely available from                            https://www.cp2k.org/
 CP2K| Program compiled at                         Tue Jun  3 16:14:32 CEST 2025
 CP2K| Program compiled on                                               login01
 CP2K| Program compiled for                                        Supermuc-foss
 CP2K| Data directory path                  /hppfs/work/pn36zo/di38fab/cp2k/data
 CP2K| Input file name                                                    GW.inp

 GLOBAL| Force Environment number                                              1
 GLOBAL| Basis set file name            /hppfs/scratch/04/di38fab/09_GTH/BASIS_A
 GLOBAL| Potential file name            /hppfs/work/pn36zo/di38fab/cp2k/data/GTH
 GLOBAL| MM Potential file name                                     MM_POTENTIAL
 GLOBAL| Coordinate file name                                             Ge.cif
 GLOBAL| Method name                                                        CP2K
 GLOBAL| Project name                                                       WSe2
 GLOBAL| Run type                                                         ENERGY
 GLOBAL| FFT library                                                       FFTW3
 GLOBAL| Diagonalization library                                       ScaLAPACK
 GLOBAL| Cholesky decomposition library                                ScaLAPACK
 GLOBAL| DGEMM library                                                      BLAS
 GLOBAL| Orthonormality check for eigenvectors                          DISABLED
 GLOBAL| Matrix multiplication library                                 ScaLAPACK
 GLOBAL| All-to-all communication in single precision                          F
 GLOBAL| FFTs using library dependent lengths                                  F
 GLOBAL| Grid backend                                                       AUTO
 GLOBAL| Global print level                                               MEDIUM
 GLOBAL| MPI I/O enabled                                                       T
 GLOBAL| Total number of message passing processes                             8
 GLOBAL| Number of threads for this process                                   12
 GLOBAL| This output is from process                                           0
 GLOBAL| OpenMP stack size per thread (OMP_STACKSIZE)                    default
 GLOBAL| CPU model name             Intel(R) Xeon(R) Platinum 8174 CPU @ 3.10GHz

 MEMORY| system memory details [Kb]
 MEMORY|                        rank 0           min           max       average
 MEMORY| MemTotal             98436664      98436664      98436708      98436686
 MEMORY| MemFree              84541072      84541072      86611968      85576520
 MEMORY| Buffers                     0             0             0             0
 MEMORY| Cached                2378588       2327564       2378588       2353076
 MEMORY| Slab                  1267524        957696       1267524       1112610
 MEMORY| SReclaimable           280320        208616        280320        244468
 MEMORY| MemLikelyFree        87199980      87199980      89148148      88174064


 *** Fundamental physical constants (SI units) ***

 *** Literature: B. J. Mohr and B. N. Taylor,
 ***             CODATA recommended values of the fundamental physical
 ***             constants: 2006, Web Version 5.1
 ***             http://physics.nist.gov/constants

 Speed of light in vacuum [m/s]                             2.99792458000000E+08
 Magnetic constant or permeability of vacuum [N/A**2]       1.25663706143592E-06
 Electric constant or permittivity of vacuum [F/m]          8.85418781762039E-12
 Planck constant (h) [J*s]                                  6.62606896000000E-34
 Planck constant (h-bar) [J*s]                              1.05457162825177E-34
 Elementary charge [C]                                      1.60217648700000E-19
 Electron mass [kg]                                         9.10938215000000E-31
 Electron g factor [ ]                                     -2.00231930436220E+00
 Proton mass [kg]                                           1.67262163700000E-27
 Fine-structure constant                                    7.29735253760000E-03
 Rydberg constant [1/m]                                     1.09737315685270E+07
 Avogadro constant [1/mol]                                  6.02214179000000E+23
 Boltzmann constant [J/K]                                   1.38065040000000E-23
 Atomic mass unit [kg]                                      1.66053878200000E-27
 Bohr radius [m]                                            5.29177208590000E-11

 *** Conversion factors ***

 [u] -> [a.u.]                                              1.82288848426455E+03
 [Angstrom] -> [Bohr] = [a.u.]                              1.88972613288564E+00
 [a.u.] = [Bohr] -> [Angstrom]                              5.29177208590000E-01
 [a.u.] -> [s]                                              2.41888432650478E-17
 [a.u.] -> [fs]                                             2.41888432650478E-02
 [a.u.] -> [J]                                              4.35974393937059E-18
 [a.u.] -> [N]                                              8.23872205491840E-08
 [a.u.] -> [K]                                              3.15774647902944E+05
 [a.u.] -> [kJ/mol]                                         2.62549961709828E+03
 [a.u.] -> [kcal/mol]                                       6.27509468713739E+02
 [a.u.] -> [Pa]                                             2.94210107994716E+13
 [a.u.] -> [bar]                                            2.94210107994716E+08
 [a.u.] -> [atm]                                            2.90362800883016E+08
 [a.u.] -> [eV]                                             2.72113838565563E+01
 [a.u.] -> [Hz]                                             6.57968392072181E+15
 [a.u.] -> [1/cm] (wave numbers)                            2.19474631370540E+05
 [a.u./Bohr**2] -> [1/cm]                                   5.14048714338585E+03
 

 CELL_TOP| Volume [angstrom^3]:                                        47.819919
 CELL_TOP| Vector a [angstrom     4.074     0.000     0.000   |a| =     4.074190
 CELL_TOP| Vector b [angstrom     2.037     3.528     0.000   |b| =     4.074190
 CELL_TOP| Vector c [angstrom     2.037     1.176     3.327   |c| =     4.074190
 CELL_TOP| Angle (b,c), alpha [degree]:                                60.000000
 CELL_TOP| Angle (a,c), beta  [degree]:                                60.000000
 CELL_TOP| Angle (a,b), gamma [degree]:                                60.000000
 CELL_TOP| Numerically orthorhombic:                                          NO
 CELL_TOP| Periodicity                                                       XYZ

 CELL_CIF| Volume [angstrom^3]:                                        47.819919
 CELL_CIF| Vector a [angstrom     4.074     0.000     0.000   |a| =     4.074190
 CELL_CIF| Vector b [angstrom     2.037     3.528     0.000   |b| =     4.074190
 CELL_CIF| Vector c [angstrom     2.037     1.176     3.327   |c| =     4.074190
 CELL_CIF| Angle (b,c), alpha [degree]:                                60.000000
 CELL_CIF| Angle (a,c), beta  [degree]:                                60.000000
 CELL_CIF| Angle (a,b), gamma [degree]:                                60.000000
 CELL_CIF| Numerically orthorhombic:                                          NO
 CELL_CIF| Periodicity                                                       XYZ

 GENERATE|  Preliminary Number of Bonds generated:                             0
 GENERATE|  Achieved consistency in connectivity generation.

 CELL| Volume [angstrom^3]:                                            47.819919
 CELL| Vector a [angstrom]:       4.074     0.000     0.000   |a| =     4.074190
 CELL| Vector b [angstrom]:       2.037     3.528     0.000   |b| =     4.074190
 CELL| Vector c [angstrom]:       2.037     1.176     3.327   |c| =     4.074190
 CELL| Angle (b,c), alpha [degree]:                                    60.000000
 CELL| Angle (a,c), beta  [degree]:                                    60.000000
 CELL| Angle (a,b), gamma [degree]:                                    60.000000
 CELL| Numerically orthorhombic:                                              NO
 CELL| Periodicity                                                           XYZ

 CELL_REF| Volume [angstrom^3]:                                        47.819919
 CELL_REF| Vector a [angstrom     4.074     0.000     0.000   |a| =     4.074190
 CELL_REF| Vector b [angstrom     2.037     3.528     0.000   |b| =     4.074190
 CELL_REF| Vector c [angstrom     2.037     1.176     3.327   |c| =     4.074190
 CELL_REF| Angle (b,c), alpha [degree]:                                60.000000
 CELL_REF| Angle (a,c), beta  [degree]:                                60.000000
 CELL_REF| Angle (a,b), gamma [degree]:                                60.000000
 CELL_REF| Numerically orthorhombic:                                          NO
 CELL_REF| Periodicity                                                       XYZ

 *** WARNING in cryssym.F:180 :: Symmetry library SPGLIB not available ***


 *******************************************************************************
                                    Kpoints
 *******************************************************************************
 BRILLOUIN| K-point scheme                                        Monkhorst-Pack
 BRILLOUIN| K-Point grid                                             8    8    8
 BRILLOUIN| Accuracy in Symmetry determination                      0.100000E-05
 BRILLOUIN| K-Point point group symmetrization                               OFF
 BRILLOUIN| Wavefunction type                                            COMPLEX
 BRILLOUIN| List of Kpoints [2 Pi/Bohr]                                      256
 BRILLOUIN| Number           Weight            X              Y              Z
 BRILLOUIN|     1           0.00391       -0.43750       -0.43750       -0.43750
 BRILLOUIN|     2           0.00391       -0.43750       -0.43750       -0.31250
 BRILLOUIN|     3           0.00391       -0.43750       -0.43750       -0.18750
 BRILLOUIN|     4           0.00391       -0.43750       -0.43750       -0.06250
 BRILLOUIN|     5           0.00391       -0.43750       -0.43750        0.06250
 BRILLOUIN|     6           0.00391       -0.43750       -0.43750        0.18750
 BRILLOUIN|     7           0.00391       -0.43750       -0.43750        0.31250
 BRILLOUIN|     8           0.00391       -0.43750       -0.43750        0.43750
 BRILLOUIN|     9           0.00391       -0.43750       -0.31250       -0.43750
 BRILLOUIN|    10           0.00391       -0.43750       -0.31250       -0.31250
 BRILLOUIN|    11           0.00391       -0.43750       -0.31250       -0.18750
 BRILLOUIN|    12           0.00391       -0.43750       -0.31250       -0.06250
 BRILLOUIN|    13           0.00391       -0.43750       -0.31250        0.06250
 BRILLOUIN|    14           0.00391       -0.43750       -0.31250        0.18750
 BRILLOUIN|    15           0.00391       -0.43750       -0.31250        0.31250
 BRILLOUIN|    16           0.00391       -0.43750       -0.31250        0.43750
 BRILLOUIN|    17           0.00391       -0.43750       -0.18750       -0.43750
 BRILLOUIN|    18           0.00391       -0.43750       -0.18750       -0.31250
 BRILLOUIN|    19           0.00391       -0.43750       -0.18750       -0.18750
 BRILLOUIN|    20           0.00391       -0.43750       -0.18750       -0.06250
 BRILLOUIN|    21           0.00391       -0.43750       -0.18750        0.06250
 BRILLOUIN|    22           0.00391       -0.43750       -0.18750        0.18750
 BRILLOUIN|    23           0.00391       -0.43750       -0.18750        0.31250
 BRILLOUIN|    24           0.00391       -0.43750       -0.18750        0.43750
 BRILLOUIN|    25           0.00391       -0.43750       -0.06250       -0.43750
 BRILLOUIN|    26           0.00391       -0.43750       -0.06250       -0.31250
 BRILLOUIN|    27           0.00391       -0.43750       -0.06250       -0.18750
 BRILLOUIN|    28           0.00391       -0.43750       -0.06250       -0.06250
 BRILLOUIN|    29           0.00391       -0.43750       -0.06250        0.06250
 BRILLOUIN|    30           0.00391       -0.43750       -0.06250        0.18750
 BRILLOUIN|    31           0.00391       -0.43750       -0.06250        0.31250
 BRILLOUIN|    32           0.00391       -0.43750       -0.06250        0.43750
 BRILLOUIN|    33           0.00391       -0.43750        0.06250       -0.43750
 BRILLOUIN|    34           0.00391       -0.43750        0.06250       -0.31250
 BRILLOUIN|    35           0.00391       -0.43750        0.06250       -0.18750
 BRILLOUIN|    36           0.00391       -0.43750        0.06250       -0.06250
 BRILLOUIN|    37           0.00391       -0.43750        0.06250        0.06250
 BRILLOUIN|    38           0.00391       -0.43750        0.06250        0.18750
 BRILLOUIN|    39           0.00391       -0.43750        0.06250        0.31250
 BRILLOUIN|    40           0.00391       -0.43750        0.06250        0.43750
 BRILLOUIN|    41           0.00391       -0.43750        0.18750       -0.43750
 BRILLOUIN|    42           0.00391       -0.43750        0.18750       -0.31250
 BRILLOUIN|    43           0.00391       -0.43750        0.18750       -0.18750
 BRILLOUIN|    44           0.00391       -0.43750        0.18750       -0.06250
 BRILLOUIN|    45           0.00391       -0.43750        0.18750        0.06250
 BRILLOUIN|    46           0.00391       -0.43750        0.18750        0.18750
 BRILLOUIN|    47           0.00391       -0.43750        0.18750        0.31250
 BRILLOUIN|    48           0.00391       -0.43750        0.18750        0.43750
 BRILLOUIN|    49           0.00391       -0.43750        0.31250       -0.43750
 BRILLOUIN|    50           0.00391       -0.43750        0.31250       -0.31250
 BRILLOUIN|    51           0.00391       -0.43750        0.31250       -0.18750
 BRILLOUIN|    52           0.00391       -0.43750        0.31250       -0.06250
 BRILLOUIN|    53           0.00391       -0.43750        0.31250        0.06250
 BRILLOUIN|    54           0.00391       -0.43750        0.31250        0.18750
 BRILLOUIN|    55           0.00391       -0.43750        0.31250        0.31250
 BRILLOUIN|    56           0.00391       -0.43750        0.31250        0.43750
 BRILLOUIN|    57           0.00391       -0.43750        0.43750       -0.43750
 BRILLOUIN|    58           0.00391       -0.43750        0.43750       -0.31250
 BRILLOUIN|    59           0.00391       -0.43750        0.43750       -0.18750
 BRILLOUIN|    60           0.00391       -0.43750        0.43750       -0.06250
 BRILLOUIN|    61           0.00391       -0.43750        0.43750        0.06250
 BRILLOUIN|    62           0.00391       -0.43750        0.43750        0.18750
 BRILLOUIN|    63           0.00391       -0.43750        0.43750        0.31250
 BRILLOUIN|    64           0.00391       -0.43750        0.43750        0.43750
 BRILLOUIN|    65           0.00391       -0.31250       -0.43750       -0.43750
 BRILLOUIN|    66           0.00391       -0.31250       -0.43750       -0.31250
 BRILLOUIN|    67           0.00391       -0.31250       -0.43750       -0.18750
 BRILLOUIN|    68           0.00391       -0.31250       -0.43750       -0.06250
 BRILLOUIN|    69           0.00391       -0.31250       -0.43750        0.06250
 BRILLOUIN|    70           0.00391       -0.31250       -0.43750        0.18750
 BRILLOUIN|    71           0.00391       -0.31250       -0.43750        0.31250
 BRILLOUIN|    72           0.00391       -0.31250       -0.43750        0.43750
 BRILLOUIN|    73           0.00391       -0.31250       -0.31250       -0.43750
 BRILLOUIN|    74           0.00391       -0.31250       -0.31250       -0.31250
 BRILLOUIN|    75           0.00391       -0.31250       -0.31250       -0.18750
 BRILLOUIN|    76           0.00391       -0.31250       -0.31250       -0.06250
 BRILLOUIN|    77           0.00391       -0.31250       -0.31250        0.06250
 BRILLOUIN|    78           0.00391       -0.31250       -0.31250        0.18750
 BRILLOUIN|    79           0.00391       -0.31250       -0.31250        0.31250
 BRILLOUIN|    80           0.00391       -0.31250       -0.31250        0.43750
 BRILLOUIN|    81           0.00391       -0.31250       -0.18750       -0.43750
 BRILLOUIN|    82           0.00391       -0.31250       -0.18750       -0.31250
 BRILLOUIN|    83           0.00391       -0.31250       -0.18750       -0.18750
 BRILLOUIN|    84           0.00391       -0.31250       -0.18750       -0.06250
 BRILLOUIN|    85           0.00391       -0.31250       -0.18750        0.06250
 BRILLOUIN|    86           0.00391       -0.31250       -0.18750        0.18750
 BRILLOUIN|    87           0.00391       -0.31250       -0.18750        0.31250
 BRILLOUIN|    88           0.00391       -0.31250       -0.18750        0.43750
 BRILLOUIN|    89           0.00391       -0.31250       -0.06250       -0.43750
 BRILLOUIN|    90           0.00391       -0.31250       -0.06250       -0.31250
 BRILLOUIN|    91           0.00391       -0.31250       -0.06250       -0.18750
 BRILLOUIN|    92           0.00391       -0.31250       -0.06250       -0.06250
 BRILLOUIN|    93           0.00391       -0.31250       -0.06250        0.06250
 BRILLOUIN|    94           0.00391       -0.31250       -0.06250        0.18750
 BRILLOUIN|    95           0.00391       -0.31250       -0.06250        0.31250
 BRILLOUIN|    96           0.00391       -0.31250       -0.06250        0.43750
 BRILLOUIN|    97           0.00391       -0.31250        0.06250       -0.43750
 BRILLOUIN|    98           0.00391       -0.31250        0.06250       -0.31250
 BRILLOUIN|    99           0.00391       -0.31250        0.06250       -0.18750
 BRILLOUIN|   100           0.00391       -0.31250        0.06250       -0.06250
 BRILLOUIN|   101           0.00391       -0.31250        0.06250        0.06250
 BRILLOUIN|   102           0.00391       -0.31250        0.06250        0.18750
 BRILLOUIN|   103           0.00391       -0.31250        0.06250        0.31250
 BRILLOUIN|   104           0.00391       -0.31250        0.06250        0.43750
 BRILLOUIN|   105           0.00391       -0.31250        0.18750       -0.43750
 BRILLOUIN|   106           0.00391       -0.31250        0.18750       -0.31250
 BRILLOUIN|   107           0.00391       -0.31250        0.18750       -0.18750
 BRILLOUIN|   108           0.00391       -0.31250        0.18750       -0.06250
 BRILLOUIN|   109           0.00391       -0.31250        0.18750        0.06250
 BRILLOUIN|   110           0.00391       -0.31250        0.18750        0.18750
 BRILLOUIN|   111           0.00391       -0.31250        0.18750        0.31250
 BRILLOUIN|   112           0.00391       -0.31250        0.18750        0.43750
 BRILLOUIN|   113           0.00391       -0.31250        0.31250       -0.43750
 BRILLOUIN|   114           0.00391       -0.31250        0.31250       -0.31250
 BRILLOUIN|   115           0.00391       -0.31250        0.31250       -0.18750
 BRILLOUIN|   116           0.00391       -0.31250        0.31250       -0.06250
 BRILLOUIN|   117           0.00391       -0.31250        0.31250        0.06250
 BRILLOUIN|   118           0.00391       -0.31250        0.31250        0.18750
 BRILLOUIN|   119           0.00391       -0.31250        0.31250        0.31250
 BRILLOUIN|   120           0.00391       -0.31250        0.31250        0.43750
 BRILLOUIN|   121           0.00391       -0.31250        0.43750       -0.43750
 BRILLOUIN|   122           0.00391       -0.31250        0.43750       -0.31250
 BRILLOUIN|   123           0.00391       -0.31250        0.43750       -0.18750
 BRILLOUIN|   124           0.00391       -0.31250        0.43750       -0.06250
 BRILLOUIN|   125           0.00391       -0.31250        0.43750        0.06250
 BRILLOUIN|   126           0.00391       -0.31250        0.43750        0.18750
 BRILLOUIN|   127           0.00391       -0.31250        0.43750        0.31250
 BRILLOUIN|   128           0.00391       -0.31250        0.43750        0.43750
 BRILLOUIN|   129           0.00391       -0.18750       -0.43750       -0.43750
 BRILLOUIN|   130           0.00391       -0.18750       -0.43750       -0.31250
 BRILLOUIN|   131           0.00391       -0.18750       -0.43750       -0.18750
 BRILLOUIN|   132           0.00391       -0.18750       -0.43750       -0.06250
 BRILLOUIN|   133           0.00391       -0.18750       -0.43750        0.06250
 BRILLOUIN|   134           0.00391       -0.18750       -0.43750        0.18750
 BRILLOUIN|   135           0.00391       -0.18750       -0.43750        0.31250
 BRILLOUIN|   136           0.00391       -0.18750       -0.43750        0.43750
 BRILLOUIN|   137           0.00391       -0.18750       -0.31250       -0.43750
 BRILLOUIN|   138           0.00391       -0.18750       -0.31250       -0.31250
 BRILLOUIN|   139           0.00391       -0.18750       -0.31250       -0.18750
 BRILLOUIN|   140           0.00391       -0.18750       -0.31250       -0.06250
 BRILLOUIN|   141           0.00391       -0.18750       -0.31250        0.06250
 BRILLOUIN|   142           0.00391       -0.18750       -0.31250        0.18750
 BRILLOUIN|   143           0.00391       -0.18750       -0.31250        0.31250
 BRILLOUIN|   144           0.00391       -0.18750       -0.31250        0.43750
 BRILLOUIN|   145           0.00391       -0.18750       -0.18750       -0.43750
 BRILLOUIN|   146           0.00391       -0.18750       -0.18750       -0.31250
 BRILLOUIN|   147           0.00391       -0.18750       -0.18750       -0.18750
 BRILLOUIN|   148           0.00391       -0.18750       -0.18750       -0.06250
 BRILLOUIN|   149           0.00391       -0.18750       -0.18750        0.06250
 BRILLOUIN|   150           0.00391       -0.18750       -0.18750        0.18750
 BRILLOUIN|   151           0.00391       -0.18750       -0.18750        0.31250
 BRILLOUIN|   152           0.00391       -0.18750       -0.18750        0.43750
 BRILLOUIN|   153           0.00391       -0.18750       -0.06250       -0.43750
 BRILLOUIN|   154           0.00391       -0.18750       -0.06250       -0.31250
 BRILLOUIN|   155           0.00391       -0.18750       -0.06250       -0.18750
 BRILLOUIN|   156           0.00391       -0.18750       -0.06250       -0.06250
 BRILLOUIN|   157           0.00391       -0.18750       -0.06250        0.06250
 BRILLOUIN|   158           0.00391       -0.18750       -0.06250        0.18750
 BRILLOUIN|   159           0.00391       -0.18750       -0.06250        0.31250
 BRILLOUIN|   160           0.00391       -0.18750       -0.06250        0.43750
 BRILLOUIN|   161           0.00391       -0.18750        0.06250       -0.43750
 BRILLOUIN|   162           0.00391       -0.18750        0.06250       -0.31250
 BRILLOUIN|   163           0.00391       -0.18750        0.06250       -0.18750
 BRILLOUIN|   164           0.00391       -0.18750        0.06250       -0.06250
 BRILLOUIN|   165           0.00391       -0.18750        0.06250        0.06250
 BRILLOUIN|   166           0.00391       -0.18750        0.06250        0.18750
 BRILLOUIN|   167           0.00391       -0.18750        0.06250        0.31250
 BRILLOUIN|   168           0.00391       -0.18750        0.06250        0.43750
 BRILLOUIN|   169           0.00391       -0.18750        0.18750       -0.43750
 BRILLOUIN|   170           0.00391       -0.18750        0.18750       -0.31250
 BRILLOUIN|   171           0.00391       -0.18750        0.18750       -0.18750
 BRILLOUIN|   172           0.00391       -0.18750        0.18750       -0.06250
 BRILLOUIN|   173           0.00391       -0.18750        0.18750        0.06250
 BRILLOUIN|   174           0.00391       -0.18750        0.18750        0.18750
 BRILLOUIN|   175           0.00391       -0.18750        0.18750        0.31250
 BRILLOUIN|   176           0.00391       -0.18750        0.18750        0.43750
 BRILLOUIN|   177           0.00391       -0.18750        0.31250       -0.43750
 BRILLOUIN|   178           0.00391       -0.18750        0.31250       -0.31250
 BRILLOUIN|   179           0.00391       -0.18750        0.31250       -0.18750
 BRILLOUIN|   180           0.00391       -0.18750        0.31250       -0.06250
 BRILLOUIN|   181           0.00391       -0.18750        0.31250        0.06250
 BRILLOUIN|   182           0.00391       -0.18750        0.31250        0.18750
 BRILLOUIN|   183           0.00391       -0.18750        0.31250        0.31250
 BRILLOUIN|   184           0.00391       -0.18750        0.31250        0.43750
 BRILLOUIN|   185           0.00391       -0.18750        0.43750       -0.43750
 BRILLOUIN|   186           0.00391       -0.18750        0.43750       -0.31250
 BRILLOUIN|   187           0.00391       -0.18750        0.43750       -0.18750
 BRILLOUIN|   188           0.00391       -0.18750        0.43750       -0.06250
 BRILLOUIN|   189           0.00391       -0.18750        0.43750        0.06250
 BRILLOUIN|   190           0.00391       -0.18750        0.43750        0.18750
 BRILLOUIN|   191           0.00391       -0.18750        0.43750        0.31250
 BRILLOUIN|   192           0.00391       -0.18750        0.43750        0.43750
 BRILLOUIN|   193           0.00391       -0.06250       -0.43750       -0.43750
 BRILLOUIN|   194           0.00391       -0.06250       -0.43750       -0.31250
 BRILLOUIN|   195           0.00391       -0.06250       -0.43750       -0.18750
 BRILLOUIN|   196           0.00391       -0.06250       -0.43750       -0.06250
 BRILLOUIN|   197           0.00391       -0.06250       -0.43750        0.06250
 BRILLOUIN|   198           0.00391       -0.06250       -0.43750        0.18750
 BRILLOUIN|   199           0.00391       -0.06250       -0.43750        0.31250
 BRILLOUIN|   200           0.00391       -0.06250       -0.43750        0.43750
 BRILLOUIN|   201           0.00391       -0.06250       -0.31250       -0.43750
 BRILLOUIN|   202           0.00391       -0.06250       -0.31250       -0.31250
 BRILLOUIN|   203           0.00391       -0.06250       -0.31250       -0.18750
 BRILLOUIN|   204           0.00391       -0.06250       -0.31250       -0.06250
 BRILLOUIN|   205           0.00391       -0.06250       -0.31250        0.06250
 BRILLOUIN|   206           0.00391       -0.06250       -0.31250        0.18750
 BRILLOUIN|   207           0.00391       -0.06250       -0.31250        0.31250
 BRILLOUIN|   208           0.00391       -0.06250       -0.31250        0.43750
 BRILLOUIN|   209           0.00391       -0.06250       -0.18750       -0.43750
 BRILLOUIN|   210           0.00391       -0.06250       -0.18750       -0.31250
 BRILLOUIN|   211           0.00391       -0.06250       -0.18750       -0.18750
 BRILLOUIN|   212           0.00391       -0.06250       -0.18750       -0.06250
 BRILLOUIN|   213           0.00391       -0.06250       -0.18750        0.06250
 BRILLOUIN|   214           0.00391       -0.06250       -0.18750        0.18750
 BRILLOUIN|   215           0.00391       -0.06250       -0.18750        0.31250
 BRILLOUIN|   216           0.00391       -0.06250       -0.18750        0.43750
 BRILLOUIN|   217           0.00391       -0.06250       -0.06250       -0.43750
 BRILLOUIN|   218           0.00391       -0.06250       -0.06250       -0.31250
 BRILLOUIN|   219           0.00391       -0.06250       -0.06250       -0.18750
 BRILLOUIN|   220           0.00391       -0.06250       -0.06250       -0.06250
 BRILLOUIN|   221           0.00391       -0.06250       -0.06250        0.06250
 BRILLOUIN|   222           0.00391       -0.06250       -0.06250        0.18750
 BRILLOUIN|   223           0.00391       -0.06250       -0.06250        0.31250
 BRILLOUIN|   224           0.00391       -0.06250       -0.06250        0.43750
 BRILLOUIN|   225           0.00391       -0.06250        0.06250       -0.43750
 BRILLOUIN|   226           0.00391       -0.06250        0.06250       -0.31250
 BRILLOUIN|   227           0.00391       -0.06250        0.06250       -0.18750
 BRILLOUIN|   228           0.00391       -0.06250        0.06250       -0.06250
 BRILLOUIN|   229           0.00391       -0.06250        0.06250        0.06250
 BRILLOUIN|   230           0.00391       -0.06250        0.06250        0.18750
 BRILLOUIN|   231           0.00391       -0.06250        0.06250        0.31250
 BRILLOUIN|   232           0.00391       -0.06250        0.06250        0.43750
 BRILLOUIN|   233           0.00391       -0.06250        0.18750       -0.43750
 BRILLOUIN|   234           0.00391       -0.06250        0.18750       -0.31250
 BRILLOUIN|   235           0.00391       -0.06250        0.18750       -0.18750
 BRILLOUIN|   236           0.00391       -0.06250        0.18750       -0.06250
 BRILLOUIN|   237           0.00391       -0.06250        0.18750        0.06250
 BRILLOUIN|   238           0.00391       -0.06250        0.18750        0.18750
 BRILLOUIN|   239           0.00391       -0.06250        0.18750        0.31250
 BRILLOUIN|   240           0.00391       -0.06250        0.18750        0.43750
 BRILLOUIN|   241           0.00391       -0.06250        0.31250       -0.43750
 BRILLOUIN|   242           0.00391       -0.06250        0.31250       -0.31250
 BRILLOUIN|   243           0.00391       -0.06250        0.31250       -0.18750
 BRILLOUIN|   244           0.00391       -0.06250        0.31250       -0.06250
 BRILLOUIN|   245           0.00391       -0.06250        0.31250        0.06250
 BRILLOUIN|   246           0.00391       -0.06250        0.31250        0.18750
 BRILLOUIN|   247           0.00391       -0.06250        0.31250        0.31250
 BRILLOUIN|   248           0.00391       -0.06250        0.31250        0.43750
 BRILLOUIN|   249           0.00391       -0.06250        0.43750       -0.43750
 BRILLOUIN|   250           0.00391       -0.06250        0.43750       -0.31250
 BRILLOUIN|   251           0.00391       -0.06250        0.43750       -0.18750
 BRILLOUIN|   252           0.00391       -0.06250        0.43750       -0.06250
 BRILLOUIN|   253           0.00391       -0.06250        0.43750        0.06250
 BRILLOUIN|   254           0.00391       -0.06250        0.43750        0.18750
 BRILLOUIN|   255           0.00391       -0.06250        0.43750        0.31250
 BRILLOUIN|   256           0.00391       -0.06250        0.43750        0.43750
 *******************************************************************************

 *******************************************************************************
 *******************************************************************************
 **                                                                           **
 **     #####                         ##              ##                      **
 **    ##   ##            ##          ##              ##                      **
 **   ##     ##                       ##            ######                    **
 **   ##     ##  ##   ##  ##   #####  ##  ##   ####   ##    #####    #####    **
 **   ##     ##  ##   ##  ##  ##      ## ##   ##      ##   ##   ##  ##   ##   **
 **   ##  ## ##  ##   ##  ##  ##      ####     ###    ##   ######   ######    **
 **    ##  ###   ##   ##  ##  ##      ## ##      ##   ##   ##       ##        **
 **     #######   #####   ##   #####  ##  ##  ####    ##    #####   ##        **
 **           ##                                                    ##        **
 **                                                                           **
 **                                                ... make the atoms dance   **
 **                                                                           **
 **            Copyright (C) by CP2K developers group (2000-2025)             **
 **                      J. Chem. Phys. 152, 194103 (2020)                    **
 **                                                                           **
 *******************************************************************************

 DFT| Spin restricted Kohn-Sham (RKS) calculation                            RKS
 DFT| Multiplicity                                                             1
 DFT| Number of spin states                                                    1
 DFT| Charge                                                                   0
 DFT| Self-interaction correction (SIC)                                       NO
 DFT| Cutoffs: density                                              1.000000E-10
 DFT|          gradient                                             1.000000E-10
 DFT|          tau                                                  1.000000E-10
 DFT|          cutoff_smoothing_range                               0.000000E+00
 DFT| XC density smoothing                                                  NONE
 DFT| XC derivatives                                                          PW

 FUNCTIONAL| PBE:
 FUNCTIONAL| J.P.Perdew, K.Burke, M.Ernzerhof, Phys. Rev. Letter, vol. 77, n 18,
 FUNCTIONAL|  pp. 3865-3868, (1996) {spin unpolarized}                          


 QS| Method:                                                                 GPW
 QS| Density plane wave grid type                        NON-SPHERICAL FULLSPACE
 QS| Number of grid levels:                                                    4
 QS| Density cutoff [a.u.]:                                                500.0
 QS| Multi grid cutoff [a.u.]: 1) grid level                               500.0
 QS|                           2) grid level                               166.7
 QS|                           3) grid level                                55.6
 QS|                           4) grid level                                18.5
 QS| Grid level progression factor:                                          3.0
 QS| Relative density cutoff [a.u.]:                                        50.0
 QS| Interaction thresholds: eps_pgf_orb:                                1.0E-16
 QS|                         eps_filter_matrix:                          0.0E+00
 QS|                         eps_core_charge:                            1.0E-18
 QS|                         eps_rho_gspace:                             1.0E-16
 QS|                         eps_rho_rspace:                             1.0E-16
 QS|                         eps_gvg_rspace:                             1.0E-08
 QS|                         eps_ppl:                                    1.0E-02
 QS|                         eps_ppnl:                                   1.0E-10


 ATOMIC KIND INFORMATION

  1. Atomic kind: Ge                                    Number of atoms:       2

     Orbital Basis Set                                 aug-SZV-MOLOPT-GTH-tier-1

       Number of orbital shell sets:                                           1
       Number of orbital shells:                                               4
       Number of primitive Cartesian functions:                                5
       Number of Cartesian basis functions:                                    8
       Number of spherical basis functions:                                    8
       Norm type:                                                              2

       Normalised Cartesian orbitals:

                        Set   Shell   Orbital            Exponent    Coefficient

                          1       1    2s                0.070000       0.000000
                                                         0.110740      -0.068975
                                                         0.322428      -0.228255
                                                         1.419172       0.428185
                                                         3.751626      -0.120003

                          1       2    3s                0.070000       0.025999
                                                         0.110740       0.108974
                                                         0.322428      -0.022280
                                                         1.419172      -0.001655
                                                         3.751626       0.000000

                          1       3    3px               0.070000       0.000000
                                                         0.110740      -0.035002
                                                         0.322428      -0.253384
                                                         1.419172       0.216179
                                                         3.751626       0.064520
                          1       3    3py               0.070000       0.000000
                                                         0.110740      -0.035002
                                                         0.322428      -0.253384
                                                         1.419172       0.216179
                                                         3.751626       0.064520
                          1       3    3pz               0.070000       0.000000
                                                         0.110740      -0.035002
                                                         0.322428      -0.253384
                                                         1.419172       0.216179
                                                         3.751626       0.064520

                          1       4    4px               0.070000       0.055146
                                                         0.110740      -0.006020
                                                         0.322428      -0.010423
                                                         1.419172       0.038222
                                                         3.751626       0.000000
                          1       4    4py               0.070000       0.055146
                                                         0.110740      -0.006020
                                                         0.322428      -0.010423
                                                         1.419172       0.038222
                                                         3.751626       0.000000
                          1       4    4pz               0.070000       0.055146
                                                         0.110740      -0.006020
                                                         0.322428      -0.010423
                                                         1.419172       0.038222
                                                         3.751626       0.000000

       Atomic covalent radius [Angstrom]:                                  1.220

       Atomic van der Waals radius [Angstrom]:                             2.110

     GTH Potential information for                                       GTH-PBE

       Description:                       Goedecker-Teter-Hutter pseudopotential
                                           Goedecker et al., PRB 54, 1703 (1996)
                                          Hartwigsen et al., PRB 58, 3641 (1998)
                                                      Krack, TCA 114, 145 (2005)

       Gaussian exponent of the core charge distribution:               1.714678
       Electronic configuration (s p d ...):                               2   2

       Parameters of the local part of the GTH pseudopotential:

                          rloc        C1          C2          C3          C4
                        0.540000

       Parameters of the non-local part of the GTH (SOC) pseudopotential:

                   l      r(l)      h(i,j,l)
                                    k(i,j,l)
                   0    0.421865    7.510241   -0.588108   -1.447976
                                   -0.588108   -1.595888    3.738657
                                   -1.447976    3.738657   -2.967467
                   1    0.567529    0.913860    0.546875
                                    0.546875   -0.647072
                                    0.075157   -0.034262
                                   -0.034262    0.040540
                   2    0.813914    0.197177
                                    0.002099


 MOLECULE KIND INFORMATION


 All atoms are their own molecule, skipping detailed information


 TOTAL NUMBERS AND MAXIMUM NUMBERS

  Total number of            - Atomic kinds:                                   1
                             - Atoms:                                          2
                             - Shell sets:                                     2
                             - Shells:                                         8
                             - Primitive Cartesian functions:                 10
                             - Cartesian basis functions:                     16
                             - Spherical basis functions:                     16

  Maximum angular momentum of the orbital basis functions:                     1


 MODULE QUICKSTEP: ATOMIC COORDINATES IN ANGSTROM

   Atom Kind Element         X             Y             Z       Z(eff)     Mass
      1    1 Ge   32      0.000000      0.000000      0.000000   4.0000  72.6400
      2    1 Ge   32      2.037095      1.176117      0.831641   4.0000  72.6400



 SCF PARAMETERS         Density guess:                                    ATOMIC
                        --------------------------------------------------------
                        max_scf:                                             500
                        max_scf_history:                                       0
                        max_diis:                                              4
                        --------------------------------------------------------
                        eps_scf:                                        1.00E-09
                        eps_scf_history:                                0.00E+00
                        eps_diis:                                       1.00E-01
                        eps_eigval:                                     1.00E-05
                        --------------------------------------------------------
                        level_shift [a.u.]:                             0.000000
                        added MOs                                        12    0
                        --------------------------------------------------------
                        Mixing method:                            BROYDEN_MIXING
                                                charge density mixing in g-space
                        --------------------------------------------------------
                        No outer SCF

 PW_GRID| Information for grid number                                          1
 PW_GRID| Grid distributed over                                     8 processors
 PW_GRID| Real space group dimensions                                     8    1
 PW_GRID| the grid is blocked:                                                NO
 PW_GRID| Cutoff [a.u.]                                                    500.0
 PW_GRID| spherical cutoff:                                                   NO
 PW_GRID|   Bounds   1            -40      39                Points:          80
 PW_GRID|   Bounds   2            -40      39                Points:          80
 PW_GRID|   Bounds   3            -40      39                Points:          80
 PW_GRID| Volume element (a.u.^3)  0.6303E-03     Volume (a.u.^3)       322.7048
 PW_GRID| Grid span                                                    FULLSPACE
 PW_GRID|   Distribution                         Average         Max         Min
 PW_GRID|   G-Vectors                            64000.0       64000       64000
 PW_GRID|   G-Rays                                 800.0         800         800
 PW_GRID|   Real Space Points                    64000.0       64000       64000

 PW_GRID| Information for grid number                                          2
 PW_GRID| Number of the reference grid                                         1
 PW_GRID| Grid distributed over                                     8 processors
 PW_GRID| Real space group dimensions                                     8    1
 PW_GRID| the grid is blocked:                                                NO
 PW_GRID| Cutoff [a.u.]                                                    166.7
 PW_GRID| spherical cutoff:                                                   NO
 PW_GRID|   Bounds   1            -22      22                Points:          45
 PW_GRID|   Bounds   2            -22      22                Points:          45
 PW_GRID|   Bounds   3            -22      22                Points:          45
 PW_GRID| Volume element (a.u.^3)  0.3541E-02     Volume (a.u.^3)       322.7048
 PW_GRID| Grid span                                                    FULLSPACE
 PW_GRID|   Distribution                         Average         Max         Min
 PW_GRID|   G-Vectors                            11390.6       11475       11340
 PW_GRID|   G-Rays                                 253.1         255         252
 PW_GRID|   Real Space Points                    11390.6       12150       10125

 PW_GRID| Information for grid number                                          3
 PW_GRID| Number of the reference grid                                         1
 PW_GRID| Grid distributed over                                     8 processors
 PW_GRID| Real space group dimensions                                     8    1
 PW_GRID| the grid is blocked:                                                NO
 PW_GRID| Cutoff [a.u.]                                                     55.6
 PW_GRID| spherical cutoff:                                                   NO
 PW_GRID|   Bounds   1            -12      12                Points:          25
 PW_GRID|   Bounds   2            -12      12                Points:          25
 PW_GRID|   Bounds   3            -12      12                Points:          25
 PW_GRID| Volume element (a.u.^3)  0.2065E-01     Volume (a.u.^3)       322.7048
 PW_GRID| Grid span                                                    FULLSPACE
 PW_GRID|   Distribution                         Average         Max         Min
 PW_GRID|   G-Vectors                             1953.1        2025        1900
 PW_GRID|   G-Rays                                  78.1          81          76
 PW_GRID|   Real Space Points                     1953.1        2500        1875

 PW_GRID| Information for grid number                                          4
 PW_GRID| Number of the reference grid                                         1
 PW_GRID| Grid distributed over                                     8 processors
 PW_GRID| Real space group dimensions                                     8    1
 PW_GRID| the grid is blocked:                                                NO
 PW_GRID| Cutoff [a.u.]                                                     18.5
 PW_GRID| spherical cutoff:                                                   NO
 PW_GRID|   Bounds   1             -7       7                Points:          15
 PW_GRID|   Bounds   2             -7       7                Points:          15
 PW_GRID|   Bounds   3             -7       7                Points:          15
 PW_GRID| Volume element (a.u.^3)  0.9562E-01     Volume (a.u.^3)       322.7048
 PW_GRID| Grid span                                                    FULLSPACE
 PW_GRID|   Distribution                         Average         Max         Min
 PW_GRID|   G-Vectors                              421.9         435         405
 PW_GRID|   G-Rays                                  28.1          29          27
 PW_GRID|   Real Space Points                      421.9         450         225

 POISSON| Solver                                                        PERIODIC
 POISSON| Periodicity                                                        XYZ

 RS_GRID| Information for grid number                                          1
 RS_GRID|   Bounds   1            -40      39                Points:          80
 RS_GRID|   Bounds   2            -40      39                Points:          80
 RS_GRID|   Bounds   3            -40      39                Points:          80
 RS_GRID| Real space fully replicated
 RS_GRID| Group size                                                           1

 RS_GRID| Information for grid number                                          2
 RS_GRID|   Bounds   1            -22      22                Points:          45
 RS_GRID|   Bounds   2            -22      22                Points:          45
 RS_GRID|   Bounds   3            -22      22                Points:          45
 RS_GRID| Real space fully replicated
 RS_GRID| Group size                                                           1

 RS_GRID| Information for grid number                                          3
 RS_GRID|   Bounds   1            -12      12                Points:          25
 RS_GRID|   Bounds   2            -12      12                Points:          25
 RS_GRID|   Bounds   3            -12      12                Points:          25
 RS_GRID| Real space fully replicated
 RS_GRID| Group size                                                           1

 RS_GRID| Information for grid number                                          4
 RS_GRID|   Bounds   1             -7       7                Points:          15
 RS_GRID|   Bounds   2             -7       7                Points:          15
 RS_GRID|   Bounds   3             -7       7                Points:          15
 RS_GRID| Real space fully replicated
 RS_GRID| Group size                                                           1

 Number of electrons:                                                          8
 Number of occupied orbitals:                                                  4
 Number of molecular orbitals:                                                16

 Number of orbital functions:                                                 16
 Number of independent orbital functions:                                     16

 Extrapolation method: initial_guess

 Atomic guess: The first density matrix is obtained in terms of atomic orbitals
               and electronic configurations assigned to each atomic kind

 Guess for atomic kind: Ge

 Electronic structure
    Total number of core electrons                                         28.00
    Total number of valence electrons                                       4.00
    Total number of electrons                                              32.00
    Multiplicity                                                   not specified
    S   [  2.00  2.00  2.00] 2.00
    P   [  6.00  6.00] 2.00
    D   [ 10.00]


 *******************************************************************************
                  Iteration          Convergence                     Energy [au]
 *******************************************************************************
                          1        0.138692                      -3.665848465742
                          2        0.473293E-01                  -3.687695209197
                          3        0.395392E-03                  -3.690344268533
                          4        0.239232E-03                  -3.690344373432
                          5        0.705980E-05                  -3.690344434449
                          6        0.375748E-05                  -3.690344434487
                          7        0.432453E-07                  -3.690344434503

 Energy components [Hartree]           Total Energy ::           -3.690344434503
                                        Band Energy ::           -1.050243185879
                                     Kinetic Energy ::            1.418500105032
                                   Potential Energy ::           -5.108844539534
                                      Virial (-V/T) ::            3.601582066446
                                        Core Energy ::           -5.655421456158
                                          XC Energy ::           -0.968399803461
                                     Coulomb Energy ::            2.933476825117
                       Total Pseudopotential Energy ::           -7.120876366222
                       Local Pseudopotential Energy ::           -7.566639331916
                    Nonlocal Pseudopotential Energy ::            0.445762965693
                                        Confinement ::            0.469548050323

 Orbital energies  State     L     Occupation   Energy[a.u.]          Energy[eV]

                       1     0          2.000      -0.406507          -11.061619

                       1     1          2.000      -0.118615           -3.227667


 Total Electron Density at R=0:                                         0.000121
 Re-scaling the density matrix to get the right number of electrons
                  # Electrons              Trace(P)               Scaling factor
                            8                 8.000                        1.000


 SCF WAVEFUNCTION OPTIMIZATION

  Step     Update method      Time    Convergence         Total energy    Change
  ------------------------------------------------------------------------------
     1 NoMix/Diag. 0.50E-01    2.6     0.28707020        -7.9444659921 -7.94E+00
     2 Broy./Diag. 0.50E-01    2.8     0.00032717        -7.8469563997  9.75E-02
     3 Broy./Diag. 0.50E-01    2.8     0.01001841        -7.7556170779  9.13E-02
     4 Broy./Diag. 0.50E-01    2.8     0.00028707        -7.7725939476 -1.70E-02
     5 Broy./Diag. 0.50E-01    2.8     0.00833085        -7.8218670491 -4.93E-02
     6 Broy./Diag. 0.50E-01    2.8     0.00016706        -7.8291951656 -7.33E-03
     7 Broy./Diag. 0.50E-01    2.8     0.00161485        -7.8400157144 -1.08E-02
     8 Broy./Diag. 0.50E-01    2.8     0.00020077        -7.8401758611 -1.60E-04
     9 Broy./Diag. 0.50E-01    2.8     0.00002805        -7.8404608667 -2.85E-04
    10 Broy./Diag. 0.50E-01    2.8     0.00007884        -7.8411887958 -7.28E-04
    11 Broy./Diag. 0.50E-01    2.8     0.00000358        -7.8413327711 -1.44E-04
    12 Broy./Diag. 0.50E-01    2.8     0.00001031        -7.8414010746 -6.83E-05
    13 Broy./Diag. 0.50E-01    2.8     0.00000020        -7.8414181864 -1.71E-05
    14 Broy./Diag. 0.50E-01    2.8     0.00000256        -7.8414239781 -5.79E-06
    15 Broy./Diag. 0.50E-01    2.8     0.00000003        -7.8414243083 -3.30E-07
    16 Broy./Diag. 0.50E-01    2.8     0.00000019        -7.8414237870  5.21E-07
    17 Broy./Diag. 0.50E-01    2.8     0.00000003        -7.8414240665 -2.80E-07
    18 Broy./Diag. 0.50E-01    2.8     0.00000002        -7.8414243334 -2.67E-07
    19 Broy./Diag. 0.50E-01    2.8     7.1824E-09        -7.8414242631  7.03E-08
    20 Broy./Diag. 0.50E-01    2.8     0.00000001        -7.8414241092  1.54E-07
    21 Broy./Diag. 0.50E-01    2.8     5.6224E-10        -7.8414240906  1.86E-08

  *** SCF run converged in    21 steps ***


  Electronic density on regular grids:         -8.0000000000       -0.0000000000
  Core density on regular grids:                8.0000000000       -0.0000000000
  Total charge density on r-space grids:       -0.0000000000
  Total charge density g-space grids:          -0.0000000000

  Overlap energy of the core charge distribution:               0.00000000905434
  Self energy of the core charge distribution:                -16.71672840141500
  Core Hamiltonian energy:                                      3.98699501811147
  Hartree energy:                                               7.20806006969082
  Exchange-correlation energy:                                 -2.31975078603231

  Total energy:                                                -7.84142409059068

 !-----------------------------------------------------------------------------!
                     Mulliken Population Analysis

 #  Atom  Element  Kind  Atomic population                           Net charge
       1     Ge       1          4.000000                             -0.000000
       2     Ge       1          4.000000                              0.000000
 # Total charge                              8.000000                  0.000000

 !-----------------------------------------------------------------------------!

 !-----------------------------------------------------------------------------!
                           Hirshfeld Charges

  #Atom  Element  Kind  Ref Charge     Population                    Net charge
      1       Ge     1       4.000          4.000                         0.000
      2       Ge     1       4.000          4.000                        -0.000

  Total Charge                                                           -0.000
 !-----------------------------------------------------------------------------!

 KPOINTS| Band Structure Calculation
 KPOINTS| Number of k-point sets                                               1
 KPOINTS| Number of added MOs/bands                                           -1
 KPOINTS| Number of k-points in set    1                                     148
 KPOINTS| In units of b-vector [2pi/Bohr]
 KPOINTS| Special point     1 not specifi     0.000000     0.000000     0.000000
 KPOINTS| Special point     2 not specifi     0.500000     0.000000     0.500000
 KPOINTS| Special point     3 not specifi     0.625000     0.250000     0.625000
 KPOINTS| Special point     4 not specifi     0.000000     0.000000     0.000000
 KPOINTS| Time for k-point line                                            1.068

 ENERGY| Total FORCE_EVAL ( QS ) energy [hartree]             -7.841424090590683

 -------------------------------------------------------------------------------
 -                                                                             -
 -                                DBCSR STATISTICS                             -
 -                                                                             -
 -------------------------------------------------------------------------------
 COUNTER                                    TOTAL       BLAS       SMM       ACC
 flops inhomo. stacks                           0       0.0%      0.0%      0.0%
 flops total                         0.000000E+00       0.0%      0.0%      0.0%
 flops max/rank                      0.000000E+00       0.0%      0.0%      0.0%
 matmuls inhomo. stacks                         0       0.0%      0.0%      0.0%
 matmuls total                                  0       0.0%      0.0%      0.0%
 number of processed stacks                     0       0.0%      0.0%      0.0%
 average stack size                                     0.0       0.0       0.0
 marketing flops                     0.000000E+00
 -------------------------------------------------------------------------------
 -                                                                             -
 -                      DBCSR MESSAGE PASSING PERFORMANCE                      -
 -                                                                             -
 -------------------------------------------------------------------------------
 ROUTINE             CALLS      AVE VOLUME [Bytes]
 MP_Bcast                1                     12.
 MP_Allreduce           19                     21.
 MP_Alltoall        482984                    595.
 -------------------------------------------------------------------------------

 -------------------------------------------------------------------------------
 -                                                                             -
 -                                DBM STATISTICS                               -
 -                                                                             -
 -------------------------------------------------------------------------------
    M  x    N  x    K                                          COUNT     PERCENT
 -------------------------------------------------------------------------------

 -------------------------------------------------------------------------------
 -                                                                             -
 -                                GRID STATISTICS                              -
 -                                                                             -
 -------------------------------------------------------------------------------
 LP    KERNEL             BACKEND                              COUNT     PERCENT
 2     collocate general  CPU                                 238612      51.16%
 2     integrate general  CPU                                 227766      48.84%
 0     collocate general  CPU                                      4       0.00%
 0     integrate general  CPU                                      2       0.00%
 -------------------------------------------------------------------------------

 MEMORY| Estimated peak process memory [MiB]                                 325

 -------------------------------------------------------------------------------
 ----                             MULTIGRID INFO                            ----
 -------------------------------------------------------------------------------
 count for grid        1:           7182          cutoff [a.u.]          500.00
 count for grid        2:           6910          cutoff [a.u.]          166.67
 count for grid        3:           7970          cutoff [a.u.]           55.56
 count for grid        4:          13672          cutoff [a.u.]           18.52
 total gridlevel count  :          35734

 -------------------------------------------------------------------------------
 -                                                                             -
 -                         MESSAGE PASSING PERFORMANCE                         -
 -                                                                             -
 -------------------------------------------------------------------------------

 ROUTINE             CALLS      AVE VOLUME [Bytes]
 MP_Group                6
 MP_Bcast           197270                   1824.
 MP_Allreduce        85243                     18.
 MP_Sync                 4
 MP_Alltoall           383                2818476.
 MP_SendRecv           630                 166062.
 MP_ISendRecv          595                 162362.
 MP_Wait            136167
 MP_comm_split           4
 MP_ISend           144524                     70.
 MP_IRecv           230528                     46.
 -------------------------------------------------------------------------------


 -------------------------------------------------------------------------------
 -                                                                             -
 -                           R E F E R E N C E S                               -
 -                                                                             -
 -------------------------------------------------------------------------------
 
 CP2K version 2025.1 (Development Version), the CP2K developers group (2025).
 CP2K is freely available from https://www.cp2k.org/ .
 
 T. D. Kuehne, M. Iannuzzi, M. Del Ben, V. V. Rybkin, P. Seewald, F. Stein, T. 
 Laino, R. Z. Khaliullin, O. Schuett, F. Schiffmann, D. Golze, J. Wilhelm, S. 
 Chulkov, M. H. Bani-Hashemian, V. Weber, U. Borstnik, M. Taillefumier, A. S. 
 Jakobovits, A. Lazzaro, H. Pabst, T. Mueller, R. Schade, M. Guidon, S. 
 Andermatt, N. Holmberg, G. K. Schenter, A. Hehn, A. Bussy, F. Belleflamme, G. 
 Tabacchi, A. Gloess, M. Lass, I. Bethune, C. J. Mundy, C. Plessl, M. Watkins, 
 J. VandeVondele, M. Krack, J. Hutter.
 J. Chem. Phys. 152, 194103 (2020).
 CP2K: An electronic structure and molecular dynamics software package - 
 Quickstep: Efficient and accurate electronic structure calculations.
 https://doi.org/10.1063/5.0007045

 O. Schuett, P. Messmer, J. Hutter, J. VandeVondele.
 Electronic Structure Calculations on Graphics Processing Units, 173-190 (2016).
 GPU-Accelerated Sparse Matrix-Matrix Multiplication for Linear Scaling Density 
 Functional Theory.
 https://doi.org/10.1002/9781118670712.ch8

 J. Hutter, M. Iannuzzi, F. Schiffmann, J. VandeVondele.
 WIREs Comput Mol Sci. 4, 15-25 (2014).
 CP2K: atomistic simulations of condensed matter systems.
 https://doi.org/10.1002/wcms.1159

 U. Borstnik, J. VandeVondele, V. Weber, J. Hutter.
 Parallel Comput. 40, 47-58 (2014).
 Sparse matrix multiplication: The distributed block-compressed sparse row 
 library.
 https://doi.org/10.1016/j.parco.2014.03.012

 J. VandeVondele, J. Hutter.
 J. Chem. Phys. 127, 114105 (2007).
 Gaussian basis sets for accurate calculations on molecular systems in gas and 
 condensed phases.
 https://doi.org/10.1063/1.2770708

 J. VandeVondele, M. Krack, F. Mohamed, M. Parrinello, T. Chassaing, J. Hutter.
 Comput. Phys. Commun. 167, 103-128 (2005).
 QUICKSTEP: Fast and accurate density functional calculations using a mixed 
 Gaussian and plane waves approach.
 https://doi.org/10.1016/j.cpc.2004.12.014

 M. Krack.
 Theor. Chem. Acc. 114, 145-152 (2005).
 Pseudopotentials for H to Kr optimized for gradient-corrected 
 exchange-correlation functionals.
 https://doi.org/10.1007/s00214-005-0655-y

 M. Frigo, S. G. Johnson.
 Proc. IEEE 93, 216-231 (2005).
 The design and implementation of FFTW3.
 https://doi.org/10.1109/JPROC.2004.840301

 C. Hartwigsen, S. Goedecker, J. Hutter.
 Phys. Rev. B 58, 3641-3662 (1998).
 Relativistic separable dual-space Gaussian pseudopotentials from H to Rn.
 https://doi.org/10.1103/PhysRevB.58.3641

 G. Lippert, J. Hutter, M. Parrinello.
 Mol. Phys. 92, 477-487 (1997).
 A hybrid Gaussian and plane wave density functional scheme.
 https://doi.org/10.1080/002689797170220

 S. Goedecker, M. Teter, J. Hutter.
 Phys. Rev. B 54, 1703-1710 (1996).
 Separable dual-space Gaussian pseudopotentials.
 https://doi.org/10.1103/PhysRevB.54.1703

 J. P. Perdew, K. Burke, M. Ernzerhof.
 Phys. Rev. Lett. 77, 3865-3868 (1996).
 Generalized gradient approximation made simple.
 https://doi.org/10.1103/PhysRevLett.77.3865


 -------------------------------------------------------------------------------
 -                                                                             -
 -                                T I M I N G                                  -
 -                                                                             -
 -------------------------------------------------------------------------------
 SUBROUTINE                       CALLS  ASD         SELF TIME        TOTAL TIME
                                MAXIMUM       AVERAGE  MAXIMUM  AVERAGE  MAXIMUM
 CP2K                                 1  1.0    0.014    0.017   63.676   63.676
 qs_energies                          1  2.0    0.017    0.099   63.445   63.492
 scf_env_do_scf                       1  3.0    0.000    0.000   60.792   60.792
 scf_env_do_scf_inner_loop           21  4.0    0.024    0.026   60.792   60.792
 do_general_diag_kp                  22  5.9    0.112    0.134   51.860   52.743
 qs_scf_new_mos_kp                   21  5.0    0.000    0.000   50.898   51.779
 mp_alltoall_i22                  82388  8.7   28.617   35.127   28.617   35.127
 dbcsr_desymmetrize_deep          46866  7.4    0.662    0.765   24.964   29.673
 rskp_transform                   11048  6.9    3.653   19.715    3.653   19.715
 dbcsr_complete_redistribute      35522  8.2    1.040    1.230   17.802   19.620
 kpoint_density_transform            21  7.0    0.054    0.064   12.924   12.952
 copy_dbcsr_to_fm                 24770  6.8    0.238    0.272   11.953   12.100
 copy_fm_to_dbcsr                 10752  8.0    0.061    0.069   10.337   12.013
 transform_dmat                    5376  8.0    1.677    9.025    1.677    9.025
 qs_ks_update_qs_env                 21  5.0    0.000    0.000    2.516    6.339
 rebuild_ks_matrix                   21  6.0    0.000    0.000    1.696    5.518
 qs_ks_build_kohn_sham_matrix        21  7.0    0.047    0.048    1.696    5.518
 transfer_rs2pw                      90  8.0    0.001    0.001    4.332    5.318
 transfer_rs2pw_500                  24  8.9    0.043    0.046    4.298    5.286
 mp_sendrecv_dv                     630 10.0    4.278    5.264    4.278    5.264
 qs_rho_update_rho_low               22  5.0    0.000    0.000    4.865    4.875
 calculate_rho_elec                  22  6.0    0.011    0.014    4.865    4.875
 sum_up_and_integrate                21  8.0    0.000    0.000    1.066    4.867
 integrate_v_rspace                  21  9.0    0.011    0.052    1.065    4.866
 density_rs2pw                       22  7.0    0.001    0.001    3.917    4.789
 grid_integrate_task_list            21 10.0    0.879    4.661    0.879    4.661
 grid_collocate_task_list            22  7.0    0.935    4.612    0.935    4.612
 mp_alltoall_d11v                247164  9.3    2.763    2.950    2.763    2.950
 dbcsr_finalize                  104036  8.2    0.399    0.418    2.761    2.900
 cp_fm_start_copy_general         32848  7.3    0.342    0.559    2.459    2.491
 mp_cart_sub                      49542  8.8    2.239    2.252    2.239    2.252
 hybrid_alltoall_any              46866  8.4    0.175    0.189    1.846    1.959
 write_kpoints_restart               21  5.0    0.010    0.014    1.825    1.825
 dbcsr_merge_all                  35522 10.2    1.026    1.181    1.573    1.712
 mp_alltoall_i11v                153432  8.9    1.687    1.710    1.687    1.710
 mp_cart_create                   24777  8.8    1.198    1.235    1.198    1.235
 dbcsr_dot                        56155  8.0    0.219    0.255    1.002    1.055
 mp_allgather_i                   65696  8.3    0.929    1.033    0.929    1.033
 cp_dbcsr_alloc_block_from_nbl     9487  5.0    0.203    0.971    0.218    1.008
 mp_bcast_iv                     131416  8.3    0.796    0.924    0.796    0.924
 qs_energies_init_hamiltonians        1  3.0    0.000    0.000    0.876    0.876
 mp_sum_d                         56737  8.9    0.760    0.857    0.760    0.857
 dbcsr_create_new                183574  7.9    0.635    0.688    0.765    0.834
 evaluate_core_matrix_traces         21  6.0    0.000    0.000    0.820    0.820
 calculate_ptrace_kp                 42  7.0    0.041    0.042    0.820    0.820
 dbcsr_work_create                82388  8.7    0.499    0.561    0.712    0.814
 dbcsr_copy                       68243  6.9    0.348    0.386    0.593    0.737
 build_core_hamiltonian_matrix        1  4.0    0.005    0.005    0.187    0.674
 dbcsr_iterator_start            310047  8.8    0.565    0.572    0.648    0.661
 qs_env_update_s_mstruct              1  4.0    0.000    0.000    0.545    0.635
 calculate_rho_core                   1  5.0    0.001    0.003    0.501    0.622
 cp_fm_write_unformatted           2674  6.0    0.520    0.575    0.523    0.587
 dbcsr_work_destroy_all           82388  9.7    0.383    0.391    0.574    0.585
 dbcsr_data_new                  896071  9.6    0.388    0.553    0.388    0.553
 copy_dbcsr_to_fm_bc              24770  7.8    0.227    0.238    0.516    0.528
 init_scf_run                         1  3.0    0.000    0.000    0.466    0.518
 scf_env_initial_rho_setup            1  4.0    0.000    0.000    0.466    0.518
 copy_fm_to_dbcsr_bc              10752  9.0    0.133    0.148    0.444    0.491
 fft_wrap_pw1pw2                    383 10.0    0.003    0.003    0.447    0.459
 tree_to_linear_d                 35522 11.2    0.402    0.455    0.402    0.455
 self_consistency_check              21  5.0    0.040    0.041    0.447    0.453
 dbcsr_iterator_stop             310047  8.8    0.363    0.366    0.428    0.430
 dbcsr_data_release             1299850 10.0    0.409    0.424    0.409    0.424
 fft_wrap_pw1pw2_500                254 11.3    0.029    0.029    0.410    0.422
 dbcsr_destroy                   127420  7.8    0.203    0.218    0.354    0.387
 fft3d_ps                           383 12.0    0.133    0.136    0.367    0.380
 cp_sm_mix                        28077  6.0    0.068    0.093    0.371    0.379
 mp_bcast_im                      65696  8.3    0.269    0.316    0.269    0.316
 mixing_allocate                      1  3.0    0.008    0.008    0.080    0.304
 qs_vxc_create                       21  8.0    0.000    0.000    0.294    0.295
 xc_vxc_pw_create                    21  9.0    0.012    0.012    0.294    0.295
 calculate_first_density_matrix       1  5.0    0.001    0.001    0.228    0.281
 calculate_atomic_block_dm            1  6.0    0.001    0.001    0.226    0.278
 dbcsr_copy_into_existing         12089  9.6    0.089    0.188    0.155    0.257
 quick_finalize                   46866  9.4    0.117    0.150    0.190    0.254
 mp_max_d                         28079  7.0    0.236    0.251    0.236    0.251
 mp_waitall_1                    136167  8.3    0.118    0.238    0.118    0.238
 gspace_mixing                       20  5.0    0.009    0.009    0.229    0.230
 mp_alltoall_z22v                   383 14.0    0.203    0.221    0.203    0.221
 mp_comm_free                     74353  8.8    0.169    0.203    0.169    0.203
 xc_pw_derive                       126 11.0    0.000    0.000    0.190    0.191
 broyden_mixing                      20  6.0    0.181    0.184    0.186    0.187
 potential_pw2rs                     21 10.0    0.001    0.001    0.176    0.187
 build_core_ppnl                      1  5.0    0.039    0.177    0.039    0.177
 calculate_ecore_overlap              1  4.0    0.000    0.000    0.132    0.163
 build_overlap_matrix_low             1  5.0    0.009    0.011    0.046    0.158
 build_kinetic_matrix_low             1  5.0    0.009    0.011    0.044    0.157
 dbcsr_set                       121879  7.5    0.107    0.112    0.145    0.157
 xc_rho_set_and_dset_create          21 10.0    0.007    0.009    0.151    0.154
 qs_env_rebuild_rho                   1  5.0    0.000    0.000    0.039    0.151
 qs_rho_rebuild                       1  6.0    0.003    0.004    0.039    0.151
 mp_sum_iv                           24  5.3    0.112    0.138    0.112    0.138
 qs_scf_ensure_work_matrices          1  3.0    0.000    0.000    0.112    0.138
 xc_pw_divergence                    21 10.0    0.000    0.000    0.128    0.129
 yz_to_x                            173 12.8    0.011    0.011    0.112    0.126
 cp_cfm_geeig                       709  6.8    0.004    0.004    0.119    0.125
 x_to_yz                            210 13.2    0.017    0.018    0.119    0.122
 mp_sum_dv                          316  3.3    0.054    0.116    0.054    0.116
 dbcsr_iterator_seek             310047  9.8    0.082    0.115    0.082    0.115
 dbcsr_sort_indices              102627 10.9    0.066    0.111    0.066    0.111
 transfer_pw2rs                      85 11.0    0.001    0.001    0.109    0.110
 cp_cfm_heevd                       709  7.8    0.001    0.001    0.090    0.094
 cp_cfm_heevd_base                  709  8.8    0.089    0.093    0.089    0.093
 restraint_control                    1  2.0    0.000    0.000    0.047    0.093
 mp_sum_i                             4  2.8    0.047    0.093    0.047    0.093
 dbcsr_make_index_exist          183574  8.9    0.082    0.092    0.082    0.092
 transfer_pw2rs_500                  22 11.8    0.042    0.046    0.081    0.084
 parser_read_line                  5899  4.1    0.002    0.002    0.081    0.083
 parser_read_line_low                23  6.2    0.008    0.031    0.079    0.081
 dbcsr_reserve_blocks             20239  8.7    0.038    0.062    0.050    0.080
 broadcast_input_information         23  7.2    0.026    0.029    0.071    0.077
 merge_index                      35522 11.2    0.072    0.075    0.072    0.075
 kpoint_density_matrices             21  7.0    0.005    0.005    0.068    0.069
 dbcsr_reserve_all_blocks         10752 10.0    0.015    0.018    0.054    0.065
 parallel_gemm_fm                  2688  8.0    0.002    0.002    0.062    0.063
 cp_fm_finish_copy_general        13588  7.8    0.029    0.036    0.045    0.062
 topology_control                     1  2.0    0.000    0.000    0.061    0.061
 parallel_gemm_fm_gemm             2688  9.0    0.002    0.002    0.060    0.061
 mp_irecv_iv                     131392  8.3    0.008    0.060    0.008    0.060
 cp_fm_gemm                        2688 10.0    0.057    0.058    0.057    0.058
 dbcsr_switch_data_area           46866 10.4    0.042    0.043    0.054    0.056
 create_qs_kind_set                   1  2.0    0.000    0.000    0.055    0.055
 read_qs_kind                         1  3.0    0.029    0.031    0.055    0.055
 scf_post_calculation_gpw             1  3.0    0.000    0.000    0.049    0.049
 write_available_results              1  4.0    0.000    0.000    0.049    0.049
 write_mo_free_results                1  5.0    0.001    0.001    0.049    0.049
 xc_functional_eval                  21 11.0    0.000    0.000    0.048    0.048
 pbe_lda_eval                        21 12.0    0.048    0.048    0.048    0.048
 mp_isend_dv                      33440  8.2    0.042    0.046    0.042    0.046
 dbcsr_zero                      121879  8.5    0.039    0.045    0.039    0.045
 mp_isend_iv                      74056  8.3    0.011    0.042    0.011    0.042
 read_cell_cif                        2  4.5    0.002    0.004    0.041    0.042
 dbcsr_distribution_new           35524  8.5    0.026    0.039    0.026    0.039
 cp_fm_cleanup_copy_general       23440  7.0    0.024    0.024    0.038    0.039
 coordinate_control                   1  3.0    0.001    0.001    0.038    0.038
 coordinate_control_READ_COORDI       1  4.0    0.000    0.000    0.037    0.038
 read_coordinate_cif                  1  5.0    0.002    0.002    0.037    0.038
 mp_isendrecv_dv                    595 13.0    0.010    0.030    0.010    0.030
 mp_irecv_im2                     65696  8.3    0.004    0.030    0.004    0.030
 dbcsr_get_data_size_used         82388  9.7    0.025    0.030    0.025    0.030
 mp_bcast_i_src                      92  8.2    0.024    0.029    0.024    0.029
 qs_init_subsys                       1  2.0    0.001    0.002    0.028    0.028
 dbcsr_make_dbcsr_index          102627 10.8    0.025    0.028    0.025    0.028
 qs_env_setup                         1  3.0    0.000    0.000    0.026    0.026
 transfer_rs2pw_170                  22  9.0    0.006    0.007    0.024    0.026
 pw_scatter_p                       210 12.2    0.025    0.026    0.025    0.026
 qs_env_rebuild_pw_env                2  3.5    0.000    0.000    0.025    0.026
 pw_poisson_solve                    21  8.0    0.000    0.000    0.025    0.025
 pw_env_rebuild                       1  5.0    0.000    0.000    0.025    0.025
 qs_create_task_list                  1  5.0    0.000    0.000    0.005    0.024
 generate_qs_task_list                1  6.0    0.003    0.018    0.005    0.024
 pw_grid_setup                        4  6.0    0.000    0.000    0.024    0.024
 pw_grid_setup_internal               4  7.0    0.001    0.001    0.024    0.024
 hirshfeld_integration                1  6.0    0.005    0.019    0.022    0.022
 mp_bcast_am_src                     23  8.2    0.014    0.015    0.020    0.022
 fft_wrap_pw1pw2_170                 43 10.5    0.001    0.001    0.021    0.022
 transfer_pw2rs_170                  21 12.0    0.007    0.008    0.019    0.021
 calculate_hirshfeld_normalizat       1  6.0    0.004    0.016    0.020    0.020
 kpoint_init_cell_index               2  3.5    0.012    0.016    0.019    0.020
 mp_isend_im2                     37028  8.3    0.005    0.019    0.005    0.019
 dbcsr_data_copy_aa2              35522 10.9    0.012    0.019    0.012    0.019
 mp_irecv_dv                      33440  8.2    0.018    0.019    0.018    0.019
 mp_comm_size                     57001  9.0    0.014    0.016    0.014    0.016
 pw_integral_ab_c1d_c1d_gs           21  9.0    0.014    0.014    0.015    0.015
 pw_gather_p                        173 11.8    0.014    0.015    0.014    0.015
 mp_comm_rank                     57001  9.0    0.013    0.015    0.013    0.015
 pw_grid_sort                         4  8.0    0.010    0.010    0.014    0.014
 kpoint_set_mo_occupation            21  7.0    0.005    0.005    0.013    0.014
 cp_cfm_triangular_multiply        2127  7.8    0.011    0.013    0.011    0.013
 mixing_init                          1  5.0    0.013    0.013    0.013    0.013
 mp_recv_dv                        8022  7.0    0.002    0.013    0.002    0.013
 mp_sum_l                           429  2.1    0.008    0.012    0.008    0.012
 pw_copy                            315 10.5    0.011    0.011    0.011    0.011
 mp_sum_dm3                          21  8.0    0.007    0.009    0.007    0.009
 mp_max_iv                            2  4.5    0.006    0.008    0.006    0.008
 grid_free_task_list                  1  2.0    0.006    0.008    0.006    0.008
 mp_maxloc_dv                       875  1.0    0.007    0.008    0.007    0.008
 cp_cfm_cholesky_decompose          709  7.8    0.007    0.008    0.007    0.008
 pw_derive                          189 11.3    0.007    0.008    0.007    0.008
 transfer_pw2rs_60                   21 12.0    0.002    0.002    0.006    0.007
 fft_wrap_pw1pw2_60                  43 10.5    0.000    0.000    0.007    0.007
 transfer_rs2pw_60                   22  9.0    0.002    0.002    0.006    0.007
 pw_poisson_set                      22  8.9    0.000    0.000    0.006    0.007
 scf_env_cleanup                      1  3.0    0.002    0.002    0.006    0.006
 -------------------------------------------------------------------------------

 The number of warnings for this run is : 1
 
 -------------------------------------------------------------------------------
  **** **** ******  **  PROGRAM ENDED AT                 2025-08-04 17:12:03.769
 ***** ** ***  *** **   PROGRAM RAN ON                              i04r11c04s12
 **    ****   ******    PROGRAM RAN BY                                   di38fab
 ***** **    ** ** **   PROGRAM PROCESS ID                               3832228
  **** **  *******  **  PROGRAM STOPPED IN /hppfs/scratch/04/di38fab/09_GTH/Delt
                                           a_Set/Ge/aug-SZV-MOLOPT-GTH-tier-1/8x
                                           8x8
