Sb                                      
   1.00000000000000     
     4.380470    0.000000    0.000000
    -2.190235    3.793598    0.000000
     0.000000    0.000000   11.478040
   Sb
     6
Direct
  0.000000  0.000000  0.233320
  0.000000  0.000000  0.766680
  0.666667  0.333333  0.566660
  0.666667  0.333333  0.100010
  0.333333  0.666667  0.899990
  0.333333  0.666667  0.433340
 
   32   32   84
  3.7719      3.8432      4.0648      4.4588      5.0584      5.9043      7.0411      8.5131      10.355      12.576    
  15.138      17.938      20.791      23.448      25.625      27.057      27.557      27.057      25.625      23.448    
  20.791      17.938      15.138      12.576      10.355      8.5131      7.0411      5.9043      5.0584      4.4588    
  4.0648      3.8432      3.8432      3.8432      3.9897      4.2978      4.7959      5.5224      6.5227      7.8446    
  9.5317      11.610      14.067      16.832      19.754      22.610      25.118      26.992      27.996      27.996    
  26.992      25.118      22.610      19.755      16.832      14.067      11.610      9.5317      7.8446      6.5226    
  5.5224      4.7959      4.2978      3.9897      4.0648      3.9897      4.0648      4.2978      4.7108      5.3397    
  6.2313      7.4402      9.0215      11.018      13.441      16.245      19.309      22.428      25.324      27.690    
  29.244      29.786      29.244      27.690      25.324      22.428      19.310      16.245      13.441      11.018    
  9.0216      7.4402      6.2313      5.3397      4.7109      4.2978      4.4588      4.2978      4.2978      4.4588    
  4.7959      5.3397      6.1371      7.2490      8.7438      10.683      13.103      15.986      19.237      22.669    
  26.010      28.932      31.107      32.270      32.270      31.107      28.932      26.010      22.669      19.237    
  15.986      13.103      10.683      8.7438      7.2490      6.1371      5.3397      4.7959      5.0584      4.7959    
  4.7108      4.7959      5.0584      5.5224      6.2312      7.2490      8.6555      10.533      12.943      15.899    
  19.336      23.092      26.901      30.424      33.289      35.164      35.817      35.164      33.289      30.423    
  26.901      23.092      19.336      15.899      12.943      10.533      8.6555      7.2490      6.2313      5.5224    
  5.9043      5.5224      5.3397      5.3397      5.5225      5.9043      6.5226      7.4402      8.7438      10.533    
  12.896      15.880      19.455      23.491      27.740      31.859      35.445      38.104      39.522      39.522    
  38.104      35.445      31.859      27.740      23.491      19.455      15.880      12.896      10.533      8.7437    
  7.4402      6.5227      7.0412      6.5227      6.2312      6.1371      6.2313      6.5227      7.0412      7.8446    
  9.0216      10.683      12.943      15.880      19.505      23.725      28.325      32.971      37.245      40.707    
  42.965      43.750      42.965      40.707      37.245      32.971      28.325      23.725      19.505      15.880    
  12.943      10.683      9.0215      7.8446      8.5131      7.8446      7.4402      7.2490      7.2490      7.4402    
  7.8446      8.5131      9.5318      11.018      13.103      15.899      19.455      23.725      28.533      33.573    
  38.432      42.639      45.744      47.394      47.394      45.744      42.639      38.432      33.573      28.533    
  23.725      19.455      15.899      13.103      11.018      9.5317      10.355      9.5317      9.0215      8.7438    
  8.6555      8.7438      9.0215      9.5317      10.355      11.610      13.441      15.986      19.336      23.491    
  28.325      33.573      38.845      43.664      47.543      50.060      50.933      50.060      47.542      43.664    
  38.845      33.573      28.325      23.491      19.336      15.986      13.441      11.610      12.576      11.610    
  11.018      10.683      10.533      10.533      10.683      11.018      11.610      12.576      14.067      16.245    
  19.237      23.092      27.740      32.971      38.432      43.664      48.164      51.465      53.211      53.210    
  51.464      48.164      43.664      38.432      32.971      27.740      23.092      19.237      16.245      14.067    
  15.138      14.067      13.441      13.103      12.943      12.896      12.943      13.103      13.441      14.067    
  15.138      16.832      19.310      22.669      26.901      31.859      37.245      42.639      47.542      51.464    
  53.995      54.867      53.995      51.464      47.543      42.639      37.245      31.859      26.901      22.669    
  19.309      16.832      17.938      16.832      16.245      15.986      15.899      15.880      15.880      15.899    
  15.986      16.245      16.832      17.938      19.755      22.428      26.010      30.423      35.445      40.707    
  45.744      50.060      53.210      54.867      54.867      53.210      50.060      45.745      40.707      35.445    
  30.424      26.010      22.428      19.754      20.791      19.755      19.309      19.237      19.336      19.455    
  19.505      19.455      19.336      19.237      19.309      19.754      20.791      22.610      25.324      28.932    
  33.289      38.104      42.965      47.395      50.933      53.210      53.995      53.210      50.933      47.395    
  42.965      38.104      33.289      28.932      25.324      22.609      23.448      22.610      22.428      22.669    
  23.092      23.491      23.725      23.725      23.491      23.092      22.669      22.428      22.609      23.448    
  25.118      27.690      31.107      35.164      39.522      43.750      47.395      50.060      51.464      51.464    
  50.060      47.395      43.750      39.522      35.164      31.107      27.690      25.117      25.625      25.118    
  25.324      26.010      26.901      27.740      28.325      28.533      28.325      27.740      26.901      26.010    
  25.324      25.117      25.625      26.992      29.244      32.270      35.817      39.522      42.965      45.744    
  47.543      48.164      47.542      45.744      42.965      39.522      35.817      32.270      29.244      26.992    
  27.057      26.992      27.690      28.932      30.424      31.859      32.971      33.573      33.573      32.971    
  31.859      30.424      28.932      27.690      26.992      27.057      27.996      29.786      32.270      35.164    
  38.104      40.707      42.639      43.664      43.664      42.639      40.707      38.104      35.164      32.270    
  29.786      27.996      27.557      27.996      29.244      31.107      33.289      35.445      37.245      38.432    
  38.845      38.432      37.245      35.445      33.289      31.107      29.244      27.996      27.557      27.996    
  29.244      31.107      33.289      35.445      37.245      38.432      38.845      38.432      37.245      35.445    
  33.289      31.107      29.244      27.996      27.057      27.996      29.786      32.270      35.164      38.104    
  40.707      42.639      43.664      43.664      42.639      40.707      38.104      35.164      32.270      29.786    
  27.996      27.057      26.992      27.690      28.932      30.424      31.859      32.971      33.573      33.573    
  32.971      31.859      30.424      28.932      27.690      26.992      25.625      26.992      29.244      32.270    
  35.817      39.522      42.965      45.744      47.542      48.164      47.543      45.744      42.965      39.522    
  35.817      32.270      29.244      26.992      25.625      25.117      25.324      26.010      26.901      27.740    
  28.325      28.533      28.325      27.740      26.901      26.010      25.324      25.118      23.448      25.117    
  27.690      31.107      35.164      39.522      43.750      47.395      50.060      51.464      51.464      50.060    
  47.395      43.750      39.522      35.164      31.107      27.690      25.118      23.448      22.609      22.428    
  22.669      23.092      23.491      23.725      23.725      23.491      23.092      22.669      22.428      22.610    
  20.791      22.609      25.324      28.932      33.289      38.104      42.965      47.395      50.933      53.210    
  53.995      53.210      50.933      47.395      42.965      38.104      33.289      28.932      25.324      22.610    
  20.791      19.754      19.309      19.237      19.336      19.455      19.505      19.455      19.336      19.237    
  19.309      19.755      17.938      19.754      22.428      26.010      30.424      35.445      40.707      45.745    
  50.060      53.210      54.867      54.867      53.210      50.060      45.744      40.707      35.445      30.423    
  26.010      22.428      19.755      17.938      16.832      16.245      15.986      15.899      15.880      15.880    
  15.899      15.986      16.245      16.832      15.138      16.832      19.309      22.669      26.901      31.859    
  37.245      42.639      47.543      51.464      53.995      54.867      53.995      51.464      47.542      42.639    
  37.245      31.859      26.901      22.669      19.310      16.832      15.138      14.067      13.441      13.103    
  12.943      12.896      12.943      13.103      13.441      14.067      12.576      14.067      16.245      19.237    
  23.092      27.740      32.971      38.432      43.664      48.164      51.464      53.210      53.211      51.465    
  48.164      43.664      38.432      32.971      27.740      23.092      19.237      16.245      14.067      12.576    
  11.610      11.018      10.683      10.533      10.533      10.683      11.018      11.610      10.355      11.610    
  13.441      15.986      19.336      23.491      28.325      33.573      38.845      43.664      47.542      50.060    
  50.933      50.060      47.543      43.664      38.845      33.573      28.325      23.491      19.336      15.986    
  13.441      11.610      10.355      9.5317      9.0215      8.7438      8.6555      8.7438      9.0215      9.5317    
  8.5131      9.5317      11.018      13.103      15.899      19.455      23.725      28.533      33.573      38.432    
  42.639      45.744      47.394      47.394      45.744      42.639      38.432      33.573      28.533      23.725    
  19.455      15.899      13.103      11.018      9.5318      8.5131      7.8446      7.4402      7.2490      7.2490    
  7.4402      7.8446      7.0412      7.8446      9.0215      10.683      12.943      15.880      19.505      23.725    
  28.325      32.971      37.245      40.707      42.965      43.750      42.965      40.707      37.245      32.971    
  28.325      23.725      19.505      15.880      12.943      10.683      9.0216      7.8446      7.0412      6.5227    
  6.2313      6.1371      6.2312      6.5227      5.9043      6.5227      7.4402      8.7437      10.533      12.896    
  15.880      19.455      23.491      27.740      31.859      35.445      38.104      39.522      39.522      38.104    
  35.445      31.859      27.740      23.491      19.455      15.880      12.896      10.533      8.7438      7.4402    
  6.5226      5.9043      5.5225      5.3397      5.3397      5.5224      5.0584      5.5224      6.2313      7.2490    
  8.6555      10.533      12.943      15.899      19.336      23.092      26.901      30.423      33.289      35.164    
  35.817      35.164      33.289      30.424      26.901      23.092      19.336      15.899      12.943      10.533    
  8.6555      7.2490      6.2312      5.5224      5.0584      4.7959      4.7108      4.7959      4.4588      4.7959    
  5.3397      6.1371      7.2490      8.7438      10.683      13.103      15.986      19.237      22.669      26.010    
  28.932      31.107      32.270      32.270      31.107      28.932      26.010      22.669      19.237      15.986    
  13.103      10.683      8.7438      7.2490      6.1371      5.3397      4.7959      4.4588      4.2978      4.2978    
  4.0648      4.2978      4.7109      5.3397      6.2313      7.4402      9.0216      11.018      13.441      16.245    
  19.310      22.428      25.324      27.690      29.244      29.786      29.244      27.690      25.324      22.428    
  19.309      16.245      13.441      11.018      9.0215      7.4402      6.2313      5.3397      4.7108      4.2978    
  4.0648      3.9897      3.8432      3.9897      4.2978      4.7959      5.5224      6.5226      7.8446      9.5317    
  11.610      14.067      16.832      19.755      22.610      25.118      26.992      27.996      27.996      26.992    
  25.118      22.610      19.754      16.832      14.067      11.610      9.5317      7.8446      6.5227      5.5224    
  4.7959      4.2978      3.9897      3.8432      3.9067      3.9787      4.2024      4.5993      5.2021      6.0523    
  7.1965      8.6814      10.543      12.793      15.390      18.227      21.116      23.802      26.001      27.446    
  27.950      27.446      26.001      23.802      21.116      18.227      15.390      12.793      10.543      8.6814    
  7.1965      6.0523      5.2021      4.5992      4.2024      3.9788      3.9788      3.9787      4.1375      4.4694    
  5.0030      5.7797      6.8516      8.2758      10.104      12.368      15.051      18.071      21.261      24.372    
  27.099      29.134      30.223      30.223      29.134      27.099      24.372      21.261      18.071      15.051    
  12.368      10.104      8.2758      6.8516      5.7797      5.0030      4.4694      4.1375      4.2024      4.1158    
  4.2024      4.4694      4.9391      5.6511      6.6619      8.0407      9.8584      12.169      14.984      18.246    
  21.806      25.421      28.771      31.501      33.292      33.915      33.291      31.501      28.771      25.421    
  21.806      18.246      14.984      12.169      9.8585      8.0407      6.6618      5.6511      4.9391      4.4694    
  4.5992      4.4051      4.4051      4.5992      5.0030      5.6511      6.6013      7.9331      9.7367      12.093    
  15.045      18.565      22.527      26.698      30.745      34.274      36.896      38.295      38.295      36.896    
  34.274      30.745      26.698      22.527      18.565      15.045      12.093      9.7368      7.9331      6.6013    
  5.6511      5.0030      5.2021      4.8741      4.7675      4.8741      5.2021      5.7797      6.6618      7.9331    
  9.7003      12.072      15.125      18.870      23.212      27.936      32.706      37.098      40.660      42.987    
  43.796      42.987      40.660      37.098      32.706      27.936      23.212      18.870      15.125      12.072    
  9.7003      7.9331      6.6618      5.7797      6.0524      5.5588      5.3224      5.3225      5.5589      6.0523    
  6.8516      8.0407      9.7368      12.072      15.159      19.050      23.692      28.901      34.350      39.602    
  44.153      47.517      49.307      49.307      47.518      44.153      39.602      34.350      28.901      23.692    
  19.050      15.159      12.072      9.7367      8.0406      6.8516      7.1966      6.5007      6.1098      5.9835    
  6.1099      6.5008      7.1966      8.2758      9.8584      12.093      15.125      19.050      23.864      29.425    
  35.437      41.461      46.966      51.401      54.282      55.280      54.282      51.401      46.966      41.461    
  35.437      29.425      23.864      19.050      15.125      12.093      9.8584      8.2758      8.6814      7.7432    
  7.1737      6.9041      6.9042      7.1738      7.7431      8.6814      10.104      12.169      15.045      18.870    
  23.693      29.425      35.816      42.448      48.782      54.222      58.166      60.211      60.211      58.166    
  54.222      48.782      42.448      35.816      29.425      23.692      18.870      15.045      12.169      10.104    
  10.543      9.3256      8.5582      8.1353      8.0001      8.1353      8.5581      9.3255      10.543      12.368    
  14.984      18.565      23.212      28.901      35.437      42.448      49.409      55.689      60.555      63.545    
  64.542      63.544      60.555      55.689      49.409      42.448      35.437      28.901      23.212      18.565    
  14.984      12.368      12.793      11.272      10.298      9.7236      9.4574      9.4573      9.7236      10.298    
  11.272      12.793      15.051      18.246      22.527      27.936      34.350      41.461      48.782      55.689    
  61.349      65.173      67.048      67.048      65.173      61.349      55.689      48.782      41.461      34.350    
  27.936      22.527      18.246      15.051      15.390      13.572      12.403      11.697      11.322      11.205    
  11.322      11.697      12.403      13.572      15.390      18.071      21.806      26.698      32.706      39.602    
  46.966      54.222      60.555      65.173      67.850      68.710      67.850      65.173      60.555      54.222    
  46.966      39.602      32.706      26.698      21.806      18.071      18.227      16.158      14.836      14.044    
  13.608      13.417      13.417      13.608      14.044      14.836      16.158      18.227      21.261      25.421    
  30.745      37.098      44.153      51.401      58.166      63.544      67.048      68.710      68.710      67.047    
  63.545      58.167      51.401      44.153      37.098      30.745      25.421      21.261      21.116      18.891    
  17.494      16.691      16.270      16.077      16.022      16.077      16.270      16.691      17.494      18.891    
  21.116      24.372      28.771      34.274      40.660      47.518      54.282      60.211      64.542      67.048    
  67.850      67.047      64.542      60.211      54.282      47.517      40.660      34.274      28.771      24.372    
  23.802      21.560      20.201      19.490      19.187      19.094      19.080      19.079      19.094      19.187    
  19.490      20.201      21.560      23.802      27.099      31.501      36.896      42.987      49.307      55.280    
  60.211      63.545      65.173      65.173      63.544      60.211      55.280      49.307      42.987      36.896    
  31.501      27.099      26.001      23.903      22.716      22.218      22.155      22.288      22.439      22.501    
  22.439      22.288      22.155      22.218      22.716      23.903      26.001      29.134      33.291      38.295    
  43.796      49.307      54.282      58.166      60.555      61.349      60.555      58.166      54.282      49.307    
  43.796      38.295      33.292      29.134      27.446      25.654      24.772      24.609      24.907      25.400    
  25.858      26.126      26.126      25.858      25.400      24.907      24.609      24.772      25.654      27.446    
  30.223      33.915      38.295      42.987      47.517      51.401      54.222      55.689      55.689      54.222    
  51.401      47.518      42.987      38.295      33.916      30.223      27.950      26.592      26.122      26.390    
  27.152      28.121      29.025      29.653      29.877      29.653      29.025      28.121      27.152      26.390    
  26.122      26.592      27.950      30.223      33.292      36.896      40.660      44.153      46.966      48.782    
  49.409      48.782      46.966      44.153      40.660      36.896      33.292      30.223      27.446      26.592    
  26.593      27.343      28.623      30.145      31.604      32.733      33.345      33.345      32.733      31.604    
  30.145      28.623      27.343      26.593      26.592      27.446      29.134      31.501      34.274      37.098    
  39.602      41.461      42.448      42.448      41.461      39.602      37.098      34.274      31.501      29.134    
  26.001      25.654      26.122      27.342      29.135      31.226      33.292      35.021      36.162      36.560    
  36.162      35.021      33.292      31.226      29.135      27.342      26.122      25.654      26.001      27.099    
  28.771      30.745      32.706      34.350      35.437      35.816      35.437      34.350      32.706      30.745    
  28.771      27.099      23.802      23.903      24.772      26.390      28.623      31.226      33.880      36.241    
  38.003      38.941      38.941      38.003      36.241      33.880      31.226      28.623      26.390      24.772    
  23.904      23.802      24.372      25.421      26.698      27.936      28.901      29.425      29.425      28.901    
  27.936      26.698      25.421      24.372      21.116      21.560      22.716      24.609      27.152      30.145    
  33.292      36.241      38.643      40.209      40.752      40.209      38.643      36.241      33.292      30.145    
  27.152      24.609      22.716      21.560      21.116      21.261      21.806      22.527      23.212      23.692    
  23.864      23.693      23.212      22.527      21.806      21.261      18.227      18.891      20.201      22.218    
  24.907      28.121      31.604      35.021      38.003      40.209      41.380      41.381      40.209      38.003    
  35.021      31.604      28.121      24.907      22.218      20.201      18.891      18.227      18.071      18.246    
  18.565      18.870      19.050      19.050      18.870      18.565      18.246      18.071      15.390      16.158    
  17.494      19.490      22.155      25.400      29.025      32.733      36.162      38.941      40.752      41.381    
  40.752      38.941      36.162      32.733      29.025      25.400      22.155      19.490      17.494      16.158    
  15.390      15.051      14.984      15.045      15.125      15.159      15.125      15.045      14.984      15.051    
  12.793      13.572      14.836      16.691      19.187      22.288      25.858      29.653      33.345      36.560    
  38.941      40.209      40.209      38.941      36.560      33.345      29.653      25.858      22.288      19.187    
  16.691      14.836      13.572      12.793      12.368      12.169      12.093      12.072      12.072      12.093    
  12.169      12.368      10.543      11.272      12.403      14.044      16.270      19.094      22.439      26.126    
  29.877      33.345      36.162      38.003      38.643      38.003      36.162      33.345      29.877      26.126    
  22.439      19.094      16.270      14.044      12.403      11.272      10.543      10.104      9.8584      9.7367    
  9.7003      9.7367      9.8584      10.104      8.6814      9.3256      10.298      11.697      13.608      16.077    
  19.080      22.501      26.126      29.653      32.733      35.021      36.241      36.241      35.021      32.733    
  29.653      26.125      22.501      19.080      16.077      13.608      11.697      10.298      9.3256      8.6814    
  8.2758      8.0407      7.9331      7.9330      8.0406      8.2758      7.1966      7.7431      8.5582      9.7236    
  11.322      13.417      16.022      19.080      22.439      25.858      29.025      31.604      33.292      33.880    
  33.292      31.604      29.025      25.858      22.439      19.080      16.022      13.417      11.322      9.7236    
  8.5582      7.7432      7.1966      6.8516      6.6619      6.6013      6.6618      6.8516      6.0524      6.5008    
  7.1737      8.1353      9.4573      11.205      13.417      16.077      19.094      22.288      25.400      28.121    
  30.145      31.226      31.226      30.145      28.121      25.400      22.288      19.094      16.077      13.417    
  11.205      9.4573      8.1353      7.1737      6.5007      6.0523      5.7798      5.6511      5.6511      5.7797    
  5.2021      5.5589      6.1098      6.9041      8.0001      9.4573      11.322      13.608      16.270      19.187    
  22.155      24.907      27.152      28.623      29.135      28.623      27.152      24.907      22.155      19.187    
  16.270      13.608      11.322      9.4573      8.0001      6.9041      6.1098      5.5588      5.2021      5.0030    
  4.9391      5.0030      4.5992      4.8741      5.3224      5.9835      6.9042      8.1353      9.7236      11.697    
  14.044      16.691      19.490      22.218      24.608      26.390      27.343      27.343      26.390      24.608    
  22.218      19.490      16.691      14.044      11.697      9.7236      8.1353      6.9042      5.9835      5.3224    
  4.8741      4.5992      4.4694      4.4694      4.2024      4.4051      4.7675      5.3224      6.1098      7.1738    
  8.5582      10.298      12.403      14.836      17.494      20.201      22.716      24.772      26.122      26.593    
  26.122      24.772      22.716      20.201      17.494      14.836      12.403      10.298      8.5582      7.1738    
  6.1099      5.3225      4.7675      4.4051      4.2024      4.1375      3.9788      4.1158      4.4051      4.8741    
  5.5588      6.5007      7.7431      9.3256      11.272      13.572      16.158      18.891      21.560      23.904    
  25.654      26.592      26.592      25.654      23.903      21.560      18.891      16.158      13.572      11.272    
  9.3256      7.7431      6.5007      5.5589      4.8741      4.4051      4.1158      3.9788      4.3254      4.3996    
  4.6290      5.0335      5.6454      6.5082      7.6733      9.1940      11.112      13.438      16.127      19.063    
  22.046      24.813      27.070      28.551      29.067      28.551      27.070      24.813      22.046      19.063    
  16.127      13.438      11.112      9.1939      7.6733      6.5082      5.6454      5.0335      4.6290      4.3997    
  4.3997      4.3996      4.5734      4.9341      5.5100      6.3465      7.5042      9.0527      11.055      13.547    
  16.508      19.840      23.351      26.764      29.747      31.967      33.153      33.153      31.967      29.747    
  26.764      23.351      19.840      16.508      13.547      11.055      9.0528      7.5043      6.3465      5.5100    
  4.9340      4.5734      4.6290      4.5296      4.6290      4.9340      5.4676      6.2741      7.4216      8.9963    
  11.087      13.758      17.020      20.797      24.909      29.070      32.912      36.036      38.080      38.792    
  38.080      36.036      32.912      29.070      24.909      20.797      17.020      13.758      11.087      8.9963    
  7.4216      6.2741      5.4676      4.9340      5.0335      4.8038      4.8038      5.0335      5.5100      6.2741    
  7.3972      8.9797      11.136      13.964      17.512      21.735      26.472      31.437      36.235      40.407    
  43.501      45.151      45.151      43.501      40.407      36.235      31.437      26.472      21.734      17.512    
  13.964      11.136      8.9797      7.3972      6.2741      5.5100      5.6454      5.2481      5.1191      5.2482    
  5.6454      6.3464      7.4215      8.9797      11.157      14.088      17.861      22.473      27.795      33.552    
  39.336      44.641      48.934      51.734      52.707      51.734      48.934      44.641      39.336      33.552    
  27.795      22.473      17.861      14.088      11.157      8.9797      7.4216      6.3465      6.5082      5.8970    
  5.6055      5.6056      5.8971      6.5082      7.5042      8.9963      11.136      14.088      17.986      22.877    
  28.675      35.134      41.847      48.280      53.833      57.889      60.006      60.006      57.889      53.833    
  48.280      41.847      35.134      28.675      22.877      17.986      14.088      11.136      8.9963      7.5043    
  7.6734      6.7909      6.2988      6.1405      6.2989      6.7909      7.6734      9.0528      11.087      13.964    
  17.861      22.877      28.984      35.978      43.475      50.931      57.636      62.765      65.893      66.934    
  65.894      62.765      57.636      50.931      43.475      35.978      28.984      22.877      17.861      13.964    
  11.087      9.0528      9.1940      7.9729      7.2371      6.8911      6.8911      7.2372      7.9728      9.1940    
  11.055      13.758      17.512      22.473      28.676      35.978      44.038      52.322      59.959      65.909    
  69.749      71.569      71.570      69.749      65.909      59.959      52.322      44.038      35.978      28.675    
  22.473      17.512      13.758      11.055      11.112      9.4830      8.4587      7.8968      7.7179      7.8969    
  8.4587      9.4829      11.112      13.547      17.020      21.734      27.795      35.134      43.475      52.322    
  60.728      67.383      71.724      73.971      74.636      73.971      71.724      67.382      60.728      52.322    
  43.475      35.134      27.795      21.735      17.020      13.547      13.438      11.346      9.9945      9.1942    
  8.8228      8.8228      9.1942      9.9945      11.346      13.438      16.508      20.797      26.472      33.552    
  41.847      50.931      59.959      67.383      72.300      74.850      75.795      75.795      74.849      72.300    
  67.383      59.959      50.931      41.847      33.552      26.472      20.797      16.508      16.127      13.551    
  11.854      10.806      10.241      10.062      10.241      10.806      11.854      13.551      16.127      19.840    
  24.909      31.437      39.336      48.280      57.636      65.908      71.723      74.849      76.032      76.276    
  76.032      74.849      71.724      65.909      57.636      48.280      39.336      31.437      24.909      19.840    
  19.063      16.032      14.004      12.723      11.982      11.644      11.644      11.982      12.723      14.004    
  16.032      19.063      23.351      29.070      36.235      44.641      53.833      62.765      69.749      73.970    
  75.795      76.276      76.276      75.795      73.971      69.749      62.765      53.833      44.641      36.235    
  29.070      23.351      22.046      18.651      16.353      14.887      14.015      13.560      13.419      13.560    