Sb                                      
   1.00000000000000     
     4.380470    0.000000    0.000000
    -2.190235    3.793598    0.000000
     0.000000    0.000000   11.478040
   Sb
     6
Direct
  0.000000  0.000000  0.233320
  0.000000  0.000000  0.766680
  0.666667  0.333333  0.566660
  0.666667  0.333333  0.100010
  0.333333  0.666667  0.899990
  0.333333  0.666667  0.433340
 
   32   32   84
 0.37719156483E+01 0.38431836379E+01 0.40647917647E+01 0.44588269410E+01 0.50584482486E+01
 0.59043012761E+01 0.70411281491E+01 0.85130883636E+01 0.10354774611E+02 0.12575532775E+02
 0.15138084109E+02 0.17937556353E+02 0.20791117313E+02 0.23448153334E+02 0.25624821476E+02
 0.27056986826E+02 0.27557012027E+02 0.27056986826E+02 0.25624821476E+02 0.23448153334E+02
 0.20791117313E+02 0.17937556353E+02 0.15138084109E+02 0.12575532775E+02 0.10354774611E+02
 0.85130883636E+01 0.70411281491E+01 0.59043012761E+01 0.50584482486E+01 0.44588269410E+01
 0.40647917647E+01 0.38431836379E+01 0.38431854715E+01 0.38431810446E+01 0.39896511957E+01
 0.42977810602E+01 0.47959062737E+01 0.55224471476E+01 0.65226574981E+01 0.78445655799E+01
 0.95317104359E+01 0.11609879846E+02 0.14067238053E+02 0.16831734814E+02 0.19754460958E+02
 0.22609516025E+02 0.25117552181E+02 0.26991805578E+02 0.27995782865E+02 0.27995755228E+02
 0.26991784665E+02 0.25117632581E+02 0.22609684086E+02 0.19754605078E+02 0.16831783376E+02
 0.14067229628E+02 0.11609887635E+02 0.95317460589E+01 0.78445854702E+01 0.65226349843E+01
 0.55224031857E+01 0.47958758150E+01 0.42977755551E+01 0.39896584382E+01 0.40647896670E+01
 0.39896530294E+01 0.40647940829E+01 0.42977699996E+01 0.47108453228E+01 0.53397021199E+01
 0.62312989880E+01 0.74402028218E+01 0.90215415701E+01 0.11018175396E+02 0.13441049641E+02
 0.16245324352E+02 0.19309490848E+02 0.22427647803E+02 0.25323761172E+02 0.27690295643E+02
 0.29244306924E+02 0.29786249678E+02 0.29244223001E+02 0.27690267266E+02 0.25323868378E+02
 0.22427794733E+02 0.19309532644E+02 0.16245253776E+02 0.13440986817E+02 0.11018194681E+02
 0.90215891128E+01 0.74401997874E+01 0.62312536035E+01 0.53396745663E+01 0.47108512695E+01
 0.42977773888E+01 0.44588145099E+01 0.42977667955E+01 0.42977824306E+01 0.44588248284E+01
 0.47958575629E+01 0.53396500505E+01 0.61370796696E+01 0.72490480315E+01 0.87437791950E+01
 0.10683444479E+02 0.13103407083E+02 0.15986299402E+02 0.19237147168E+02 0.22669113178E+02
 0.26009591511E+02 0.28931637387E+02 0.31107151854E+02 0.32269628266E+02 0.32269603375E+02
 0.31107086749E+02 0.28931562408E+02 0.26009535131E+02 0.22669061760E+02 0.19237067026E+02
 0.15986209529E+02 0.13103370826E+02 0.10683470726E+02 0.87438023393E+01 0.72490341672E+01
 0.61370753764E+01 0.53396869973E+01 0.47958900798E+01 0.50584482486E+01 0.47958631440E+01
 0.47108474205E+01 0.47959112900E+01 0.50584490632E+01 0.55223806854E+01 0.62312161147E+01
 0.72490161100E+01 0.86555067081E+01 0.10532713133E+02 0.12942660923E+02 0.15898668684E+02
 0.19336126821E+02 0.23091738116E+02 0.26901361862E+02 0.30423622153E+02 0.33288869331E+02
 0.35163925328E+02 0.35816733782E+02 0.35163993537E+02 0.33288843831E+02 0.30423460432E+02
 0.26901212234E+02 0.23091703834E+02 0.19336149392E+02 0.15898680099E+02 0.12942676985E+02
 0.10532738351E+02 0.86555044306E+01 0.72490053022E+01 0.62312557011E+01 0.55224426481E+01
 0.59043470769E+01 0.55224031805E+01 0.53396563191E+01 0.53397082824E+01 0.55224677822E+01
 0.59043223303E+01 0.65226339831E+01 0.74401802698E+01 0.87437873026E+01 0.10532731875E+02
 0.12895758765E+02 0.15879577868E+02 0.19455155526E+02 0.23490509841E+02 0.27739978340E+02
 0.31858642796E+02 0.35444826359E+02 0.38104319275E+02 0.39521812698E+02 0.39521923240E+02
 0.38104479642E+02 0.35444816019E+02 0.31858549516E+02 0.27740011245E+02 0.23490649125E+02
 0.19455242634E+02 0.15879595471E+02 0.12895782833E+02 0.10532742856E+02 0.87437441074E+01
 0.74401539866E+01 0.65226789514E+01 0.70412044303E+01 0.65226593318E+01 0.62312206091E+01
 0.61370672385E+01 0.62312923958E+01 0.65226797839E+01 0.70411717968E+01 0.78446126140E+01
 0.90215818111E+01 0.10683469464E+02 0.12942736023E+02 0.15879697301E+02 0.19504694832E+02
 0.23724756620E+02 0.28324511796E+02 0.32970628386E+02 0.37245438371E+02 0.40707223838E+02
 0.42964941443E+02 0.43749576871E+02 0.42965131804E+02 0.40707348041E+02 0.37245427872E+02
 0.32970675846E+02 0.28324674228E+02 0.23724849822E+02 0.19504640615E+02 0.15879641272E+02
 0.12942753266E+02 0.10683458295E+02 0.90215107340E+01 0.78445873039E+01 0.85131344351E+01
 0.78446098177E+01 0.74401567502E+01 0.72489895289E+01 0.72490208855E+01 0.74401805406E+01
 0.78445665425E+01 0.85131103136E+01 0.95317535645E+01 0.11018175285E+02 0.13103378088E+02
 0.15898770739E+02 0.19455380001E+02 0.23724928693E+02 0.28532924163E+02 0.33573266000E+02
 0.38431666523E+02 0.42638832350E+02 0.45744384070E+02 0.47394417839E+02 0.47394458177E+02
 0.45744420948E+02 0.42638789946E+02 0.38431641578E+02 0.33573327704E+02 0.28532943529E+02
 0.23724803751E+02 0.19455242364E+02 0.15898767466E+02 0.13103429329E+02 0.11018148610E+02
 0.95317018211E+01 0.10354774611E+02 0.95317348522E+01 0.90215436678E+01 0.87437653760E+01
 0.86555067081E+01 0.87437677518E+01 0.90215055299E+01 0.95316812429E+01 0.10354772844E+02
 0.11609880012E+02 0.13440934788E+02 0.15986139158E+02 0.19336127975E+02 0.23490694671E+02
 0.28324731444E+02 0.33573346305E+02 0.38844609610E+02 0.43663671544E+02 0.47542595701E+02
 0.50060220367E+02 0.50932692738E+02 0.50060091989E+02 0.47542440059E+02 0.43663597837E+02
 0.38844611896E+02 0.33573307882E+02 0.28324597947E+02 0.23490577074E+02 0.19336149392E+02
 0.15986248210E+02 0.13440988914E+02 0.11609859552E+02 0.12575558985E+02 0.11609855470E+02
 0.11018149186E+02 0.10683483120E+02 0.10532780639E+02 0.10532751467E+02 0.10683443255E+02
 0.11018155423E+02 0.11609879971E+02 0.12575553649E+02 0.14067224186E+02 0.16245180117E+02
 0.19236944157E+02 0.23091602410E+02 0.27739983448E+02 0.32970702787E+02 0.38431663421E+02
 0.43663595693E+02 0.48163557588E+02 0.51464540060E+02 0.53210520098E+02 0.53210428127E+02
 0.51464391386E+02 0.48163528764E+02 0.43663650297E+02 0.38431661441E+02 0.32970649637E+02
 0.27739991653E+02 0.23091688748E+02 0.19237028385E+02 0.16245227566E+02 0.14067254004E+02
 0.15138196707E+02 0.14067239887E+02 0.13440934945E+02 0.13103394652E+02 0.12942773521E+02
 0.12895804566E+02 0.12942699706E+02 0.13103424159E+02 0.13441047386E+02 0.14067250395E+02
 0.15138142280E+02 0.16831857978E+02 0.19309546754E+02 0.22668987378E+02 0.26901121598E+02
 0.31858528525E+02 0.37245458543E+02 0.42638776807E+02 0.47542357168E+02 0.51464337308E+02
 0.53995058493E+02 0.54866910904E+02 0.53994992908E+02 0.51464417595E+02 0.47542552657E+02
 0.42638836017E+02 0.37245391556E+02 0.31858595317E+02 0.26901324832E+02 0.22669049329E+02
 0.19309417948E+02 0.16831785210E+02 0.17937685054E+02 0.16831861681E+02 0.16245195651E+02
 0.15986158270E+02 0.15898756089E+02 0.15879660768E+02 0.15879568600E+02 0.15898688109E+02
 0.15986294109E+02 0.16245282609E+02 0.16831729277E+02 0.17937646295E+02 0.19754738808E+02
 0.22427869414E+02 0.26009533275E+02 0.30423458991E+02 0.35444856422E+02 0.40707368526E+02
 0.45744353017E+02 0.50059967145E+02 0.53210330032E+02 0.54866854164E+02 0.54866782203E+02
 0.53210325636E+02 0.50060194439E+02 0.45744503577E+02 0.40707219340E+02 0.35444733119E+02
 0.30423630429E+02 0.26009676263E+02 0.22427666033E+02 0.19754478211E+02 0.20791117313E+02
 0.19754684944E+02 0.19309492946E+02 0.19236933779E+02 0.19336126821E+02 0.19455335545E+02
 0.19504618551E+02 0.19455108110E+02 0.19336127975E+02 0.19237143767E+02 0.19309434156E+02
 0.19754384288E+02 0.20791101305E+02 0.22609754284E+02 0.25323963458E+02 0.28931612204E+02
 0.33288849510E+02 0.38104495082E+02 0.42965181634E+02 0.47394501894E+02 0.50932672506E+02
 0.53210427151E+02 0.53994945895E+02 0.53210268070E+02 0.50932692738E+02 0.47394637925E+02
 0.42965055523E+02 0.38104208022E+02 0.33288843831E+02 0.28931800659E+02 0.25323870476E+02
 0.22609456433E+02 0.23447991264E+02 0.22609679929E+02 0.22427809874E+02 0.22668963539E+02
 0.23091617342E+02 0.23490717713E+02 0.23724918691E+02 0.23724720551E+02 0.23490506350E+02
 0.23091790689E+02 0.22669149449E+02 0.22427578643E+02 0.22609366394E+02 0.23448050777E+02
 0.25117645709E+02 0.27690315935E+02 0.31107061586E+02 0.35163920467E+02 0.39521932032E+02
 0.43749712354E+02 0.47394565643E+02 0.50060257916E+02 0.51464499379E+02 0.51464351780E+02
 0.50060084546E+02 0.47394625981E+02 0.43749738941E+02 0.39521715369E+02 0.35163790171E+02
 0.31107236388E+02 0.27690429337E+02 0.25117468677E+02 0.25624634694E+02 0.25117554015E+02
 0.25323945856E+02 0.26009579080E+02 0.26901175080E+02 0.27740024141E+02 0.28324774859E+02
 0.28532970234E+02 0.28324544662E+02 0.27740009658E+02 0.26901420977E+02 0.26009661976E+02
 0.25323776677E+02 0.25117483639E+02 0.25624728421E+02 0.26991739243E+02 0.29244211506E+02
 0.32269557488E+02 0.35816648792E+02 0.39521769962E+02 0.42964994852E+02 0.45744481718E+02
 0.47542656547E+02 0.48163583798E+02 0.47542408919E+02 0.45744430142E+02 0.42965204506E+02
 0.39521858499E+02 0.35816547000E+02 0.32269590944E+02 0.29244407685E+02 0.26991786498E+02
 0.27056912711E+02 0.26991729630E+02 0.27690369757E+02 0.28931699070E+02 0.30423506743E+02
 0.31858522881E+02 0.32970702501E+02 0.33573386186E+02 0.33573298440E+02 0.32970602463E+02
 0.31858602639E+02 0.30423661806E+02 0.28931763909E+02 0.27690403891E+02 0.26991813358E+02
 0.27056940270E+02 0.27995752669E+02 0.29786296287E+02 0.32269631603E+02 0.35163832511E+02
 0.38104195148E+02 0.40707165710E+02 0.42638850921E+02 0.43663696017E+02 0.43663571180E+02
 0.42638712164E+02 0.40707297953E+02 0.38104439190E+02 0.35163892509E+02 0.32269566583E+02
 0.29786323793E+02 0.27995831176E+02 0.27557012027E+02 0.27995781031E+02 0.29244309022E+02
 0.31107164285E+02 0.33288869331E+02 0.35444780558E+02 0.37245362090E+02 0.38431620451E+02
 0.38844609610E+02 0.38431637212E+02 0.37245345945E+02 0.35444727721E+02 0.33288849510E+02
 0.31107223657E+02 0.29244398288E+02 0.27995826784E+02 0.27557023781E+02 0.27995826784E+02
 0.29244398288E+02 0.31107223657E+02 0.33288849510E+02 0.35444727721E+02 0.37245345945E+02
 0.38431637212E+02 0.38844609610E+02 0.38431620451E+02 0.37245362090E+02 0.35444780558E+02
 0.33288869331E+02 0.31107164285E+02 0.29244309022E+02 0.27995781031E+02 0.27056912711E+02
 0.27995831176E+02 0.29786323793E+02 0.32269566583E+02 0.35163892509E+02 0.38104439190E+02
 0.40707297953E+02 0.42638712164E+02 0.43663571180E+02 0.43663696017E+02 0.42638850921E+02
 0.40707165710E+02 0.38104195148E+02 0.35163832511E+02 0.32269631603E+02 0.29786296287E+02
 0.27995752669E+02 0.27056940270E+02 0.26991813358E+02 0.27690403891E+02 0.28931763909E+02
 0.30423661806E+02 0.31858602639E+02 0.32970602463E+02 0.33573298440E+02 0.33573386186E+02
 0.32970702501E+02 0.31858522881E+02 0.30423506743E+02 0.28931699070E+02 0.27690369757E+02
 0.26991729630E+02 0.25624634694E+02 0.26991786498E+02 0.29244407685E+02 0.32269590944E+02
 0.35816547000E+02 0.39521858499E+02 0.42965204506E+02 0.45744430142E+02 0.47542408919E+02
 0.48163583798E+02 0.47542656547E+02 0.45744481718E+02 0.42964994852E+02 0.39521769962E+02
 0.35816648792E+02 0.32269557488E+02 0.29244211506E+02 0.26991739243E+02 0.25624728421E+02
 0.25117483639E+02 0.25323776677E+02 0.26009661976E+02 0.26901420977E+02 0.27740009658E+02
 0.28324544662E+02 0.28532970234E+02 0.28324774859E+02 0.27740024141E+02 0.26901175080E+02
 0.26009579080E+02 0.25323945856E+02 0.25117554015E+02 0.23447991264E+02 0.25117468677E+02
 0.27690429337E+02 0.31107236388E+02 0.35163790171E+02 0.39521715369E+02 0.43749738941E+02
 0.47394625981E+02 0.50060084546E+02 0.51464351780E+02 0.51464499379E+02 0.50060257916E+02
 0.47394565643E+02 0.43749712354E+02 0.39521932032E+02 0.35163920467E+02 0.31107061586E+02
 0.27690315935E+02 0.25117645709E+02 0.23448050777E+02 0.22609366394E+02 0.22427578643E+02
 0.22669149449E+02 0.23091790689E+02 0.23490506350E+02 0.23724720551E+02 0.23724918691E+02
 0.23490717713E+02 0.23091617342E+02 0.22668963539E+02 0.22427809874E+02 0.22609679929E+02
 0.20791117313E+02 0.22609456433E+02 0.25323870476E+02 0.28931800659E+02 0.33288843831E+02
 0.38104208022E+02 0.42965055523E+02 0.47394637925E+02 0.50932692738E+02 0.53210268070E+02
 0.53994945895E+02 0.53210427151E+02 0.50932672506E+02 0.47394501894E+02 0.42965181634E+02
 0.38104495082E+02 0.33288849510E+02 0.28931612204E+02 0.25323963458E+02 0.22609754284E+02
 0.20791101305E+02 0.19754384288E+02 0.19309434156E+02 0.19237143767E+02 0.19336127975E+02
 0.19455108110E+02 0.19504618551E+02 0.19455335545E+02 0.19336126821E+02 0.19236933779E+02
 0.19309492946E+02 0.19754684944E+02 0.17937685054E+02 0.19754478211E+02 0.22427666033E+02
 0.26009676263E+02 0.30423630429E+02 0.35444733119E+02 0.40707219340E+02 0.45744503577E+02
 0.50060194439E+02 0.53210325636E+02 0.54866782203E+02 0.54866854164E+02 0.53210330032E+02
 0.50059967145E+02 0.45744353017E+02 0.40707368526E+02 0.35444856422E+02 0.30423458991E+02
 0.26009533275E+02 0.22427869414E+02 0.19754738808E+02 0.17937646295E+02 0.16831729277E+02
 0.16245282609E+02 0.15986294109E+02 0.15898688109E+02 0.15879568600E+02 0.15879660768E+02
 0.15898756089E+02 0.15986158270E+02 0.16245195651E+02 0.16831861681E+02 0.15138196707E+02
 0.16831785210E+02 0.19309417948E+02 0.22669049329E+02 0.26901324832E+02 0.31858595317E+02
 0.37245391556E+02 0.42638836017E+02 0.47542552657E+02 0.51464417595E+02 0.53994992908E+02
 0.54866910904E+02 0.53995058493E+02 0.51464337308E+02 0.47542357168E+02 0.42638776807E+02
 0.37245458543E+02 0.31858528525E+02 0.26901121598E+02 0.22668987378E+02 0.19309546754E+02
 0.16831857978E+02 0.15138142280E+02 0.14067250395E+02 0.13441047386E+02 0.13103424159E+02
 0.12942699706E+02 0.12895804566E+02 0.12942773521E+02 0.13103394652E+02 0.13440934945E+02
 0.14067239887E+02 0.12575558985E+02 0.14067254004E+02 0.16245227566E+02 0.19237028385E+02
 0.23091688748E+02 0.27739991653E+02 0.32970649637E+02 0.38431661441E+02 0.43663650297E+02
 0.48163528764E+02 0.51464391386E+02 0.53210428127E+02 0.53210520098E+02 0.51464540060E+02
 0.48163557588E+02 0.43663595693E+02 0.38431663421E+02 0.32970702787E+02 0.27739983448E+02
 0.23091602410E+02 0.19236944157E+02 0.16245180117E+02 0.14067224186E+02 0.12575553649E+02
 0.11609879971E+02 0.11018155423E+02 0.10683443255E+02 0.10532751467E+02 0.10532780639E+02
 0.10683483120E+02 0.11018149186E+02 0.11609855470E+02 0.10354774611E+02 0.11609859552E+02
 0.13440988914E+02 0.15986248210E+02 0.19336149392E+02 0.23490577074E+02 0.28324597947E+02
 0.33573307882E+02 0.38844611896E+02 0.43663597837E+02 0.47542440059E+02 0.50060091989E+02
 0.50932692738E+02 0.50060220367E+02 0.47542595701E+02 0.43663671544E+02 0.38844609610E+02
 0.33573346305E+02 0.28324731444E+02 0.23490694671E+02 0.19336127975E+02 0.15986139158E+02
 0.13440934788E+02 0.11609880012E+02 0.10354772844E+02 0.95316812429E+01 0.90215055299E+01
 0.87437677518E+01 0.86555067081E+01 0.87437653760E+01 0.90215436678E+01 0.95317348522E+01
 0.85131344351E+01 0.95317018211E+01 0.11018148610E+02 0.13103429329E+02 0.15898767466E+02
 0.19455242364E+02 0.23724803751E+02 0.28532943529E+02 0.33573327704E+02 0.38431641578E+02
 0.42638789946E+02 0.45744420948E+02 0.47394458177E+02 0.47394417839E+02 0.45744384070E+02
 0.42638832350E+02 0.38431666523E+02 0.33573266000E+02 0.28532924163E+02 0.23724928693E+02
 0.19455380001E+02 0.15898770739E+02 0.13103378088E+02 0.11018175285E+02 0.95317535645E+01
 0.85131103136E+01 0.78445665425E+01 0.74401805406E+01 0.72490208855E+01 0.72489895289E+01
 0.74401567502E+01 0.78446098177E+01 0.70412044303E+01 0.78445873039E+01 0.90215107340E+01
 0.10683458295E+02 0.12942753266E+02 0.15879641272E+02 0.19504640615E+02 0.23724849822E+02
 0.28324674228E+02 0.32970675846E+02 0.37245427872E+02 0.40707348041E+02 0.42965131804E+02
 0.43749576871E+02 0.42964941443E+02 0.40707223838E+02 0.37245438371E+02 0.32970628386E+02
 0.28324511796E+02 0.23724756620E+02 0.19504694832E+02 0.15879697301E+02 0.12942736023E+02
 0.10683469464E+02 0.90215818111E+01 0.78446126140E+01 0.70411717968E+01 0.65226797839E+01
 0.62312923958E+01 0.61370672385E+01 0.62312206091E+01 0.65226593318E+01 0.59043470769E+01
 0.65226789514E+01 0.74401539866E+01 0.87437441074E+01 0.10532742856E+02 0.12895782833E+02
 0.15879595471E+02 0.19455242634E+02 0.23490649125E+02 0.27740011245E+02 0.31858549516E+02
 0.35444816019E+02 0.38104479642E+02 0.39521923240E+02 0.39521812698E+02 0.38104319275E+02
 0.35444826359E+02 0.31858642796E+02 0.27739978340E+02 0.23490509841E+02 0.19455155526E+02
 0.15879577868E+02 0.12895758765E+02 0.10532731875E+02 0.87437873026E+01 0.74401802698E+01
 0.65226339831E+01 0.59043223303E+01 0.55224677822E+01 0.53397082824E+01 0.53396563191E+01
 0.55224031805E+01 0.50584482486E+01 0.55224426481E+01 0.62312557011E+01 0.72490053022E+01
 0.86555044306E+01 0.10532738351E+02 0.12942676985E+02 0.15898680099E+02 0.19336149392E+02
 0.23091703834E+02 0.26901212234E+02 0.30423460432E+02 0.33288843831E+02 0.35163993537E+02
 0.35816733782E+02 0.35163925328E+02 0.33288869331E+02 0.30423622153E+02 0.26901361862E+02
 0.23091738116E+02 0.19336126821E+02 0.15898668684E+02 0.12942660923E+02 0.10532713133E+02
 0.86555067081E+01 0.72490161100E+01 0.62312161147E+01 0.55223806854E+01 0.50584490632E+01
 0.47959112900E+01 0.47108474205E+01 0.47958631440E+01 0.44588145099E+01 0.47958900798E+01
 0.53396869973E+01 0.61370753764E+01 0.72490341672E+01 0.87438023393E+01 0.10683470726E+02
 0.13103370826E+02 0.15986209529E+02 0.19237067026E+02 0.22669061760E+02 0.26009535131E+02
 0.28931562408E+02 0.31107086749E+02 0.32269603375E+02 0.32269628266E+02 0.31107151854E+02
 0.28931637387E+02 0.26009591511E+02 0.22669113178E+02 0.19237147168E+02 0.15986299402E+02
 0.13103407083E+02 0.10683444479E+02 0.87437791950E+01 0.72490480315E+01 0.61370796696E+01
 0.53396500505E+01 0.47958575629E+01 0.44588248284E+01 0.42977824306E+01 0.42977667955E+01
 0.40647896670E+01 0.42977773888E+01 0.47108512695E+01 0.53396745663E+01 0.62312536035E+01
 0.74401997874E+01 0.90215891128E+01 0.11018194681E+02 0.13440986817E+02 0.16245253776E+02
 0.19309532644E+02 0.22427794733E+02 0.25323868378E+02 0.27690267266E+02 0.29244223001E+02
 0.29786249678E+02 0.29244306924E+02 0.27690295643E+02 0.25323761172E+02 0.22427647803E+02
 0.19309490848E+02 0.16245324352E+02 0.13441049641E+02 0.11018175396E+02 0.90215415701E+01
 0.74402028218E+01 0.62312989880E+01 0.53397021199E+01 0.47108453228E+01 0.42977699996E+01
 0.40647940829E+01 0.39896530294E+01 0.38431854715E+01 0.39896584382E+01 0.42977755551E+01
 0.47958758150E+01 0.55224031857E+01 0.65226349843E+01 0.78445854702E+01 0.95317460589E+01
 0.11609887635E+02 0.14067229628E+02 0.16831783376E+02 0.19754605078E+02 0.22609684086E+02
 0.25117632581E+02 0.26991784665E+02 0.27995755228E+02 0.27995782865E+02 0.26991805578E+02
 0.25117552181E+02 0.22609516025E+02 0.19754460958E+02 0.16831734814E+02 0.14067238053E+02
 0.11609879846E+02 0.95317104359E+01 0.78445655799E+01 0.65226574981E+01 0.55224471476E+01
 0.47959062737E+01 0.42977810602E+01 0.39896511957E+01 0.38431810446E+01 0.39066947664E+01
 0.39787492623E+01 0.42024401054E+01 0.45992531144E+01 0.52020880755E+01 0.60523150651E+01
 0.71965380970E+01 0.86813861104E+01 0.10543483658E+02 0.12792649559E+02 0.15389879792E+02
 0.18226643017E+02 0.21115642521E+02 0.23802405943E+02 0.26000770844E+02 0.27445858014E+02
 0.27950159558E+02 0.27445915249E+02 0.26000838561E+02 0.23802424970E+02 0.21115598607E+02
 0.18226586260E+02 0.15389865127E+02 0.12792670586E+02 0.10543494908E+02 0.86813741498E+01
 0.71965287754E+01 0.60523197601E+01 0.52020893431E+01 0.45992440077E+01 0.42024352847E+01
 0.39787529540E+01 0.39787521726E+01 0.39787422793E+01 0.41374795260E+01 0.44694135339E+01
 0.50030129396E+01 0.57797319401E+01 0.68515776007E+01 0.82757670394E+01 0.10104418848E+02
 0.12367672449E+02 0.15050954781E+02 0.18071237183E+02 0.21261254132E+02 0.24371895901E+02
 0.27099197176E+02 0.29133986437E+02 0.30222799310E+02 0.30222782217E+02 0.29133993378E+02
 0.27099304372E+02 0.24372063589E+02 0.21261370893E+02 0.18071264020E+02 0.15050950476E+02
 0.12367692374E+02 0.10104455061E+02 0.82757861956E+01 0.68515659336E+01 0.57796976075E+01
 0.50029774535E+01 0.44694008834E+01 0.41374913663E+01 0.42024392799E+01 0.41158349490E+01
 0.42024357634E+01 0.44693982629E+01 0.49391432373E+01 0.56511187145E+01 0.66618773817E+01
 0.80406751487E+01 0.98584065241E+01 0.12168925678E+02 0.14983913260E+02 0.18245701899E+02
 0.21806101982E+02 0.25421239210E+02 0.28770510113E+02 0.31501265244E+02 0.33291581683E+02
 0.33915408871E+02 0.33291461608E+02 0.31501206397E+02 0.28770619555E+02 0.25421407334E+02
 0.21806161840E+02 0.18245642614E+02 0.14983857484E+02 0.12168945425E+02 0.98584512792E+01
 0.80406751656E+01 0.66618391963E+01 0.56510922764E+01 0.49391457356E+01 0.44694087308E+01
 0.45992414595E+01 0.44051144703E+01 0.44051246028E+01 0.45992438656E+01 0.50029649915E+01
 0.56510723120E+01 0.66013446379E+01 0.79331007617E+01 0.97367489768E+01 0.12093194927E+02
 0.15045052740E+02 0.18564720054E+02 0.22527312212E+02 0.26698295181E+02 0.30744719644E+02
 0.34274005192E+02 0.36895984059E+02 0.38295233317E+02 0.38295192274E+02 0.36895883412E+02
 0.34273902486E+02 0.30744662315E+02 0.26698267273E+02 0.22527260280E+02 0.18564641785E+02
 0.15045006288E+02 0.12093203918E+02 0.97367649469E+01 0.79330896056E+01 0.66013403170E+01
 0.56511034535E+01 0.50029964781E+01 0.52020893431E+01 0.48740685933E+01 0.47675266174E+01
 0.48741190376E+01 0.52020903554E+01 0.57796724891E+01 0.66617998568E+01 0.79330705903E+01
 0.97003287264E+01 0.12071901925E+02 0.15125349987E+02 0.18869832988E+02 0.23212056669E+02
 0.27936018497E+02 0.32705988123E+02 0.37098288962E+02 0.40660323232E+02 0.42986762428E+02
 0.43795934925E+02 0.42986802387E+02 0.40660266215E+02 0.37098119841E+02 0.32705856419E+02
 0.27936000031E+02 0.23212070079E+02 0.18869819955E+02 0.15125351934E+02 0.12071929427E+02
 0.97003300094E+01 0.79330560041E+01 0.66618352011E+01 0.57797345386E+01 0.60523627933E+01
 0.55588169488E+01 0.53224105904E+01 0.53224748704E+01 0.55588967356E+01 0.60523312604E+01
 0.68515530048E+01 0.80406566283E+01 0.97367531407E+01 0.12071907133E+02 0.15159327599E+02
 0.19050306467E+02 0.23692441918E+02 0.28900556844E+02 0.34350392379E+02 0.39601939671E+02
 0.44153284554E+02 0.47517482762E+02 0.49307147430E+02 0.49307251959E+02 0.47517633777E+02
 0.44153278557E+02 0.39601866137E+02 0.34350434895E+02 0.28900673165E+02 0.23692493486E+02
 0.19050317856E+02 0.15159377558E+02 0.12071936310E+02 0.97367021078E+01 0.80406235036E+01
 0.68516097481E+01 0.71966161963E+01 0.65007346350E+01 0.61097740035E+01 0.59834591505E+01
 0.61098569250E+01 0.65007552073E+01 0.71965720179E+01 0.82758181042E+01 0.98584489139E+01
 0.12093201491E+02 0.15125401032E+02 0.19050405151E+02 0.23864324024E+02 0.29425315203E+02
 0.35436868157E+02 0.41461280723E+02 0.46966455072E+02 0.51400877837E+02 0.54282119728E+02
 0.55279943483E+02 0.54282382910E+02 0.51401068737E+02 0.46966452023E+02 0.41461299338E+02
 0.35437007571E+02 0.29425401986E+02 0.23864276785E+02 0.19050369518E+02 0.15125439355E+02
 0.12093192741E+02 0.98583678535E+01 0.82757940431E+01 0.86814364535E+01 0.77431658910E+01
 0.71737321139E+01 0.69041223923E+01 0.69041555426E+01 0.71737548118E+01 0.77431151515E+01
 0.86814103794E+01 0.10104470908E+02 0.12168928668E+02 0.15045022071E+02 0.18869919545E+02
 0.23692619488E+02 0.29425451565E+02 0.35815806392E+02 0.42448221394E+02 0.48782315901E+02
 0.54221728646E+02 0.58166342982E+02 0.60210706906E+02 0.60210792626E+02 0.58166457623E+02
 0.54221706581E+02 0.48782253593E+02 0.42448254986E+02 0.35815836407E+02 0.29425348311E+02
 0.23692491473E+02 0.18869918408E+02 0.15045071140E+02 0.12168891750E+02 0.10104409233E+02
 0.10543494908E+02 0.93256089803E+01 0.85581838606E+01 0.81353081395E+01 0.80001287305E+01
 0.81353206391E+01 0.85581470988E+01 0.93255448281E+01 0.10543489248E+02 0.12367684652E+02
 0.14983817564E+02 0.18564591651E+02 0.23212059123E+02 0.28900703519E+02 0.35437028902E+02
 0.42448243006E+02 0.49408568781E+02 0.55688944737E+02 0.60554996004E+02 0.63544652445E+02
 0.64541703422E+02 0.63544494084E+02 0.60554792216E+02 0.55688834269E+02 0.49408571752E+02
 0.42448233941E+02 0.35436920150E+02 0.28900588874E+02 0.23212070079E+02 0.18564685591E+02
 0.14983853488E+02 0.12367651897E+02 0.12792689583E+02 0.11271952200E+02 0.10297914442E+02
 0.97236204745E+01 0.94573633331E+01 0.94573346431E+01 0.97235834584E+01 0.10297924511E+02
 0.11271974052E+02 0.12792673148E+02 0.15050933387E+02 0.18245578643E+02 0.22527162254E+02
 0.27935913304E+02 0.34350392114E+02 0.41461290305E+02 0.48782250878E+02 0.55688847671E+02
 0.61349310746E+02 0.65172991891E+02 0.67047737366E+02 0.67047611777E+02 0.65172770129E+02
 0.61349225049E+02 0.55688894524E+02 0.48782279642E+02 0.41461271712E+02 0.34350410859E+02
 0.27935982878E+02 0.22527221477E+02 0.18245614988E+02 0.15050970254E+02 0.15389991385E+02
 0.13571654862E+02 0.12402674888E+02 0.11696954220E+02 0.11322476894E+02 0.11205291318E+02
 0.11322383989E+02 0.11696981949E+02 0.12402806335E+02 0.13571667217E+02 0.15389908799E+02
 0.18071318088E+02 0.21806165995E+02 0.26698206450E+02 0.32705797378E+02 0.39601871977E+02
 0.46966483737E+02 0.54221669958E+02 0.60554685358E+02 0.65172715525E+02 0.67850210165E+02
 0.68709950281E+02 0.67850122424E+02 0.65172797756E+02 0.60554918474E+02 0.54221760256E+02
 0.46966413186E+02 0.39601917799E+02 0.32705982677E+02 0.26698256096E+02 0.21806039577E+02
 0.18071271867E+02 0.18226742849E+02 0.16157820927E+02 0.14835799796E+02 0.14043752306E+02
 0.13608337977E+02 0.13417030634E+02 0.13416923556E+02 0.13608254962E+02 0.14043903266E+02
 0.14835904596E+02 0.16157679250E+02 0.18226686089E+02 0.21261479930E+02 0.25421441354E+02
 0.30744662806E+02 0.37098182032E+02 0.44153381192E+02 0.51401077543E+02 0.58166313638E+02
 0.63544304312E+02 0.67047500654E+02 0.68709896787E+02 0.68709802321E+02 0.67047491443E+02
 0.63544609415E+02 0.58166551908E+02 0.51400920777E+02 0.44153182258E+02 0.37098312580E+02
 0.30744821452E+02 0.25421259374E+02 0.21261230780E+02 0.21115598607E+02 0.18891138753E+02
 0.17494332011E+02 0.16690915133E+02 0.16270197370E+02 0.16077222715E+02 0.16022259808E+02
 0.16076956042E+02 0.16270198599E+02 0.16691166717E+02 0.17494282719E+02 0.18890816436E+02
 0.21115596744E+02 0.24372119295E+02 0.28770680465E+02 0.34273928914E+02 0.40660278905E+02
 0.47517675371E+02 0.54282450551E+02 0.60210830333E+02 0.64541659707E+02 0.67047619545E+02
 0.67850083907E+02 0.67047442889E+02 0.64541703422E+02 0.60211005803E+02 0.54282295489E+02
 0.47517315264E+02 0.40660266215E+02 0.34274180514E+02 0.28770615560E+02 0.24371788890E+02
 0.23802216564E+02 0.21560056698E+02 0.20200909408E+02 0.19489552922E+02 0.19186560729E+02
 0.19094152428E+02 0.19079706019E+02 0.19079458115E+02 0.19093886429E+02 0.19186775219E+02
 0.19489791291E+02 0.20200645880E+02 0.21559711994E+02 0.23802341964E+02 0.27099336778E+02
 0.31501225428E+02 0.36895781834E+02 0.42986685576E+02 0.49307311974E+02 0.55280177890E+02
 0.60210897407E+02 0.63544652049E+02 0.65172915303E+02 0.65172764488E+02 0.63544485297E+02
 0.60210960359E+02 0.55280143260E+02 0.49307000519E+02 0.42986557831E+02 0.36896072013E+02
 0.31501406175E+02 0.27099096747E+02 0.26000589090E+02 0.23903473041E+02 0.22715927087E+02
 0.22218234451E+02 0.22154601714E+02 0.22288087423E+02 0.22439004066E+02 0.22500640507E+02
 0.22438715411E+02 0.22288073159E+02 0.22154898487E+02 0.22218297167E+02 0.22715683881E+02
 0.23903415216E+02 0.26000774990E+02 0.29133973183E+02 0.33291445026E+02 0.38295115821E+02
 0.43795826544E+02 0.49307112197E+02 0.54282201079E+02 0.58166461598E+02 0.60555061088E+02
 0.61349338373E+02 0.60554746532E+02 0.58166396657E+02 0.54282456620E+02 0.49307199092E+02
 0.43795685454E+02 0.38295181097E+02 0.33291715074E+02 0.29134001225E+02 0.27445801535E+02
 0.25654023922E+02 0.24771737099E+02 0.24608607177E+02 0.24907188830E+02 0.25399541070E+02
 0.25857950212E+02 0.26125655168E+02 0.26125539687E+02 0.25857833565E+02 0.25399665739E+02
 0.24907355440E+02 0.24608593190E+02 0.24771717338E+02 0.25654161411E+02 0.27445889553E+02
 0.30222819502E+02 0.33915499661E+02 0.38295238165E+02 0.42986608141E+02 0.47517286176E+02
 0.51400807240E+02 0.54221792301E+02 0.55688997640E+02 0.55688789765E+02 0.54221552628E+02
 0.51401000180E+02 0.47517656767E+02 0.42986684863E+02 0.38295122151E+02 0.33915531215E+02
 0.30222912408E+02 0.27950159558E+02 0.26591574210E+02 0.26122015434E+02 0.26390068662E+02
 0.27151709335E+02 0.28120605019E+02 0.29024981468E+02 0.29653291304E+02 0.29876827926E+02
 0.29653236249E+02 0.29024972438E+02 0.28120641269E+02 0.27151704595E+02 0.26390049051E+02
 0.26122074133E+02 0.26591666615E+02 0.27950181014E+02 0.30222872293E+02 0.33291694497E+02
 0.36896051165E+02 0.40660278905E+02 0.44153163679E+02 0.46966357479E+02 0.48782292804E+02
 0.49408568781E+02 0.48782192674E+02 0.46966367651E+02 0.44153302444E+02 0.40660323232E+02
 0.36895925683E+02 0.33291577688E+02 0.30222861015E+02 0.27445822622E+02 0.26591639947E+02
 0.26593038406E+02 0.27342503598E+02 0.28622781050E+02 0.30145079927E+02 0.31603849138E+02
 0.32733038995E+02 0.33344910881E+02 0.33344964043E+02 0.32733094265E+02 0.31603775351E+02
 0.30144940935E+02 0.28622717933E+02 0.27342509074E+02 0.26593009583E+02 0.26591570299E+02
 0.27445793973E+02 0.29133999946E+02 0.31501398442E+02 0.34274169002E+02 0.37098356755E+02
 0.39601898740E+02 0.41461235915E+02 0.42448248872E+02 0.42448301832E+02 0.41461307486E+02
 0.39601861245E+02 0.37098217420E+02 0.34274020779E+02 0.31501292008E+02 0.29133951826E+02
 0.26000645151E+02 0.25654119963E+02 0.26122093247E+02 0.27342495134E+02 0.29135213728E+02
 0.31226081702E+02 0.33292185380E+02 0.35020763150E+02 0.36162051440E+02 0.36560047654E+02
 0.36162226354E+02 0.35020795563E+02 0.33292023684E+02 0.31226001603E+02 0.29135281806E+02
 0.27342482310E+02 0.26121948440E+02 0.25654039068E+02 0.26000651212E+02 0.27099137000E+02
 0.28770554773E+02 0.30744810767E+02 0.32706049328E+02 0.34350419741E+02 0.35436903210E+02