   6   6   0   0
  0.3178985E+02  0.4380470E-09  0.4380470E-09  0.1147804E-08  0.5000000E-15
  1.000000000000000E-004
  CAR 
 Sb                                      
     22.01760727     -6.99793314  301      6.67639769      1.00000000
     -6.998  0.0000E+00  0.0000E+00
     -6.901  0.0000E+00  0.0000E+00
     -6.804  0.0000E+00  0.0000E+00
     -6.708  0.0000E+00  0.0000E+00
     -6.611  0.0000E+00  0.0000E+00
     -6.514  0.0000E+00  0.0000E+00
     -6.418  0.0000E+00  0.0000E+00
     -6.321  0.0000E+00  0.0000E+00
     -6.224  0.0000E+00  0.0000E+00
     -6.127  0.0000E+00  0.0000E+00
     -6.031  0.0000E+00  0.0000E+00
     -5.934  0.1208E-13  0.1168E-14
     -5.837  0.1931E-06  0.1868E-07
     -5.741  0.2923E-02  0.2827E-03
     -5.644  0.1097E+00  0.1089E-01
     -5.547  0.3052E+00  0.4041E-01
     -5.450  0.1000E+01  0.1372E+00
     -5.354  0.6377E+00  0.1988E+00
     -5.257  0.6696E+00  0.2636E+00
     -5.160  0.1351E+01  0.3943E+00
     -5.064  0.1471E+01  0.5366E+00
     -4.967  0.1739E+01  0.7048E+00
     -4.870  0.1087E+01  0.8099E+00
     -4.773  0.9992E+00  0.9066E+00
     -4.677  0.1373E+01  0.1039E+01
     -4.580  0.2909E+01  0.1321E+01
     -4.483  0.1925E+01  0.1507E+01
     -4.387  0.2269E+01  0.1726E+01
     -4.290  0.2598E+01  0.1977E+01
     -4.193  0.2363E+01  0.2206E+01
     -4.096  0.1933E+01  0.2393E+01
     -4.000  0.1967E+01  0.2583E+01
     -3.903  0.2984E+01  0.2872E+01
     -3.806  0.4282E+01  0.3286E+01
     -3.710  0.3588E+01  0.3633E+01
     -3.613  0.2744E+01  0.3898E+01
     -3.516  0.4376E+01  0.4322E+01
     -3.419  0.4217E+01  0.4729E+01
     -3.323  0.2383E+01  0.4960E+01
     -3.226  0.2503E+01  0.5202E+01
     -3.129  0.2764E+01  0.5469E+01
     -3.032  0.4637E+01  0.5918E+01
     -2.936  0.8476E+00  0.6000E+01
     -2.839  0.3536E-02  0.6000E+01
     -2.742  0.1512E+00  0.6015E+01
     -2.646  0.9781E+00  0.6109E+01
     -2.549  0.1274E+01  0.6232E+01
     -2.452  0.2437E+01  0.6468E+01
     -2.355  0.2050E+01  0.6666E+01
     -2.259  0.2670E+01  0.6925E+01
     -2.162  0.2936E+01  0.7209E+01
     -2.065  0.2558E+01  0.7456E+01
     -1.969  0.2775E+01  0.7724E+01
     -1.872  0.4254E+01  0.8136E+01
     -1.775  0.4091E+01  0.8532E+01
     -1.678  0.4014E+01  0.8920E+01
     -1.582  0.2746E+01  0.9185E+01
     -1.485  0.2777E+01  0.9454E+01
     -1.388  0.3530E+01  0.9795E+01
     -1.292  0.1702E+01  0.9960E+01
     -1.195  0.1534E+01  0.1011E+02
     -1.098  0.1878E+01  0.1029E+02
     -1.001  0.1480E+01  0.1043E+02
     -0.905  0.1838E+01  0.1061E+02
     -0.808  0.2248E+01  0.1083E+02
     -0.711  0.2358E+01  0.1106E+02
     -0.615  0.7815E+00  0.1113E+02
     -0.518  0.3340E+00  0.1116E+02
     -0.421  0.5538E+00  0.1122E+02
     -0.324  0.8804E+00  0.1130E+02
     -0.228  0.4827E+00  0.1135E+02
     -0.131  0.6798E+00  0.1142E+02
     -0.034  0.8724E+00  0.1150E+02
      0.063  0.1211E+01  0.1162E+02
      0.159  0.4431E+00  0.1166E+02
      0.256  0.7331E+00  0.1173E+02
      0.353  0.5526E+00  0.1178E+02
      0.449  0.1672E+00  0.1180E+02
      0.546  0.9892E-01  0.1181E+02
      0.643  0.2673E+00  0.1184E+02
      0.740  0.1973E+00  0.1186E+02
      0.836  0.1794E+00  0.1187E+02
      0.933  0.3123E+00  0.1190E+02
      1.030  0.4355E+00  0.1194E+02
      1.126  0.3588E+00  0.1198E+02
      1.223  0.1541E-01  0.1198E+02
      1.320  0.6633E-01  0.1199E+02
      1.417  0.1015E-01  0.1199E+02
      1.513  0.2808E+00  0.1202E+02
      1.610  0.2037E+01  0.1221E+02
      1.707  0.2033E+01  0.1241E+02
      1.803  0.1604E+01  0.1256E+02
      1.900  0.1459E+01  0.1271E+02
      1.997  0.3270E+01  0.1302E+02
      2.094  0.3230E+01  0.1333E+02
      2.190  0.3036E+01  0.1363E+02
      2.287  0.2054E+01  0.1383E+02
      2.384  0.2988E+01  0.1412E+02
      2.480  0.1646E+01  0.1427E+02
      2.577  0.1800E+01  0.1445E+02
      2.674  0.3201E+01  0.1476E+02
      2.771  0.4143E+01  0.1516E+02
      2.867  0.5517E+01  0.1569E+02
      2.964  0.3944E+01  0.1607E+02
      3.061  0.3870E+01  0.1645E+02
      3.158  0.4047E+01  0.1684E+02
      3.254  0.3497E+01  0.1718E+02
      3.351  0.4166E+01  0.1758E+02
      3.448  0.5034E+01  0.1807E+02
      3.544  0.4498E+01  0.1850E+02
      3.641  0.3452E+01  0.1884E+02
      3.738  0.5818E+01  0.1940E+02
      3.835  0.5486E+01  0.1993E+02
      3.931  0.5417E+01  0.2045E+02
      4.028  0.5118E+01  0.2095E+02
      4.125  0.3757E+01  0.2131E+02
      4.221  0.6003E+01  0.2189E+02
      4.318  0.5248E+01  0.2240E+02
      4.415  0.4824E+01  0.2287E+02
      4.512  0.5138E+01  0.2336E+02
      4.608  0.4225E+01  0.2377E+02
      4.705  0.4936E+01  0.2425E+02
      4.802  0.3590E+01  0.2460E+02
      4.898  0.4452E+01  0.2503E+02
      4.995  0.3767E+01  0.2539E+02
      5.092  0.4442E+01  0.2582E+02
      5.189  0.4532E+01  0.2626E+02
      5.285  0.3663E+01  0.2661E+02
      5.382  0.4699E+01  0.2707E+02
      5.479  0.3714E+01  0.2743E+02
      5.575  0.4450E+01  0.2786E+02
      5.672  0.4209E+01  0.2827E+02
      5.769  0.4024E+01  0.2865E+02
      5.866  0.2939E+01  0.2894E+02
      5.962  0.2690E+01  0.2920E+02
      6.059  0.2365E+01  0.2943E+02
      6.156  0.1796E+01  0.2960E+02
      6.252  0.9572E+00  0.2969E+02
      6.349  0.1447E+01  0.2983E+02
      6.446  0.7755E+00  0.2991E+02
      6.543  0.3310E+00  0.2994E+02
      6.639  0.3868E+00  0.2998E+02
      6.736  0.5594E+00  0.3003E+02
      6.833  0.6295E+00  0.3009E+02
      6.930  0.8435E+00  0.3017E+02
      7.026  0.2064E+01  0.3037E+02
      7.123  0.3827E+01  0.3074E+02
      7.220  0.5462E+01  0.3127E+02
      7.316  0.5265E+01  0.3178E+02
      7.413  0.5012E+01  0.3227E+02
      7.510  0.5953E+01  0.3284E+02
      7.607  0.4454E+01  0.3327E+02
      7.703  0.5039E+01  0.3376E+02
      7.800  0.4806E+01  0.3423E+02
      7.897  0.4198E+01  0.3463E+02
      7.993  0.2783E+01  0.3490E+02
      8.090  0.3087E+01  0.3520E+02
      8.187  0.2855E+01  0.3548E+02
      8.284  0.3399E+01  0.3580E+02
      8.380  0.2687E+01  0.3606E+02
      8.477  0.2984E+01  0.3635E+02
      8.574  0.4923E+01  0.3683E+02
      8.670  0.3928E+01  0.3721E+02
      8.767  0.5066E+01  0.3770E+02
      8.864  0.5808E+01  0.3826E+02
      8.961  0.8672E+01  0.3910E+02
      9.057  0.7197E+01  0.3980E+02
      9.154  0.3580E+01  0.4014E+02
      9.251  0.2044E+01  0.4034E+02
      9.347  0.3440E+01  0.4067E+02
      9.444  0.2580E+01  0.4092E+02
      9.541  0.3809E+01  0.4129E+02
      9.638  0.5599E+01  0.4183E+02
      9.734  0.5107E+01  0.4233E+02
      9.831  0.3491E+01  0.4266E+02
      9.928  0.4108E+01  0.4306E+02
     10.025  0.3484E+01  0.4340E+02
     10.121  0.3531E+01  0.4374E+02
     10.218  0.4244E+01  0.4415E+02
     10.315  0.5072E+01  0.4464E+02
     10.411  0.2462E+01  0.4488E+02
     10.508  0.1881E+01  0.4506E+02
     10.605  0.1489E+01  0.4520E+02
     10.702  0.3018E+01  0.4550E+02
     10.798  0.4549E+01  0.4594E+02
     10.895  0.4372E+01  0.4636E+02
     10.992  0.5452E+01  0.4689E+02
     11.088  0.4282E+01  0.4730E+02
     11.185  0.6609E+01  0.4794E+02
     11.282  0.5452E+01  0.4847E+02
     11.379  0.5523E+01  0.4900E+02
     11.475  0.6059E+01  0.4959E+02
     11.572  0.5626E+01  0.5013E+02
     11.669  0.5005E+01  0.5062E+02
     11.765  0.4633E+01  0.5106E+02
     11.862  0.3734E+01  0.5142E+02
     11.959  0.4650E+01  0.5187E+02
     12.056  0.3790E+01  0.5224E+02
     12.152  0.3184E+01  0.5255E+02
     12.249  0.3187E+01  0.5286E+02
     12.346  0.3170E+01  0.5316E+02
     12.442  0.3279E+01  0.5348E+02
     12.539  0.3040E+01  0.5377E+02
     12.636  0.3465E+01  0.5411E+02
     12.733  0.5049E+01  0.5460E+02
     12.829  0.3655E+01  0.5495E+02
     12.926  0.3174E+01  0.5526E+02
     13.023  0.4705E+01  0.5571E+02
     13.120  0.5722E+01  0.5627E+02
     13.216  0.3406E+01  0.5660E+02
     13.313  0.3207E+01  0.5691E+02
     13.410  0.3117E+01  0.5721E+02
     13.506  0.1823E+01  0.5738E+02
     13.603  0.2058E+01  0.5758E+02
     13.700  0.3441E+01  0.5792E+02
     13.797  0.3884E+01  0.5829E+02
     13.893  0.3466E+01  0.5863E+02
     13.990  0.1966E+01  0.5882E+02
     14.087  0.3777E+01  0.5918E+02
     14.183  0.3552E+01  0.5953E+02
     14.280  0.4147E+01  0.5993E+02
     14.377  0.4875E+01  0.6040E+02
     14.474  0.4512E+01  0.6083E+02
     14.570  0.4257E+01  0.6125E+02
     14.667  0.6189E+01  0.6185E+02
     14.764  0.5952E+01  0.6242E+02
     14.860  0.6047E+01  0.6301E+02
     14.957  0.6000E+01  0.6359E+02
     15.054  0.6786E+01  0.6424E+02
     15.151  0.5203E+01  0.6475E+02
     15.247  0.5390E+01  0.6527E+02
     15.344  0.4808E+01  0.6573E+02
     15.441  0.6130E+01  0.6632E+02
     15.537  0.4572E+01  0.6677E+02
     15.634  0.3356E+01  0.6709E+02
     15.731  0.6165E+01  0.6769E+02
     15.828  0.6413E+01  0.6831E+02
     15.924  0.5728E+01  0.6886E+02
     16.021  0.5931E+01  0.6944E+02
     16.118  0.7154E+01  0.7013E+02
     16.214  0.7929E+01  0.7089E+02
     16.311  0.8472E+01  0.7171E+02
     16.408  0.7414E+01  0.7243E+02
     16.505  0.6206E+01  0.7303E+02
     16.601  0.5053E+01  0.7352E+02
     16.698  0.4752E+01  0.7398E+02
     16.795  0.6656E+01  0.7462E+02
     16.892  0.8665E+01  0.7546E+02
     16.988  0.8285E+01  0.7626E+02
     17.085  0.5342E+01  0.7678E+02
     17.182  0.5877E+01  0.7735E+02
     17.278  0.5574E+01  0.7789E+02
     17.375  0.3816E+01  0.7826E+02
     17.472  0.4853E+01  0.7873E+02
     17.569  0.7278E+01  0.7943E+02
     17.665  0.5765E+01  0.7999E+02
     17.762  0.5023E+01  0.8047E+02
     17.859  0.4366E+01  0.8090E+02
     17.955  0.5956E+01  0.8147E+02
     18.052  0.7183E+01  0.8217E+02
     18.149  0.6839E+01  0.8283E+02
     18.246  0.6850E+01  0.8349E+02
     18.342  0.6488E+01  0.8412E+02
     18.439  0.6438E+01  0.8474E+02
     18.536  0.7138E+01  0.8543E+02
     18.632  0.5962E+01  0.8601E+02
     18.729  0.7929E+01  0.8677E+02
     18.826  0.7385E+01  0.8749E+02
     18.923  0.6568E+01  0.8812E+02
     19.019  0.6473E+01  0.8875E+02
     19.116  0.6192E+01  0.8935E+02
     19.213  0.6139E+01  0.8994E+02
     19.309  0.7553E+01  0.9067E+02
     19.406  0.6575E+01  0.9131E+02
     19.503  0.7434E+01  0.9203E+02
     19.600  0.8418E+01  0.9284E+02
     19.696  0.9303E+01  0.9374E+02
     19.793  0.5678E+01  0.9429E+02
     19.890  0.5560E+01  0.9483E+02
     19.987  0.4613E+01  0.9527E+02
     20.083  0.2223E+01  0.9549E+02
     20.180  0.1043E+01  0.9559E+02
     20.277  0.1419E+01  0.9573E+02
     20.373  0.1350E+01  0.9586E+02
     20.470  0.6158E+00  0.9592E+02
     20.567  0.3069E+00  0.9595E+02
     20.664  0.3342E+00  0.9598E+02
     20.760  0.1972E+00  0.9600E+02
     20.857  0.9900E-02  0.9600E+02
     20.954  0.9195E-06  0.9600E+02
     21.050  0.6677E-13  0.9600E+02
     21.147  0.0000E+00  0.9600E+02
     21.244  0.0000E+00  0.9600E+02
     21.341  0.0000E+00  0.9600E+02
     21.437  0.0000E+00  0.9600E+02
     21.534  0.0000E+00  0.9600E+02
     21.631  0.0000E+00  0.9600E+02
     21.727  0.0000E+00  0.9600E+02
     21.824  0.0000E+00  0.9600E+02
     21.921  0.0000E+00  0.9600E+02
     22.018  0.0000E+00  0.9600E+02
