Sb                                      
           1
     4.380470    0.000000    0.000000
    -2.190235    3.793598    0.000000
     0.000000    0.000000   11.478040
   Sb
     6
Direct configuration=     1
   0.00000000  0.00000000  0.23332000
   0.00000000  0.00000000  0.76668000
   0.66666667  0.33333333  0.56666000
   0.66666667  0.33333333  0.10001000
   0.33333333  0.66666667  0.89999000
   0.33333333  0.66666667  0.43334000
