Cr                                      
   1.00000000000000     
     2.871000    0.000000    0.000000
     0.000000    2.871000    0.000000
     0.000000    0.000000    2.871000
   Cr
     2
Direct
  0.000000  0.000000  0.000000
  0.500000  0.500000  0.500000
 
   28   28   28
  291.51      284.18      261.36      222.67      171.85      117.73      70.654      37.425      18.805      10.882    
  8.2176      7.0631      6.5442      6.3267      6.2660      6.3267      6.5442      7.0631      8.2176      10.882    
  18.805      37.425      70.654      117.73      171.85      222.67      261.36      284.18      284.18      276.88    
  254.29      216.20      166.47      113.77      68.132      36.082      18.249      10.737      8.1909      7.0631    
  6.5541      6.3398      6.2800      6.3398      6.5541      7.0631      8.1909      10.737      18.249      36.082    
  68.132      113.77      166.47      216.20      254.29      276.88      261.36      254.29      232.61      196.67    
  150.44      102.11      60.807      32.249      16.708      10.348      8.1091      7.0597      6.5799      6.3757    
  6.3183      6.3757      6.5799      7.0597      8.1091      10.348      16.708      32.249      60.807      102.11    
  150.44      196.67      232.61      254.29      222.67      216.20      196.67      164.91      124.92      83.944    
  49.672      26.621      14.568      9.8329      7.9710      7.0447      6.6122      6.4248      6.3717      6.4248    
  6.6122      7.0447      7.9710      9.8329      14.568      26.621      49.672      83.944      124.92      164.91    
  196.67      216.20      171.85      166.47      150.44      124.92      93.537      62.206      36.814      20.461    
  12.412      9.2862      7.7837      7.0115      6.6402      6.4754      6.4283      6.4754      6.6402      7.0115    
  7.7837      9.2862      12.412      20.461      36.814      62.206      93.537      124.92      150.44      166.47    
  117.73      113.77      102.11      83.944      62.206      41.236      25.011      15.224      10.729      8.7079    
  7.5655      6.9585      6.6556      6.5171      6.4769      6.5171      6.6556      6.9585      7.5655      8.7079    
  10.729      15.224      25.011      41.236      62.206      83.944      102.11      113.77      70.654      68.132    
  60.807      49.672      36.814      25.011      16.496      11.783      9.5192      8.1523      7.3408      6.8901    
  6.6542      6.5423      6.5092      6.5423      6.6542      6.8901      7.3408      8.1523      9.5192      11.783    
  16.496      25.011      36.814      49.672      60.807      68.132      37.425      36.082      32.249      26.621    
  20.461      15.224      11.783      9.8467      8.5419      7.6722      7.1309      6.8124      6.6354      6.5472    
  6.5205      6.5472      6.6354      6.8124      7.1309      7.6722      8.5419      9.8467      11.783      15.224    
  20.461      26.621      32.249      36.082      18.805      18.249      16.708      14.568      12.412      10.729    
  9.5192      8.5419      7.8055      7.2898      6.9477      6.7307      6.6004      6.5310      6.5092      6.5310    
  6.6004      6.7307      6.9477      7.2898      7.8055      8.5419      9.5192      10.729      12.412      14.568    
  16.708      18.249      10.882      10.737      10.348      9.8329      9.2862      8.7079      8.1523      7.6722    
  7.2898      7.0023      6.7942      6.6482      6.5513      6.4953      6.4769      6.4953      6.5513      6.6482    
  6.7942      7.0023      7.2898      7.6722      8.1523      8.7079      9.2862      9.8329      10.348      10.737    
  8.2176      8.1909      8.1091      7.9710      7.7837      7.5655      7.3408      7.1309      6.9477      6.7942    
  6.6682      6.5674      6.4920      6.4446      6.4283      6.4446      6.4920      6.5674      6.6682      6.7942    
  6.9477      7.1309      7.3408      7.5655      7.7837      7.9710      8.1091      8.1909      7.0631      7.0631    
  7.0597      7.0447      7.0115      6.9585      6.8901      6.8124      6.7307      6.6482      6.5674      6.4923    
  6.4293      6.3868      6.3717      6.3868      6.4293      6.4923      6.5674      6.6482      6.7307      6.8124    
  6.8901      6.9585      7.0115      7.0447      7.0597      7.0631      6.5442      6.5541      6.5799      6.6122    
  6.6402      6.6556      6.6542      6.6354      6.6004      6.5513      6.4920      6.4293      6.3726      6.3327    
  6.3183      6.3327      6.3726      6.4293      6.4920      6.5513      6.6004      6.6354      6.6542      6.6556    
  6.6402      6.6122      6.5799      6.5541      6.3267      6.3398      6.3757      6.4248      6.4754      6.5171    
  6.5423      6.5472      6.5310      6.4953      6.4446      6.3868      6.3327      6.2940      6.2800      6.2940    
  6.3327      6.3868      6.4446      6.4953      6.5310      6.5472      6.5423      6.5171      6.4754      6.4248    
  6.3757      6.3398      6.2660      6.2800      6.3183      6.3717      6.4283      6.4769      6.5092      6.5205    
  6.5092      6.4769      6.4283      6.3717      6.3183      6.2800      6.2660      6.2800      6.3183      6.3717    
  6.4283      6.4769      6.5092      6.5205      6.5092      6.4769      6.4283      6.3717      6.3183      6.2800    
  6.3267      6.3398      6.3757      6.4248      6.4754      6.5171      6.5423      6.5472      6.5310      6.4953    
  6.4446      6.3868      6.3327      6.2940      6.2800      6.2940      6.3327      6.3868      6.4446      6.4953    
  6.5310      6.5472      6.5423      6.5171      6.4754      6.4248      6.3757      6.3398      6.5442      6.5541    
  6.5799      6.6122      6.6402      6.6556      6.6542      6.6354      6.6004      6.5513      6.4920      6.4293    
  6.3726      6.3327      6.3183      6.3327      6.3726      6.4293      6.4920      6.5513      6.6004      6.6354    
  6.6542      6.6556      6.6402      6.6122      6.5799      6.5541      7.0631      7.0631      7.0597      7.0447    
  7.0115      6.9585      6.8901      6.8124      6.7307      6.6482      6.5674      6.4923      6.4293      6.3868    
  6.3717      6.3868      6.4293      6.4923      6.5674      6.6482      6.7307      6.8124      6.8901      6.9585    
  7.0115      7.0447      7.0597      7.0631      8.2176      8.1909      8.1091      7.9710      7.7837      7.5655    
  7.3408      7.1309      6.9477      6.7942      6.6682      6.5674      6.4920      6.4446      6.4283      6.4446    
  6.4920      6.5674      6.6682      6.7942      6.9477      7.1309      7.3408      7.5655      7.7837      7.9710    
  8.1091      8.1909      10.882      10.737      10.348      9.8329      9.2862      8.7079      8.1523      7.6722    
  7.2898      7.0023      6.7942      6.6482      6.5513      6.4953      6.4769      6.4953      6.5513      6.6482    
  6.7942      7.0023      7.2898      7.6722      8.1523      8.7079      9.2862      9.8329      10.348      10.737    
  18.805      18.249      16.708      14.568      12.412      10.729      9.5192      8.5419      7.8055      7.2898    
  6.9477      6.7307      6.6004      6.5310      6.5092      6.5310      6.6004      6.7307      6.9477      7.2898    
  7.8055      8.5419      9.5192      10.729      12.412      14.568      16.708      18.249      37.425      36.082    
  32.249      26.621      20.461      15.224      11.783      9.8467      8.5419      7.6722      7.1309      6.8124    
  6.6354      6.5472      6.5205      6.5472      6.6354      6.8124      7.1309      7.6722      8.5419      9.8467    
  11.783      15.224      20.461      26.621      32.249      36.082      70.654      68.132      60.807      49.672    
  36.814      25.011      16.496      11.783      9.5192      8.1523      7.3408      6.8901      6.6542      6.5423    
  6.5092      6.5423      6.6542      6.8901      7.3408      8.1523      9.5192      11.783      16.496      25.011    
  36.814      49.672      60.807      68.132      117.73      113.77      102.11      83.944      62.206      41.236    
  25.011      15.224      10.729      8.7079      7.5655      6.9585      6.6556      6.5171      6.4769      6.5171    
  6.6556      6.9585      7.5655      8.7079      10.729      15.224      25.011      41.236      62.206      83.944    
  102.11      113.77      171.85      166.47      150.44      124.92      93.537      62.206      36.814      20.461    
  12.412      9.2862      7.7837      7.0115      6.6402      6.4754      6.4283      6.4754      6.6402      7.0115    
  7.7837      9.2862      12.412      20.461      36.814      62.206      93.537      124.92      150.44      166.47    
  222.67      216.20      196.67      164.91      124.92      83.944      49.672      26.621      14.568      9.8329    
  7.9710      7.0447      6.6122      6.4248      6.3717      6.4248      6.6122      7.0447      7.9710      9.8329    
  14.568      26.621      49.672      83.944      124.92      164.91      196.67      216.20      261.36      254.29    
  232.61      196.67      150.44      102.11      60.807      32.249      16.708      10.348      8.1091      7.0597    
  6.5799      6.3757      6.3183      6.3757      6.5799      7.0597      8.1091      10.348      16.708      32.249    
  60.807      102.11      150.44      196.67      232.61      254.29      284.18      276.88      254.29      216.20    
  166.47      113.77      68.132      36.082      18.249      10.737      8.1909      7.0631      6.5541      6.3398    
  6.2800      6.3398      6.5541      7.0631      8.1909      10.737      18.249      36.082      68.132      113.77    
  166.47      216.20      254.29      276.88      284.18      276.88      254.29      216.20      166.47      113.77    
  68.132      36.082      18.249      10.737      8.1909      7.0631      6.5541      6.3398      6.2800      6.3398    
  6.5541      7.0631      8.1909      10.737      18.249      36.082      68.132      113.77      166.47      216.20    
  254.29      276.88      276.88      269.63      247.27      209.81      161.18      109.88      65.668      34.779    
  17.718      10.602      8.1653      7.0636      6.5642      6.3531      6.2940      6.3531      6.5642      7.0636    
  8.1653      10.602      17.718      34.779      65.668      109.88      161.18      209.81      247.27      269.63    
  254.29      247.27      225.88      190.58      145.44      98.477      58.534      31.074      16.251      10.240    
  8.0868      7.0615      6.5906      6.3893      6.3327      6.3893      6.5906      7.0615      8.0868      10.240    
  16.251      31.074      58.534      98.477      145.44      190.58      225.88      247.27      216.20      209.81    
  190.58      159.48      120.51      80.791      47.747      25.668      14.227      9.7600      7.9539      7.0486    
  6.6240      6.4392      6.3868      6.4392      6.6240      7.0486      7.9539      9.7600      14.227      25.668    
  47.747      80.791      120.51      159.48      190.58      209.81      166.47      161.18      145.44      120.51    
  90.022      59.752      35.374      19.798      12.204      9.2367      7.7733      7.0182      6.6535      6.4911    
  6.4446      6.4911      6.6535      7.0182      7.7733      9.2367      12.204      19.798      35.374      59.752    
  90.022      120.51      145.44      161.18      113.77      109.88      98.477      80.791      59.752      39.588    
  24.105      14.854      10.628      8.6759      7.5628      6.9690      6.6714      6.5349      6.4953      6.5349    
  6.6714      6.9690      7.5628      8.6759      10.628      14.854      24.105      39.588      59.752      80.791    
  98.477      109.88      68.132      65.668      58.534      47.747      35.374      24.105      16.051      11.629    
  9.4660      8.1374      7.3463      6.9054      6.6738      6.5636      6.5310      6.5636      6.6738      6.9054    
  7.3463      8.1374      9.4660      11.629      16.051      24.105      35.374      47.747      58.534      65.668    
  36.082      34.779      31.074      25.668      19.798      14.854      11.629      9.7845      8.5179      7.6723    
  7.1447      6.8335      6.6601      6.5735      6.5472      6.5735      6.6601      6.8335      7.1447      7.6723    
  8.5179      9.7845      11.629      14.854      19.798      25.668      31.074      34.779      18.249      17.718    
  16.251      14.227      12.204      10.628      9.4660      8.5179      7.8032      7.3023      6.9697      6.7585    
  6.6313      6.5636      6.5423      6.5636      6.6313      6.7585      6.9697      7.3023      7.8032      8.5179    
  9.4660      10.628      12.204      14.227      16.251      17.718      10.737      10.602      10.240      9.7600    
  9.2367      8.6759      8.1374      7.6723      7.3023      7.0246      6.8238      6.6830      6.5892      6.5349    
  6.5171      6.5349      6.5892      6.6830      6.8238      7.0246      7.3023      7.6723      8.1374      8.6759    
  9.2367      9.7600      10.240      10.602      8.1909      8.1653      8.0868      7.9539      7.7733      7.5628    
  7.3463      7.1447      6.9697      6.8238      6.7043      6.6086      6.5367      6.4911      6.4754      6.4911    
  6.5367      6.6086      6.7043      6.8238      6.9697      7.1447      7.3463      7.5628      7.7733      7.9539    
  8.0868      8.1653      7.0631      7.0636      7.0615      7.0486      7.0182      6.9690      6.9054      6.8335    
  6.7585      6.6830      6.6086      6.5388      6.4796      6.4392      6.4248      6.4392      6.4796      6.5388    
  6.6086      6.6830      6.7585      6.8335      6.9054      6.9690      7.0182      7.0486      7.0615      7.0636    
  6.5541      6.5642      6.5906      6.6240      6.6535      6.6714      6.6738      6.6601      6.6313      6.5892    
  6.5367      6.4796      6.4269      6.3893      6.3757      6.3893      6.4269      6.4796      6.5367      6.5892    
  6.6313      6.6601      6.6738      6.6714      6.6535      6.6240      6.5906      6.5642      6.3398      6.3531    
  6.3893      6.4392      6.4911      6.5349      6.5636      6.5735      6.5636      6.5349      6.4911      6.4392    
  6.3893      6.3531      6.3398      6.3531      6.3893      6.4392      6.4911      6.5349      6.5636      6.5735    
  6.5636      6.5349      6.4911      6.4392      6.3893      6.3531      6.2800      6.2940      6.3327      6.3868    
  6.4446      6.4953      6.5310      6.5472      6.5423      6.5171      6.4754      6.4248      6.3757      6.3398    
  6.3267      6.3398      6.3757      6.4248      6.4754      6.5171      6.5423      6.5472      6.5310      6.4953    
  6.4446      6.3868      6.3327      6.2940      6.3398      6.3531      6.3893      6.4392      6.4911      6.5349    
  6.5636      6.5735      6.5636      6.5349      6.4911      6.4392      6.3893      6.3531      6.3398      6.3531    
  6.3893      6.4392      6.4911      6.5349      6.5636      6.5735      6.5636      6.5349      6.4911      6.4392    
  6.3893      6.3531      6.5541      6.5642      6.5906      6.6240      6.6535      6.6714      6.6738      6.6601    
  6.6313      6.5892      6.5367      6.4796      6.4269      6.3893      6.3757      6.3893      6.4269      6.4796    
  6.5367      6.5892      6.6313      6.6601      6.6738      6.6714      6.6535      6.6240      6.5906      6.5642    
  7.0631      7.0636      7.0615      7.0486      7.0182      6.9690      6.9054      6.8335      6.7585      6.6830    
  6.6086      6.5388      6.4796      6.4392      6.4248      6.4392      6.4796      6.5388      6.6086      6.6830    
  6.7585      6.8335      6.9054      6.9690      7.0182      7.0486      7.0615      7.0636      8.1909      8.1653    
  8.0868      7.9539      7.7733      7.5628      7.3463      7.1447      6.9697      6.8238      6.7043      6.6086    
  6.5367      6.4911      6.4754      6.4911      6.5367      6.6086      6.7043      6.8238      6.9697      7.1447    
  7.3463      7.5628      7.7733      7.9539      8.0868      8.1653      10.737      10.602      10.240      9.7600    
  9.2367      8.6759      8.1374      7.6723      7.3023      7.0246      6.8238      6.6830      6.5892      6.5349    
  6.5171      6.5349      6.5892      6.6830      6.8238      7.0246      7.3023      7.6723      8.1374      8.6759    
  9.2367      9.7600      10.240      10.602      18.249      17.718      16.251      14.227      12.204      10.628    
  9.4660      8.5179      7.8032      7.3023      6.9697      6.7585      6.6313      6.5636      6.5423      6.5636    
  6.6313      6.7585      6.9697      7.3023      7.8032      8.5179      9.4660      10.628      12.204      14.227    
  16.251      17.718      36.082      34.779      31.074      25.668      19.798      14.854      11.629      9.7845    
  8.5179      7.6723      7.1447      6.8335      6.6601      6.5735      6.5472      6.5735      6.6601      6.8335    
  7.1447      7.6723      8.5179      9.7845      11.629      14.854      19.798      25.668      31.074      34.779    
  68.132      65.668      58.534      47.747      35.374      24.105      16.051      11.629      9.4660      8.1374    
  7.3463      6.9054      6.6738      6.5636      6.5310      6.5636      6.6738      6.9054      7.3463      8.1374    
  9.4660      11.629      16.051      24.105      35.374      47.747      58.534      65.668      113.77      109.88    
  98.477      80.791      59.752      39.588      24.105      14.854      10.628      8.6759      7.5628      6.9690    
  6.6714      6.5349      6.4953      6.5349      6.6714      6.9690      7.5628      8.6759      10.628      14.854    
  24.105      39.588      59.752      80.791      98.477      109.88      166.47      161.18      145.44      120.51    
  90.022      59.752      35.374      19.798      12.204      9.2367      7.7733      7.0182      6.6535      6.4911    
  6.4446      6.4911      6.6535      7.0182      7.7733      9.2367      12.204      19.798      35.374      59.752    
  90.022      120.51      145.44      161.18      216.20      209.81      190.58      159.48      120.51      80.791    
  47.747      25.668      14.227      9.7600      7.9539      7.0486      6.6240      6.4392      6.3868      6.4392    
  6.6240      7.0486      7.9539      9.7600      14.227      25.668      47.747      80.791      120.51      159.48    
  190.58      209.81      254.29      247.27      225.88      190.58      145.44      98.477      58.534      31.074    
  16.251      10.240      8.0868      7.0615      6.5906      6.3893      6.3327      6.3893      6.5906      7.0615    
  8.0868      10.240      16.251      31.074      58.534      98.477      145.44      190.58      225.88      247.27    
  276.88      269.63      247.27      209.81      161.18      109.88      65.668      34.779      17.718      10.602    
  8.1653      7.0636      6.5642      6.3531      6.2940      6.3531      6.5642      7.0636      8.1653      10.602    
  17.718      34.779      65.668      109.88      161.18      209.81      247.27      269.63      261.36      254.29    
  232.61      196.67      150.44      102.11      60.807      32.249      16.708      10.348      8.1091      7.0597    
  6.5799      6.3757      6.3183      6.3757      6.5799      7.0597      8.1091      10.348      16.708      32.249    
  60.807      102.11      150.44      196.67      232.61      254.29      254.29      247.27      225.88      190.58    
  145.44      98.477      58.534      31.074      16.251      10.240      8.0868      7.0615      6.5906      6.3893    
  6.3327      6.3893      6.5906      7.0615      8.0868      10.240      16.251      31.074      58.534      98.477    
  145.44      190.58      225.88      247.27      232.61      225.88      205.53      172.42      130.71      87.899    
  52.008      27.766      15.000      9.9522      8.0181      7.0634      6.6190      6.4269      6.3726      6.4269    
  6.6190      7.0634      8.0181      9.9522      15.000      27.766      52.008      87.899      130.71      172.42    
  205.53      225.88      196.67      190.58      172.42      143.45      107.66      71.716      42.289      23.023    
  13.308      9.5581      7.9009      7.0572      6.6560      6.4796      6.4293      6.4796      6.6560      7.0572    
  7.9009      9.5581      13.308      23.023      42.289      71.716      107.66      143.45      172.42      190.58    
  150.44      145.44      130.71      107.66      79.901      52.784      31.356      17.992      11.653      9.0910    
  7.7410      7.0365      6.6918      6.5367      6.4920      6.5367      6.6918      7.0365      7.7410      9.0910    
  11.653      17.992      31.356      52.784      79.901      107.66      130.71      145.44      102.11      98.477    
  87.899      71.716      52.784      34.984      21.629      13.868      10.355      8.5827      7.5549      7.0005    
  6.7193      6.5892      6.5513      6.5892      6.7193      7.0005      7.5549      8.5827      10.355      13.868    
  21.629      34.984      52.784      71.716      87.899      98.477      60.807      58.534      52.008      42.289    
  31.356      21.629      14.866      11.223      9.3136      8.0959      7.3652      6.9539      6.7358      6.6313    
  6.6004      6.6313      6.7358      6.9539      7.3652      8.0959      9.3136      11.223      14.866      21.629    
  31.356      42.289      52.008      58.534      32.249      31.074      27.766      23.023      17.992      13.868    
  11.223      9.6071      8.4518      7.6773      7.1914      6.9029      6.7412      6.6601      6.6354      6.6601    
  6.7412      6.9029      7.1914      7.6773      8.4518      9.6071      11.223      13.868      17.992      23.023    
  27.766      31.074      16.708      16.251      15.000      13.308      11.653      10.355      9.3136      8.4518    
  7.8021      7.3467      7.0442      6.8518      6.7358      6.6738      6.6542      6.6738      6.7358      6.8518    
  7.0442      7.3467      7.8021      8.4518      9.3136      10.355      11.653      13.308      15.000      16.251    
  10.348      10.240      9.9522      9.5581      9.0910      8.5827      8.0959      7.6773      7.3467      7.1007    
  6.9244      6.8014      6.7193      6.6714      6.6556      6.6714      6.7193      6.8014      6.9244      7.1007    
  7.3467      7.6773      8.0959      8.5827      9.0910      9.5581      9.9522      10.240      8.1091      8.0868    
  8.0181      7.9009      7.7410      7.5549      7.3652      7.1914      7.0442      6.9244      6.8281      6.7509    
  6.6918      6.6535      6.6402      6.6535      6.6918      6.7509      6.8281      6.9244      7.0442      7.1914    
  7.3652      7.5549      7.7410      7.9009      8.0181      8.0868      7.0597      7.0615      7.0634      7.0572    
  7.0365      7.0005      6.9539      6.9029      6.8518      6.8014      6.7509      6.7009      6.6560      6.6240    
  6.6122      6.6240      6.6560      6.7009      6.7509      6.8014      6.8518      6.9029      6.9539      7.0005    
  7.0365      7.0572      7.0634      7.0615      6.5799      6.5906      6.6190      6.6560      6.6918      6.7193    
  6.7358      6.7412      6.7358      6.7193      6.6918      6.6560      6.6190      6.5906      6.5799      6.5906    
  6.6190      6.6560      6.6918      6.7193      6.7358      6.7412      6.7358      6.7193      6.6918      6.6560    
  6.6190      6.5906      6.3757      6.3893      6.4269      6.4796      6.5367      6.5892      6.6313      6.6601    
  6.6738      6.6714      6.6535      6.6240      6.5906      6.5642      6.5541      6.5642      6.5906      6.6240    
  6.6535      6.6714      6.6738      6.6601      6.6313      6.5892      6.5367      6.4796      6.4269      6.3893    
  6.3183      6.3327      6.3726      6.4293      6.4920      6.5513      6.6004      6.6354      6.6542      6.6556    
  6.6402      6.6122      6.5799      6.5541      6.5442      6.5541      6.5799      6.6122      6.6402      6.6556    
  6.6542      6.6354      6.6004      6.5513      6.4920      6.4293      6.3726      6.3327      6.3757      6.3893    
  6.4269      6.4796      6.5367      6.5892      6.6313      6.6601      6.6738      6.6714      6.6535      6.6240    
  6.5906      6.5642      6.5541      6.5642      6.5906      6.6240      6.6535      6.6714      6.6738      6.6601    
  6.6313      6.5892      6.5367      6.4796      6.4269      6.3893      6.5799      6.5906      6.6190      6.6560    
  6.6918      6.7193      6.7358      6.7412      6.7358      6.7193      6.6918      6.6560      6.6190      6.5906    
  6.5799      6.5906      6.6190      6.6560      6.6918      6.7193      6.7358      6.7412      6.7358      6.7193    
  6.6918      6.6560      6.6190      6.5906      7.0597      7.0615      7.0634      7.0572      7.0365      7.0005    
  6.9539      6.9029      6.8518      6.8014      6.7509      6.7009      6.6560      6.6240      6.6122      6.6240    
  6.6560      6.7009      6.7509      6.8014      6.8518      6.9029      6.9539      7.0005      7.0365      7.0572    
  7.0634      7.0615      8.1091      8.0868      8.0181      7.9009      7.7410      7.5549      7.3652      7.1914    
  7.0442      6.9244      6.8281      6.7509      6.6918      6.6535      6.6402      6.6535      6.6918      6.7509    
  6.8281      6.9244      7.0442      7.1914      7.3652      7.5549      7.7410      7.9009      8.0181      8.0868    
  10.348      10.240      9.9522      9.5581      9.0910      8.5827      8.0959      7.6773      7.3467      7.1007    
  6.9244      6.8014      6.7193      6.6714      6.6556      6.6714      6.7193      6.8014      6.9244      7.1007    
  7.3467      7.6773      8.0959      8.5827      9.0910      9.5581      9.9522      10.240      16.708      16.251    
  15.000      13.308      11.653      10.355      9.3136      8.4518      7.8021      7.3467      7.0442      6.8518    
  6.7358      6.6738      6.6542      6.6738      6.7358      6.8518      7.0442      7.3467      7.8021      8.4518    
  9.3136      10.355      11.653      13.308      15.000      16.251      32.249      31.074      27.766      23.023    
  17.992      13.868      11.223      9.6071      8.4518      7.6773      7.1914      6.9029      6.7412      6.6601    
  6.6354      6.6601      6.7412      6.9029      7.1914      7.6773      8.4518      9.6071      11.223      13.868    
  17.992      23.023      27.766      31.074      60.807      58.534      52.008      42.289      31.356      21.629    
  14.866      11.223      9.3136      8.0959      7.3652      6.9539      6.7358      6.6313      6.6004      6.6313    
  6.7358      6.9539      7.3652      8.0959      9.3136      11.223      14.866      21.629      31.356      42.289    
  52.008      58.534      102.11      98.477      87.899      71.716      52.784      34.984      21.629      13.868    
  10.355      8.5827      7.5549      7.0005      6.7193      6.5892      6.5513      6.5892      6.7193      7.0005    
  7.5549      8.5827      10.355      13.868      21.629      34.984      52.784      71.716      87.899      98.477    
  150.44      145.44      130.71      107.66      79.901      52.784      31.356      17.992      11.653      9.0910    
  7.7410      7.0365      6.6918      6.5367      6.4920      6.5367      6.6918      7.0365      7.7410      9.0910    
  11.653      17.992      31.356      52.784      79.901      107.66      130.71      145.44      196.67      190.58    
  172.42      143.45      107.66      71.716      42.289      23.023      13.308      9.5581      7.9009      7.0572    
  6.6560      6.4796      6.4293      6.4796      6.6560      7.0572      7.9009      9.5581      13.308      23.023    
  42.289      71.716      107.66      143.45      172.42      190.58      232.61      225.88      205.53      172.42    
  130.71      87.899      52.008      27.766      15.000      9.9522      8.0181      7.0634      6.6190      6.4269    
  6.3726      6.4269      6.6190      7.0634      8.0181      9.9522      15.000      27.766      52.008      87.899    
  130.71      172.42      205.53      225.88      254.29      247.27      225.88      190.58      145.44      98.477    
  58.534      31.074      16.251      10.240      8.0868      7.0615      6.5906      6.3893      6.3327      6.3893    
  6.5906      7.0615      8.0868      10.240      16.251      31.074      58.534      98.477      145.44      190.58    
  225.88      247.27      222.67      216.20      196.67      164.91      124.92      83.944      49.672      26.621    
  14.568      9.8329      7.9710      7.0447      6.6122      6.4248      6.3717      6.4248      6.6122      7.0447    
  7.9710      9.8329      14.568      26.621      49.672      83.944      124.92      164.91      196.67      216.20    
  216.20      209.81      190.58      159.48      120.51      80.791      47.747      25.668      14.227      9.7600    
  7.9539      7.0486      6.6240      6.4392      6.3868      6.4392      6.6240      7.0486      7.9539      9.7600    
  14.227      25.668      47.747      80.791      120.51      159.48      190.58      209.81      196.67      190.58    
  172.42      143.45      107.66      71.716      42.289      23.023      13.308      9.5581      7.9009      7.0572    
  6.6560      6.4796      6.4293      6.4796      6.6560      7.0572      7.9009      9.5581      13.308      23.023    
  42.289      71.716      107.66      143.45      172.42      190.58      164.91      159.48      143.45      118.32    
  87.940      58.110      34.344      19.333      12.100      9.2503      7.8100      7.0635      6.7009      6.5388    