Cr                                      
   1.00000000000000     
     2.871000    0.000000    0.000000
     0.000000    2.871000    0.000000
     0.000000    0.000000    2.871000
   Cr
     2
Direct
  0.000000  0.000000  0.000000
  0.500000  0.500000  0.500000
 
   28   28   28
 0.29151385755E+03 0.28418012725E+03 0.26136430825E+03 0.22266997712E+03 0.17185270965E+03
 0.11773052937E+03 0.70653869328E+02 0.37425242173E+02 0.18804863776E+02 0.10882388573E+02
 0.82176076957E+01 0.70630837530E+01 0.65442188962E+01 0.63266945255E+01 0.62660229255E+01
 0.63266945255E+01 0.65442188962E+01 0.70630837530E+01 0.82176076957E+01 0.10882388573E+02
 0.18804863776E+02 0.37425242173E+02 0.70653869328E+02 0.11773052937E+03 0.17185270965E+03
 0.22266997712E+03 0.26136430825E+03 0.28418012725E+03 0.28418012725E+03 0.27688394609E+03
 0.25428722503E+03 0.21620230675E+03 0.16647397900E+03 0.11377000683E+03 0.68132198414E+02
 0.36081990280E+02 0.18249417442E+02 0.10736974778E+02 0.81909153914E+01 0.70631267720E+01
 0.65540802218E+01 0.63398341336E+01 0.62799713898E+01 0.63398341336E+01 0.65540802218E+01
 0.70631267720E+01 0.81909153914E+01 0.10736974778E+02 0.18249417442E+02 0.36081990280E+02
 0.68132198414E+02 0.11377000683E+03 0.16647397900E+03 0.21620230675E+03 0.25428722503E+03
 0.27688394609E+03 0.26136430825E+03 0.25428722503E+03 0.23261498551E+03 0.19666598273E+03
 0.15044143648E+03 0.10211127503E+03 0.60807325657E+02 0.32248556934E+02 0.16707963226E+02
 0.10347844541E+02 0.81091046660E+01 0.70596890930E+01 0.65798939562E+01 0.63756543898E+01
 0.63182971412E+01 0.63756543898E+01 0.65798939562E+01 0.70596890930E+01 0.81091046660E+01
 0.10347844541E+02 0.16707963226E+02 0.32248556934E+02 0.60807325657E+02 0.10211127503E+03
 0.15044143648E+03 0.19666598273E+03 0.23261498551E+03 0.25428722503E+03 0.22266997712E+03
 0.21620230675E+03 0.19666598273E+03 0.16491010688E+03 0.12492044223E+03 0.83943803210E+02
 0.49672106002E+02 0.26620726573E+02 0.14568077786E+02 0.98328582168E+01 0.79710015776E+01
 0.70447278477E+01 0.66122094998E+01 0.64247756761E+01 0.63717186074E+01 0.64247756761E+01
 0.66122094998E+01 0.70447278477E+01 0.79710015776E+01 0.98328582168E+01 0.14568077786E+02
 0.26620726573E+02 0.49672106002E+02 0.83943803210E+02 0.12492044223E+03 0.16491010688E+03
 0.19666598273E+03 0.21620230675E+03 0.17185270965E+03 0.16647397900E+03 0.15044143648E+03
 0.12492044223E+03 0.93537135682E+02 0.62205715822E+02 0.36814229071E+02 0.20461428247E+02
 0.12412293358E+02 0.92861967653E+01 0.77836888796E+01 0.70114511476E+01 0.66401882335E+01
 0.64754469788E+01 0.64283185112E+01 0.64754469788E+01 0.66401882335E+01 0.70114511476E+01
 0.77836888796E+01 0.92861967653E+01 0.12412293358E+02 0.20461428247E+02 0.36814229071E+02
 0.62205715822E+02 0.93537135682E+02 0.12492044223E+03 0.15044143648E+03 0.16647397900E+03
 0.11773052937E+03 0.11377000683E+03 0.10211127503E+03 0.83943803210E+02 0.62205715822E+02
 0.41236152387E+02 0.25010987658E+02 0.15224269288E+02 0.10728628013E+02 0.87078917326E+01
 0.75655081618E+01 0.69585361202E+01 0.66555594262E+01 0.65170699991E+01 0.64769069968E+01
 0.65170699991E+01 0.66555594262E+01 0.69585361202E+01 0.75655081618E+01 0.87078917326E+01
 0.10728628013E+02 0.15224269288E+02 0.25010987658E+02 0.41236152387E+02 0.62205715822E+02
 0.83943803210E+02 0.10211127503E+03 0.11377000683E+03 0.70653869328E+02 0.68132198414E+02
 0.60807325657E+02 0.49672106002E+02 0.36814229071E+02 0.25010987658E+02 0.16495746527E+02
 0.11782608591E+02 0.95191871318E+01 0.81523237050E+01 0.73408307186E+01 0.68900915822E+01
 0.66542100741E+01 0.65422707958E+01 0.65092061199E+01 0.65422707958E+01 0.66542100741E+01
 0.68900915822E+01 0.73408307186E+01 0.81523237050E+01 0.95191871318E+01 0.11782608591E+02
 0.16495746527E+02 0.25010987658E+02 0.36814229071E+02 0.49672106002E+02 0.60807325657E+02
 0.68132198414E+02 0.37425242173E+02 0.36081990280E+02 0.32248556934E+02 0.26620726573E+02
 0.20461428247E+02 0.15224269288E+02 0.11782608591E+02 0.98466554330E+01 0.85419027607E+01
 0.76721700715E+01 0.71308980458E+01 0.68124183766E+01 0.66354285375E+01 0.65472124317E+01
 0.65204724823E+01 0.65472124317E+01 0.66354285375E+01 0.68124183766E+01 0.71308980458E+01
 0.76721700715E+01 0.85419027607E+01 0.98466554330E+01 0.11782608591E+02 0.15224269288E+02
 0.20461428247E+02 0.26620726573E+02 0.32248556934E+02 0.36081990280E+02 0.18804863776E+02
 0.18249417442E+02 0.16707963226E+02 0.14568077786E+02 0.12412293358E+02 0.10728628013E+02
 0.95191871318E+01 0.85419027607E+01 0.78054952903E+01 0.72898093700E+01 0.69477208503E+01
 0.67307434914E+01 0.66003597085E+01 0.65309989784E+01 0.65092061199E+01 0.65309989784E+01
 0.66003597085E+01 0.67307434914E+01 0.69477208503E+01 0.72898093700E+01 0.78054952903E+01
 0.85419027607E+01 0.95191871318E+01 0.10728628013E+02 0.12412293358E+02 0.14568077786E+02
 0.16707963226E+02 0.18249417442E+02 0.10882388573E+02 0.10736974778E+02 0.10347844541E+02
 0.98328582168E+01 0.92861967653E+01 0.87078917326E+01 0.81523237050E+01 0.76721700715E+01
 0.72898093700E+01 0.70022944561E+01 0.67941587541E+01 0.66482459426E+01 0.65512611677E+01
 0.64952907326E+01 0.64769069968E+01 0.64952907326E+01 0.65512611677E+01 0.66482459426E+01
 0.67941587541E+01 0.70022944561E+01 0.72898093700E+01 0.76721700715E+01 0.81523237050E+01
 0.87078917326E+01 0.92861967653E+01 0.98328582168E+01 0.10347844541E+02 0.10736974778E+02
 0.82176076957E+01 0.81909153914E+01 0.81091046660E+01 0.79710015776E+01 0.77836888796E+01
 0.75655081618E+01 0.73408307186E+01 0.71308980458E+01 0.69477208503E+01 0.67941587541E+01
 0.66681633253E+01 0.65674269517E+01 0.64920443878E+01 0.64446070488E+01 0.64283185112E+01
 0.64446070488E+01 0.64920443878E+01 0.65674269517E+01 0.66681633253E+01 0.67941587541E+01
 0.69477208503E+01 0.71308980458E+01 0.73408307186E+01 0.75655081618E+01 0.77836888796E+01
 0.79710015776E+01 0.81091046660E+01 0.81909153914E+01 0.70630837530E+01 0.70631267720E+01
 0.70596890930E+01 0.70447278477E+01 0.70114511476E+01 0.69585361202E+01 0.68900915822E+01
 0.68124183766E+01 0.67307434914E+01 0.66482459426E+01 0.65674269517E+01 0.64922642737E+01
 0.64293304151E+01 0.63868145284E+01 0.63717186074E+01 0.63868145284E+01 0.64293304151E+01
 0.64922642737E+01 0.65674269517E+01 0.66482459426E+01 0.67307434914E+01 0.68124183766E+01
 0.68900915822E+01 0.69585361202E+01 0.70114511476E+01 0.70447278477E+01 0.70596890930E+01
 0.70631267720E+01 0.65442188962E+01 0.65540802218E+01 0.65798939562E+01 0.66122094998E+01
 0.66401882335E+01 0.66555594262E+01 0.66542100741E+01 0.66354285375E+01 0.66003597085E+01
 0.65512611677E+01 0.64920443878E+01 0.64293304151E+01 0.63726395987E+01 0.63327247093E+01
 0.63182971412E+01 0.63327247093E+01 0.63726395987E+01 0.64293304151E+01 0.64920443878E+01
 0.65512611677E+01 0.66003597085E+01 0.66354285375E+01 0.66542100741E+01 0.66555594262E+01
 0.66401882335E+01 0.66122094998E+01 0.65798939562E+01 0.65540802218E+01 0.63266945255E+01
 0.63398341336E+01 0.63756543898E+01 0.64247756761E+01 0.64754469788E+01 0.65170699991E+01
 0.65422707958E+01 0.65472124317E+01 0.65309989784E+01 0.64952907326E+01 0.64446070488E+01
 0.63868145284E+01 0.63327247093E+01 0.62940383571E+01 0.62799713898E+01 0.62940383571E+01
 0.63327247093E+01 0.63868145284E+01 0.64446070488E+01 0.64952907326E+01 0.65309989784E+01
 0.65472124317E+01 0.65422707958E+01 0.65170699991E+01 0.64754469788E+01 0.64247756761E+01
 0.63756543898E+01 0.63398341336E+01 0.62660229255E+01 0.62799713898E+01 0.63182971412E+01
 0.63717186074E+01 0.64283185112E+01 0.64769069968E+01 0.65092061199E+01 0.65204724823E+01
 0.65092061199E+01 0.64769069968E+01 0.64283185112E+01 0.63717186074E+01 0.63182971412E+01
 0.62799713898E+01 0.62660229255E+01 0.62799713898E+01 0.63182971412E+01 0.63717186074E+01
 0.64283185112E+01 0.64769069968E+01 0.65092061199E+01 0.65204724823E+01 0.65092061199E+01
 0.64769069968E+01 0.64283185112E+01 0.63717186074E+01 0.63182971412E+01 0.62799713898E+01
 0.63266945255E+01 0.63398341336E+01 0.63756543898E+01 0.64247756761E+01 0.64754469788E+01
 0.65170699991E+01 0.65422707958E+01 0.65472124317E+01 0.65309989784E+01 0.64952907326E+01
 0.64446070488E+01 0.63868145284E+01 0.63327247093E+01 0.62940383571E+01 0.62799713898E+01
 0.62940383571E+01 0.63327247093E+01 0.63868145284E+01 0.64446070488E+01 0.64952907326E+01
 0.65309989784E+01 0.65472124317E+01 0.65422707958E+01 0.65170699991E+01 0.64754469788E+01
 0.64247756761E+01 0.63756543898E+01 0.63398341336E+01 0.65442188962E+01 0.65540802218E+01
 0.65798939562E+01 0.66122094998E+01 0.66401882335E+01 0.66555594262E+01 0.66542100741E+01
 0.66354285375E+01 0.66003597085E+01 0.65512611677E+01 0.64920443878E+01 0.64293304151E+01
 0.63726395987E+01 0.63327247093E+01 0.63182971412E+01 0.63327247093E+01 0.63726395987E+01
 0.64293304151E+01 0.64920443878E+01 0.65512611677E+01 0.66003597085E+01 0.66354285375E+01
 0.66542100741E+01 0.66555594262E+01 0.66401882335E+01 0.66122094998E+01 0.65798939562E+01
 0.65540802218E+01 0.70630837530E+01 0.70631267720E+01 0.70596890930E+01 0.70447278477E+01
 0.70114511476E+01 0.69585361202E+01 0.68900915822E+01 0.68124183766E+01 0.67307434914E+01
 0.66482459426E+01 0.65674269517E+01 0.64922642737E+01 0.64293304151E+01 0.63868145284E+01
 0.63717186074E+01 0.63868145284E+01 0.64293304151E+01 0.64922642737E+01 0.65674269517E+01
 0.66482459426E+01 0.67307434914E+01 0.68124183766E+01 0.68900915822E+01 0.69585361202E+01
 0.70114511476E+01 0.70447278477E+01 0.70596890930E+01 0.70631267720E+01 0.82176076957E+01
 0.81909153914E+01 0.81091046660E+01 0.79710015776E+01 0.77836888796E+01 0.75655081618E+01
 0.73408307186E+01 0.71308980458E+01 0.69477208503E+01 0.67941587541E+01 0.66681633253E+01
 0.65674269517E+01 0.64920443878E+01 0.64446070488E+01 0.64283185112E+01 0.64446070488E+01
 0.64920443878E+01 0.65674269517E+01 0.66681633253E+01 0.67941587541E+01 0.69477208503E+01
 0.71308980458E+01 0.73408307186E+01 0.75655081618E+01 0.77836888796E+01 0.79710015776E+01
 0.81091046660E+01 0.81909153914E+01 0.10882388573E+02 0.10736974778E+02 0.10347844541E+02
 0.98328582168E+01 0.92861967653E+01 0.87078917326E+01 0.81523237050E+01 0.76721700715E+01
 0.72898093700E+01 0.70022944561E+01 0.67941587541E+01 0.66482459426E+01 0.65512611677E+01
 0.64952907326E+01 0.64769069968E+01 0.64952907326E+01 0.65512611677E+01 0.66482459426E+01
 0.67941587541E+01 0.70022944561E+01 0.72898093700E+01 0.76721700715E+01 0.81523237050E+01
 0.87078917326E+01 0.92861967653E+01 0.98328582168E+01 0.10347844541E+02 0.10736974778E+02
 0.18804863776E+02 0.18249417442E+02 0.16707963226E+02 0.14568077786E+02 0.12412293358E+02
 0.10728628013E+02 0.95191871318E+01 0.85419027607E+01 0.78054952903E+01 0.72898093700E+01
 0.69477208503E+01 0.67307434914E+01 0.66003597085E+01 0.65309989784E+01 0.65092061199E+01
 0.65309989784E+01 0.66003597085E+01 0.67307434914E+01 0.69477208503E+01 0.72898093700E+01
 0.78054952903E+01 0.85419027607E+01 0.95191871318E+01 0.10728628013E+02 0.12412293358E+02
 0.14568077786E+02 0.16707963226E+02 0.18249417442E+02 0.37425242173E+02 0.36081990280E+02
 0.32248556934E+02 0.26620726573E+02 0.20461428247E+02 0.15224269288E+02 0.11782608591E+02
 0.98466554330E+01 0.85419027607E+01 0.76721700715E+01 0.71308980458E+01 0.68124183766E+01
 0.66354285375E+01 0.65472124317E+01 0.65204724823E+01 0.65472124317E+01 0.66354285375E+01
 0.68124183766E+01 0.71308980458E+01 0.76721700715E+01 0.85419027607E+01 0.98466554330E+01
 0.11782608591E+02 0.15224269288E+02 0.20461428247E+02 0.26620726573E+02 0.32248556934E+02
 0.36081990280E+02 0.70653869328E+02 0.68132198414E+02 0.60807325657E+02 0.49672106002E+02
 0.36814229071E+02 0.25010987658E+02 0.16495746527E+02 0.11782608591E+02 0.95191871318E+01
 0.81523237050E+01 0.73408307186E+01 0.68900915822E+01 0.66542100741E+01 0.65422707958E+01
 0.65092061199E+01 0.65422707958E+01 0.66542100741E+01 0.68900915822E+01 0.73408307186E+01
 0.81523237050E+01 0.95191871318E+01 0.11782608591E+02 0.16495746527E+02 0.25010987658E+02
 0.36814229071E+02 0.49672106002E+02 0.60807325657E+02 0.68132198414E+02 0.11773052937E+03
 0.11377000683E+03 0.10211127503E+03 0.83943803210E+02 0.62205715822E+02 0.41236152387E+02
 0.25010987658E+02 0.15224269288E+02 0.10728628013E+02 0.87078917326E+01 0.75655081618E+01
 0.69585361202E+01 0.66555594262E+01 0.65170699991E+01 0.64769069968E+01 0.65170699991E+01
 0.66555594262E+01 0.69585361202E+01 0.75655081618E+01 0.87078917326E+01 0.10728628013E+02
 0.15224269288E+02 0.25010987658E+02 0.41236152387E+02 0.62205715822E+02 0.83943803210E+02
 0.10211127503E+03 0.11377000683E+03 0.17185270965E+03 0.16647397900E+03 0.15044143648E+03
 0.12492044223E+03 0.93537135682E+02 0.62205715822E+02 0.36814229071E+02 0.20461428247E+02
 0.12412293358E+02 0.92861967653E+01 0.77836888796E+01 0.70114511476E+01 0.66401882335E+01
 0.64754469788E+01 0.64283185112E+01 0.64754469788E+01 0.66401882335E+01 0.70114511476E+01
 0.77836888796E+01 0.92861967653E+01 0.12412293358E+02 0.20461428247E+02 0.36814229071E+02
 0.62205715822E+02 0.93537135682E+02 0.12492044223E+03 0.15044143648E+03 0.16647397900E+03
 0.22266997712E+03 0.21620230675E+03 0.19666598273E+03 0.16491010688E+03 0.12492044223E+03
 0.83943803210E+02 0.49672106002E+02 0.26620726573E+02 0.14568077786E+02 0.98328582168E+01
 0.79710015776E+01 0.70447278477E+01 0.66122094998E+01 0.64247756761E+01 0.63717186074E+01
 0.64247756761E+01 0.66122094998E+01 0.70447278477E+01 0.79710015776E+01 0.98328582168E+01
 0.14568077786E+02 0.26620726573E+02 0.49672106002E+02 0.83943803210E+02 0.12492044223E+03
 0.16491010688E+03 0.19666598273E+03 0.21620230675E+03 0.26136430825E+03 0.25428722503E+03
 0.23261498551E+03 0.19666598273E+03 0.15044143648E+03 0.10211127503E+03 0.60807325657E+02
 0.32248556934E+02 0.16707963226E+02 0.10347844541E+02 0.81091046660E+01 0.70596890930E+01
 0.65798939562E+01 0.63756543898E+01 0.63182971412E+01 0.63756543898E+01 0.65798939562E+01
 0.70596890930E+01 0.81091046660E+01 0.10347844541E+02 0.16707963226E+02 0.32248556934E+02
 0.60807325657E+02 0.10211127503E+03 0.15044143648E+03 0.19666598273E+03 0.23261498551E+03
 0.25428722503E+03 0.28418012725E+03 0.27688394609E+03 0.25428722503E+03 0.21620230675E+03
 0.16647397900E+03 0.11377000683E+03 0.68132198414E+02 0.36081990280E+02 0.18249417442E+02
 0.10736974778E+02 0.81909153914E+01 0.70631267720E+01 0.65540802218E+01 0.63398341336E+01
 0.62799713898E+01 0.63398341336E+01 0.65540802218E+01 0.70631267720E+01 0.81909153914E+01
 0.10736974778E+02 0.18249417442E+02 0.36081990280E+02 0.68132198414E+02 0.11377000683E+03
 0.16647397900E+03 0.21620230675E+03 0.25428722503E+03 0.27688394609E+03 0.28418012725E+03
 0.27688394609E+03 0.25428722503E+03 0.21620230675E+03 0.16647397900E+03 0.11377000683E+03
 0.68132198414E+02 0.36081990280E+02 0.18249417442E+02 0.10736974778E+02 0.81909153914E+01
 0.70631267720E+01 0.65540802218E+01 0.63398341336E+01 0.62799713898E+01 0.63398341336E+01
 0.65540802218E+01 0.70631267720E+01 0.81909153914E+01 0.10736974778E+02 0.18249417442E+02
 0.36081990280E+02 0.68132198414E+02 0.11377000683E+03 0.16647397900E+03 0.21620230675E+03
 0.25428722503E+03 0.27688394609E+03 0.27688394609E+03 0.26963333658E+03 0.24727395147E+03
 0.20981424270E+03 0.16117855340E+03 0.10988359009E+03 0.65668332487E+02 0.34779161542E+02
 0.17718442091E+02 0.10601770423E+02 0.81653499752E+01 0.70636253110E+01 0.65641549662E+01
 0.63531109202E+01 0.62940383571E+01 0.63531109202E+01 0.65641549662E+01 0.70636253110E+01
 0.81653499752E+01 0.10601770423E+02 0.17718442091E+02 0.34779161542E+02 0.65668332487E+02
 0.10988359009E+03 0.16117855340E+03 0.20981424270E+03 0.24727395147E+03 0.26963333658E+03
 0.25428722503E+03 0.24727395147E+03 0.22587847902E+03 0.19058242679E+03 0.14544242470E+03
 0.98477375175E+02 0.58533974074E+02 0.31073983471E+02 0.16250566037E+02 0.10240341439E+02
 0.80868330976E+01 0.70615065270E+01 0.65905932211E+01 0.63893427838E+01 0.63327247093E+01
 0.63893427838E+01 0.65905932211E+01 0.70615065270E+01 0.80868330976E+01 0.10240341439E+02
 0.16250566037E+02 0.31073983471E+02 0.58533974074E+02 0.98477375175E+02 0.14544242470E+03
 0.19058242679E+03 0.22587847902E+03 0.24727395147E+03 0.21620230675E+03 0.20981424270E+03
 0.19058242679E+03 0.15947772361E+03 0.12051335481E+03 0.80790851087E+02 0.47746603335E+02
 0.25667713150E+02 0.14226746985E+02 0.97600226352E+01 0.79539279436E+01 0.70486416604E+01
 0.66239557476E+01 0.64392032127E+01 0.63868145284E+01 0.64392032127E+01 0.66239557476E+01
 0.70486416604E+01 0.79539279436E+01 0.97600226352E+01 0.14226746985E+02 0.25667713150E+02
 0.47746603335E+02 0.80790851087E+02 0.12051335481E+03 0.15947772361E+03 0.19058242679E+03
 0.20981424270E+03 0.16647397900E+03 0.16117855340E+03 0.14544242470E+03 0.12051335481E+03
 0.90022068673E+02 0.59751521238E+02 0.35373904543E+02 0.19798119948E+02 0.12204211785E+02
 0.92367394700E+01 0.77732982208E+01 0.70182256775E+01 0.66535498606E+01 0.64911427119E+01
 0.64446070488E+01 0.64911427119E+01 0.66535498606E+01 0.70182256775E+01 0.77732982208E+01
 0.92367394700E+01 0.12204211785E+02 0.19798119948E+02 0.35373904543E+02 0.59751521238E+02
 0.90022068673E+02 0.12051335481E+03 0.14544242470E+03 0.16117855340E+03 0.11377000683E+03
 0.10988359009E+03 0.98477375175E+02 0.80790851087E+02 0.59751521238E+02 0.39587816314E+02
 0.24105465179E+02 0.14853815925E+02 0.10627941034E+02 0.86758963067E+01 0.75627892855E+01
 0.69690430122E+01 0.66714103044E+01 0.65349273771E+01 0.64952907326E+01 0.65349273771E+01
 0.66714103044E+01 0.69690430122E+01 0.75627892855E+01 0.86758963067E+01 0.10627941034E+02
 0.14853815925E+02 0.24105465179E+02 0.39587816314E+02 0.59751521238E+02 0.80790851087E+02
 0.98477375175E+02 0.10988359009E+03 0.68132198414E+02 0.65668332487E+02 0.58533974074E+02
 0.47746603335E+02 0.35373904543E+02 0.24105465179E+02 0.16051381879E+02 0.11628868729E+02
 0.94660400065E+01 0.81373549622E+01 0.73463100366E+01 0.69053552865E+01 0.66737693146E+01
 0.65635828873E+01 0.65309989784E+01 0.65635828873E+01 0.66737693146E+01 0.69053552865E+01
 0.73463100366E+01 0.81373549622E+01 0.94660400065E+01 0.11628868729E+02 0.16051381879E+02
 0.24105465179E+02 0.35373904543E+02 0.47746603335E+02 0.58533974074E+02 0.65668332487E+02
 0.36081990280E+02 0.34779161542E+02 0.31073983471E+02 0.25667713150E+02 0.19798119948E+02
 0.14853815925E+02 0.11628868729E+02 0.97845365118E+01 0.85179171067E+01 0.76722511084E+01
 0.71447290965E+01 0.68335030186E+01 0.66600905188E+01 0.65734878795E+01 0.65472124317E+01
 0.65734878795E+01 0.66600905188E+01 0.68335030186E+01 0.71447290965E+01 0.76722511084E+01
 0.85179171067E+01 0.97845365118E+01 0.11628868729E+02 0.14853815925E+02 0.19798119948E+02
 0.25667713150E+02 0.31073983471E+02 0.34779161542E+02 0.18249417442E+02 0.17718442091E+02
 0.16250566037E+02 0.14226746985E+02 0.12204211785E+02 0.10627941034E+02 0.94660400065E+01
 0.85179171067E+01 0.78031909918E+01 0.73023132898E+01 0.69697215907E+01 0.67584888020E+01
 0.66313397784E+01 0.65635828873E+01 0.65422707958E+01 0.65635828873E+01 0.66313397784E+01
 0.67584888020E+01 0.69697215907E+01 0.73023132898E+01 0.78031909918E+01 0.85179171067E+01
 0.94660400065E+01 0.10627941034E+02 0.12204211785E+02 0.14226746985E+02 0.16250566037E+02
 0.17718442091E+02 0.10736974778E+02 0.10601770423E+02 0.10240341439E+02 0.97600226352E+01
 0.92367394700E+01 0.86758963067E+01 0.81373549622E+01 0.76722511084E+01 0.73023132898E+01
 0.70245686753E+01 0.68237503465E+01 0.66829502394E+01 0.65891876991E+01 0.65349273771E+01
 0.65170699991E+01 0.65349273771E+01 0.65891876991E+01 0.66829502394E+01 0.68237503465E+01
 0.70245686753E+01 0.73023132898E+01 0.76722511084E+01 0.81373549622E+01 0.86758963067E+01
 0.92367394700E+01 0.97600226352E+01 0.10240341439E+02 0.10601770423E+02 0.81909153914E+01
 0.81653499752E+01 0.80868330976E+01 0.79539279436E+01 0.77732982208E+01 0.75627892855E+01
 0.73463100366E+01 0.71447290965E+01 0.69697215907E+01 0.68237503465E+01 0.67042954565E+01
 0.66086348012E+01 0.65366845730E+01 0.64911427119E+01 0.64754469788E+01 0.64911427119E+01
 0.65366845730E+01 0.66086348012E+01 0.67042954565E+01 0.68237503465E+01 0.69697215907E+01
 0.71447290965E+01 0.73463100366E+01 0.75627892855E+01 0.77732982208E+01 0.79539279436E+01
 0.80868330976E+01 0.81653499752E+01 0.70631267720E+01 0.70636253110E+01 0.70615065270E+01
 0.70486416604E+01 0.70182256775E+01 0.69690430122E+01 0.69053552865E+01 0.68335030186E+01
 0.67584888020E+01 0.66829502394E+01 0.66086348012E+01 0.65388024511E+01 0.64796065872E+01
 0.64392032127E+01 0.64247756761E+01 0.64392032127E+01 0.64796065872E+01 0.65388024511E+01
 0.66086348012E+01 0.66829502394E+01 0.67584888020E+01 0.68335030186E+01 0.69053552865E+01
 0.69690430122E+01 0.70182256775E+01 0.70486416604E+01 0.70615065270E+01 0.70636253110E+01
 0.65540802218E+01 0.65641549662E+01 0.65905932211E+01 0.66239557476E+01 0.66535498606E+01
 0.66714103044E+01 0.66737693146E+01 0.66600905188E+01 0.66313397784E+01 0.65891876991E+01
 0.65366845730E+01 0.64796065872E+01 0.64269445537E+01 0.63893427838E+01 0.63756543898E+01
 0.63893427838E+01 0.64269445537E+01 0.64796065872E+01 0.65366845730E+01 0.65891876991E+01
 0.66313397784E+01 0.66600905188E+01 0.66737693146E+01 0.66714103044E+01 0.66535498606E+01
 0.66239557476E+01 0.65905932211E+01 0.65641549662E+01 0.63398341336E+01 0.63531109202E+01
 0.63893427838E+01 0.64392032127E+01 0.64911427119E+01 0.65349273771E+01 0.65635828873E+01
 0.65734878795E+01 0.65635828873E+01 0.65349273771E+01 0.64911427119E+01 0.64392032127E+01
 0.63893427838E+01 0.63531109202E+01 0.63398341336E+01 0.63531109202E+01 0.63893427838E+01
 0.64392032127E+01 0.64911427119E+01 0.65349273771E+01 0.65635828873E+01 0.65734878795E+01
 0.65635828873E+01 0.65349273771E+01 0.64911427119E+01 0.64392032127E+01 0.63893427838E+01
 0.63531109202E+01 0.62799713898E+01 0.62940383571E+01 0.63327247093E+01 0.63868145284E+01
 0.64446070488E+01 0.64952907326E+01 0.65309989784E+01 0.65472124317E+01 0.65422707958E+01
 0.65170699991E+01 0.64754469788E+01 0.64247756761E+01 0.63756543898E+01 0.63398341336E+01
 0.63266945255E+01 0.63398341336E+01 0.63756543898E+01 0.64247756761E+01 0.64754469788E+01
 0.65170699991E+01 0.65422707958E+01 0.65472124317E+01 0.65309989784E+01 0.64952907326E+01
 0.64446070488E+01 0.63868145284E+01 0.63327247093E+01 0.62940383571E+01 0.63398341336E+01
 0.63531109202E+01 0.63893427838E+01 0.64392032127E+01 0.64911427119E+01 0.65349273771E+01
 0.65635828873E+01 0.65734878795E+01 0.65635828873E+01 0.65349273771E+01 0.64911427119E+01
 0.64392032127E+01 0.63893427838E+01 0.63531109202E+01 0.63398341336E+01 0.63531109202E+01
 0.63893427838E+01 0.64392032127E+01 0.64911427119E+01 0.65349273771E+01 0.65635828873E+01
 0.65734878795E+01 0.65635828873E+01 0.65349273771E+01 0.64911427119E+01 0.64392032127E+01
 0.63893427838E+01 0.63531109202E+01 0.65540802218E+01 0.65641549662E+01 0.65905932211E+01
 0.66239557476E+01 0.66535498606E+01 0.66714103044E+01 0.66737693146E+01 0.66600905188E+01
 0.66313397784E+01 0.65891876991E+01 0.65366845730E+01 0.64796065872E+01 0.64269445537E+01
 0.63893427838E+01 0.63756543898E+01 0.63893427838E+01 0.64269445537E+01 0.64796065872E+01
 0.65366845730E+01 0.65891876991E+01 0.66313397784E+01 0.66600905188E+01 0.66737693146E+01
 0.66714103044E+01 0.66535498606E+01 0.66239557476E+01 0.65905932211E+01 0.65641549662E+01
 0.70631267720E+01 0.70636253110E+01 0.70615065270E+01 0.70486416604E+01 0.70182256775E+01
 0.69690430122E+01 0.69053552865E+01 0.68335030186E+01 0.67584888020E+01 0.66829502394E+01
 0.66086348012E+01 0.65388024511E+01 0.64796065872E+01 0.64392032127E+01 0.64247756761E+01
 0.64392032127E+01 0.64796065872E+01 0.65388024511E+01 0.66086348012E+01 0.66829502394E+01
 0.67584888020E+01 0.68335030186E+01 0.69053552865E+01 0.69690430122E+01 0.70182256775E+01
 0.70486416604E+01 0.70615065270E+01 0.70636253110E+01 0.81909153914E+01 0.81653499752E+01
 0.80868330976E+01 0.79539279436E+01 0.77732982208E+01 0.75627892855E+01 0.73463100366E+01
 0.71447290965E+01 0.69697215907E+01 0.68237503465E+01 0.67042954565E+01 0.66086348012E+01
 0.65366845730E+01 0.64911427119E+01 0.64754469788E+01 0.64911427119E+01 0.65366845730E+01
 0.66086348012E+01 0.67042954565E+01 0.68237503465E+01 0.69697215907E+01 0.71447290965E+01
 0.73463100366E+01 0.75627892855E+01 0.77732982208E+01 0.79539279436E+01 0.80868330976E+01
 0.81653499752E+01 0.10736974778E+02 0.10601770423E+02 0.10240341439E+02 0.97600226352E+01
 0.92367394700E+01 0.86758963067E+01 0.81373549622E+01 0.76722511084E+01 0.73023132898E+01
 0.70245686753E+01 0.68237503465E+01 0.66829502394E+01 0.65891876991E+01 0.65349273771E+01
 0.65170699991E+01 0.65349273771E+01 0.65891876991E+01 0.66829502394E+01 0.68237503465E+01
 0.70245686753E+01 0.73023132898E+01 0.76722511084E+01 0.81373549622E+01 0.86758963067E+01
 0.92367394700E+01 0.97600226352E+01 0.10240341439E+02 0.10601770423E+02 0.18249417442E+02
 0.17718442091E+02 0.16250566037E+02 0.14226746985E+02 0.12204211785E+02 0.10627941034E+02
 0.94660400065E+01 0.85179171067E+01 0.78031909918E+01 0.73023132898E+01 0.69697215907E+01
 0.67584888020E+01 0.66313397784E+01 0.65635828873E+01 0.65422707958E+01 0.65635828873E+01
 0.66313397784E+01 0.67584888020E+01 0.69697215907E+01 0.73023132898E+01 0.78031909918E+01
 0.85179171067E+01 0.94660400065E+01 0.10627941034E+02 0.12204211785E+02 0.14226746985E+02
 0.16250566037E+02 0.17718442091E+02 0.36081990280E+02 0.34779161542E+02 0.31073983471E+02
 0.25667713150E+02 0.19798119948E+02 0.14853815925E+02 0.11628868729E+02 0.97845365118E+01
 0.85179171067E+01 0.76722511084E+01 0.71447290965E+01 0.68335030186E+01 0.66600905188E+01
 0.65734878795E+01 0.65472124317E+01 0.65734878795E+01 0.66600905188E+01 0.68335030186E+01
 0.71447290965E+01 0.76722511084E+01 0.85179171067E+01 0.97845365118E+01 0.11628868729E+02
 0.14853815925E+02 0.19798119948E+02 0.25667713150E+02 0.31073983471E+02 0.34779161542E+02
 0.68132198414E+02 0.65668332487E+02 0.58533974074E+02 0.47746603335E+02 0.35373904543E+02
 0.24105465179E+02 0.16051381879E+02 0.11628868729E+02 0.94660400065E+01 0.81373549622E+01
 0.73463100366E+01 0.69053552865E+01 0.66737693146E+01 0.65635828873E+01 0.65309989784E+01
 0.65635828873E+01 0.66737693146E+01 0.69053552865E+01 0.73463100366E+01 0.81373549622E+01
 0.94660400065E+01 0.11628868729E+02 0.16051381879E+02 0.24105465179E+02 0.35373904543E+02
 0.47746603335E+02 0.58533974074E+02 0.65668332487E+02 0.11377000683E+03 0.10988359009E+03
 0.98477375175E+02 0.80790851087E+02 0.59751521238E+02 0.39587816314E+02 0.24105465179E+02
 0.14853815925E+02 0.10627941034E+02 0.86758963067E+01 0.75627892855E+01 0.69690430122E+01
 0.66714103044E+01 0.65349273771E+01 0.64952907326E+01 0.65349273771E+01 0.66714103044E+01
 0.69690430122E+01 0.75627892855E+01 0.86758963067E+01 0.10627941034E+02 0.14853815925E+02
 0.24105465179E+02 0.39587816314E+02 0.59751521238E+02 0.80790851087E+02 0.98477375175E+02
 0.10988359009E+03 0.16647397900E+03 0.16117855340E+03 0.14544242470E+03 0.12051335481E+03
 0.90022068673E+02 0.59751521238E+02 0.35373904543E+02 0.19798119948E+02 0.12204211785E+02
 0.92367394700E+01 0.77732982208E+01 0.70182256775E+01 0.66535498606E+01 0.64911427119E+01
 0.64446070488E+01 0.64911427119E+01 0.66535498606E+01 0.70182256775E+01 0.77732982208E+01
 0.92367394700E+01 0.12204211785E+02 0.19798119948E+02 0.35373904543E+02 0.59751521238E+02
 0.90022068673E+02 0.12051335481E+03 0.14544242470E+03 0.16117855340E+03 0.21620230675E+03
 0.20981424270E+03 0.19058242679E+03 0.15947772361E+03 0.12051335481E+03 0.80790851087E+02
 0.47746603335E+02 0.25667713150E+02 0.14226746985E+02 0.97600226352E+01 0.79539279436E+01
 0.70486416604E+01 0.66239557476E+01 0.64392032127E+01 0.63868145284E+01 0.64392032127E+01
 0.66239557476E+01 0.70486416604E+01 0.79539279436E+01 0.97600226352E+01 0.14226746985E+02
 0.25667713150E+02 0.47746603335E+02 0.80790851087E+02 0.12051335481E+03 0.15947772361E+03
 0.19058242679E+03 0.20981424270E+03 0.25428722503E+03 0.24727395147E+03 0.22587847902E+03
 0.19058242679E+03 0.14544242470E+03 0.98477375175E+02 0.58533974074E+02 0.31073983471E+02
 0.16250566037E+02 0.10240341439E+02 0.80868330976E+01 0.70615065270E+01 0.65905932211E+01
 0.63893427838E+01 0.63327247093E+01 0.63893427838E+01 0.65905932211E+01 0.70615065270E+01
 0.80868330976E+01 0.10240341439E+02 0.16250566037E+02 0.31073983471E+02 0.58533974074E+02
 0.98477375175E+02 0.14544242470E+03 0.19058242679E+03 0.22587847902E+03 0.24727395147E+03
 0.27688394609E+03 0.26963333658E+03 0.24727395147E+03 0.20981424270E+03 0.16117855340E+03
 0.10988359009E+03 0.65668332487E+02 0.34779161542E+02 0.17718442091E+02 0.10601770423E+02
 0.81653499752E+01 0.70636253110E+01 0.65641549662E+01 0.63531109202E+01 0.62940383571E+01
 0.63531109202E+01 0.65641549662E+01 0.70636253110E+01 0.81653499752E+01 0.10601770423E+02
 0.17718442091E+02 0.34779161542E+02 0.65668332487E+02 0.10988359009E+03 0.16117855340E+03
 0.20981424270E+03 0.24727395147E+03 0.26963333658E+03 0.26136430825E+03 0.25428722503E+03
 0.23261498551E+03 0.19666598273E+03 0.15044143648E+03 0.10211127503E+03 0.60807325657E+02
 0.32248556934E+02 0.16707963226E+02 0.10347844541E+02 0.81091046660E+01 0.70596890930E+01
 0.65798939562E+01 0.63756543898E+01 0.63182971412E+01 0.63756543898E+01 0.65798939562E+01
 0.70596890930E+01 0.81091046660E+01 0.10347844541E+02 0.16707963226E+02 0.32248556934E+02
 0.60807325657E+02 0.10211127503E+03 0.15044143648E+03 0.19666598273E+03 0.23261498551E+03
 0.25428722503E+03 0.25428722503E+03 0.24727395147E+03 0.22587847902E+03 0.19058242679E+03
 0.14544242470E+03 0.98477375175E+02 0.58533974074E+02 0.31073983471E+02 0.16250566037E+02
 0.10240341439E+02 0.80868330976E+01 0.70615065270E+01 0.65905932211E+01 0.63893427838E+01
 0.63327247093E+01 0.63893427838E+01 0.65905932211E+01 0.70615065270E+01 0.80868330976E+01
 0.10240341439E+02 0.16250566037E+02 0.31073983471E+02 0.58533974074E+02 0.98477375175E+02
 0.14544242470E+03 0.19058242679E+03 0.22587847902E+03 0.24727395147E+03 0.23261498551E+03
 0.22587847902E+03 0.20552522940E+03 0.17242492524E+03 0.13070683141E+03 0.87898525642E+02