   2   2   1   0
  0.1183231E+02  0.2871000E-09  0.2871000E-09  0.2871000E-09  0.5000000E-15
  1.000000000000000E-004
  CAR 
 Cr                                      
     80.75170001    -38.55744982  301     10.61791473      1.00000000
    -38.557  0.0000E+00  0.0000E+00  0.0000E+00  0.0000E+00
    -38.160  0.0000E+00  0.0000E+00  0.0000E+00  0.0000E+00
    -37.762  0.0000E+00  0.0000E+00  0.0000E+00  0.0000E+00
    -37.364  0.0000E+00  0.0000E+00  0.0000E+00  0.0000E+00
    -36.967  0.0000E+00  0.0000E+00  0.0000E+00  0.0000E+00
    -36.569  0.0000E+00  0.0000E+00  0.0000E+00  0.0000E+00
    -36.171  0.0000E+00  0.0000E+00  0.0000E+00  0.0000E+00
    -35.774  0.0000E+00  0.0000E+00  0.0000E+00  0.0000E+00
    -35.376  0.0000E+00  0.0000E+00  0.0000E+00  0.0000E+00
    -34.978  0.0000E+00  0.0000E+00  0.0000E+00  0.0000E+00
    -34.580  0.0000E+00  0.0000E+00  0.0000E+00  0.0000E+00
    -34.183  0.0000E+00  0.0000E+00  0.0000E+00  0.0000E+00
    -33.785  0.0000E+00  0.0000E+00  0.0000E+00  0.0000E+00
    -33.387  0.7222E-14  0.7222E-14  0.2872E-14  0.2872E-14
    -32.990  0.3266E+01  0.3266E+01  0.1299E+01  0.1299E+01
    -32.592  0.3890E+01  0.3890E+01  0.3000E+01  0.3000E+01
    -32.194  0.0000E+00  0.0000E+00  0.3000E+01  0.3000E+01
    -31.797  0.1371E+01  0.1371E+01  0.3545E+01  0.3545E+01
    -31.399  0.5965E+01  0.5965E+01  0.6000E+01  0.6000E+01
    -31.001  0.0000E+00  0.0000E+00  0.6000E+01  0.6000E+01
    -30.604  0.0000E+00  0.0000E+00  0.6000E+01  0.6000E+01
    -30.206  0.0000E+00  0.0000E+00  0.6000E+01  0.6000E+01
    -29.808  0.0000E+00  0.0000E+00  0.6000E+01  0.6000E+01
    -29.410  0.0000E+00  0.0000E+00  0.6000E+01  0.6000E+01
    -29.013  0.0000E+00  0.0000E+00  0.6000E+01  0.6000E+01
    -28.615  0.0000E+00  0.0000E+00  0.6000E+01  0.6000E+01
    -28.217  0.0000E+00  0.0000E+00  0.6000E+01  0.6000E+01
    -27.820  0.0000E+00  0.0000E+00  0.6000E+01  0.6000E+01
    -27.422  0.0000E+00  0.0000E+00  0.6000E+01  0.6000E+01
    -27.024  0.0000E+00  0.0000E+00  0.6000E+01  0.6000E+01
    -26.627  0.0000E+00  0.0000E+00  0.6000E+01  0.6000E+01
    -26.229  0.0000E+00  0.0000E+00  0.6000E+01  0.6000E+01
    -25.831  0.0000E+00  0.0000E+00  0.6000E+01  0.6000E+01
    -25.433  0.0000E+00  0.0000E+00  0.6000E+01  0.6000E+01
    -25.036  0.0000E+00  0.0000E+00  0.6000E+01  0.6000E+01
    -24.638  0.0000E+00  0.0000E+00  0.6000E+01  0.6000E+01
    -24.240  0.0000E+00  0.0000E+00  0.6000E+01  0.6000E+01
    -23.843  0.0000E+00  0.0000E+00  0.6000E+01  0.6000E+01
    -23.445  0.0000E+00  0.0000E+00  0.6000E+01  0.6000E+01
    -23.047  0.0000E+00  0.0000E+00  0.6000E+01  0.6000E+01
    -22.650  0.0000E+00  0.0000E+00  0.6000E+01  0.6000E+01
    -22.252  0.0000E+00  0.0000E+00  0.6000E+01  0.6000E+01
    -21.854  0.0000E+00  0.0000E+00  0.6000E+01  0.6000E+01
    -21.456  0.0000E+00  0.0000E+00  0.6000E+01  0.6000E+01
    -21.059  0.0000E+00  0.0000E+00  0.6000E+01  0.6000E+01
    -20.661  0.0000E+00  0.0000E+00  0.6000E+01  0.6000E+01
    -20.263  0.0000E+00  0.0000E+00  0.6000E+01  0.6000E+01
    -19.866  0.0000E+00  0.0000E+00  0.6000E+01  0.6000E+01
    -19.468  0.0000E+00  0.0000E+00  0.6000E+01  0.6000E+01
    -19.070  0.0000E+00  0.0000E+00  0.6000E+01  0.6000E+01
    -18.673  0.0000E+00  0.0000E+00  0.6000E+01  0.6000E+01
    -18.275  0.0000E+00  0.0000E+00  0.6000E+01  0.6000E+01
    -17.877  0.0000E+00  0.0000E+00  0.6000E+01  0.6000E+01
    -17.480  0.0000E+00  0.0000E+00  0.6000E+01  0.6000E+01
    -17.082  0.0000E+00  0.0000E+00  0.6000E+01  0.6000E+01
    -16.684  0.0000E+00  0.0000E+00  0.6000E+01  0.6000E+01
    -16.286  0.0000E+00  0.0000E+00  0.6000E+01  0.6000E+01
    -15.889  0.0000E+00  0.0000E+00  0.6000E+01  0.6000E+01
    -15.491  0.0000E+00  0.0000E+00  0.6000E+01  0.6000E+01
    -15.093  0.0000E+00  0.0000E+00  0.6000E+01  0.6000E+01
    -14.696  0.0000E+00  0.0000E+00  0.6000E+01  0.6000E+01
    -14.298  0.0000E+00  0.0000E+00  0.6000E+01  0.6000E+01
    -13.900  0.0000E+00  0.0000E+00  0.6000E+01  0.6000E+01
    -13.503  0.0000E+00  0.0000E+00  0.6000E+01  0.6000E+01
    -13.105  0.0000E+00  0.0000E+00  0.6000E+01  0.6000E+01
    -12.707  0.0000E+00  0.0000E+00  0.6000E+01  0.6000E+01
    -12.309  0.0000E+00  0.0000E+00  0.6000E+01  0.6000E+01
    -11.912  0.0000E+00  0.0000E+00  0.6000E+01  0.6000E+01
    -11.514  0.0000E+00  0.0000E+00  0.6000E+01  0.6000E+01
    -11.116  0.0000E+00  0.0000E+00  0.6000E+01  0.6000E+01
    -10.719  0.0000E+00  0.0000E+00  0.6000E+01  0.6000E+01
    -10.321  0.0000E+00  0.0000E+00  0.6000E+01  0.6000E+01
     -9.923  0.0000E+00  0.0000E+00  0.6000E+01  0.6000E+01
     -9.526  0.0000E+00  0.0000E+00  0.6000E+01  0.6000E+01
     -9.128  0.0000E+00  0.0000E+00  0.6000E+01  0.6000E+01
     -8.730  0.0000E+00  0.0000E+00  0.6000E+01  0.6000E+01
     -8.332  0.0000E+00  0.0000E+00  0.6000E+01  0.6000E+01
     -7.935  0.0000E+00  0.0000E+00  0.6000E+01  0.6000E+01
     -7.537  0.0000E+00  0.0000E+00  0.6000E+01  0.6000E+01
     -7.139  0.0000E+00  0.0000E+00  0.6000E+01  0.6000E+01
     -6.742  0.0000E+00  0.0000E+00  0.6000E+01  0.6000E+01
     -6.344  0.0000E+00  0.0000E+00  0.6000E+01  0.6000E+01
     -5.946  0.0000E+00  0.0000E+00  0.6000E+01  0.6000E+01
     -5.549  0.0000E+00  0.0000E+00  0.6000E+01  0.6000E+01
     -5.151  0.0000E+00  0.0000E+00  0.6000E+01  0.6000E+01
     -4.753  0.0000E+00  0.0000E+00  0.6000E+01  0.6000E+01
     -4.355  0.0000E+00  0.0000E+00  0.6000E+01  0.6000E+01
     -3.958  0.0000E+00  0.0000E+00  0.6000E+01  0.6000E+01
     -3.560  0.0000E+00  0.0000E+00  0.6000E+01  0.6000E+01
     -3.162  0.0000E+00  0.0000E+00  0.6000E+01  0.6000E+01
     -2.765  0.0000E+00  0.0000E+00  0.6000E+01  0.6000E+01
     -2.367  0.0000E+00  0.0000E+00  0.6000E+01  0.6000E+01
     -1.969  0.0000E+00  0.0000E+00  0.6000E+01  0.6000E+01
     -1.572  0.0000E+00  0.0000E+00  0.6000E+01  0.6000E+01
     -1.174  0.0000E+00  0.0000E+00  0.6000E+01  0.6000E+01
     -0.776  0.0000E+00  0.0000E+00  0.6000E+01  0.6000E+01
     -0.379  0.0000E+00  0.0000E+00  0.6000E+01  0.6000E+01
      0.019  0.0000E+00  0.0000E+00  0.6000E+01  0.6000E+01
      0.417  0.0000E+00  0.0000E+00  0.6000E+01  0.6000E+01
      0.815  0.0000E+00  0.0000E+00  0.6000E+01  0.6000E+01
      1.212  0.0000E+00  0.0000E+00  0.6000E+01  0.6000E+01
      1.610  0.0000E+00  0.0000E+00  0.6000E+01  0.6000E+01
      2.008  0.0000E+00  0.0000E+00  0.6000E+01  0.6000E+01
      2.405  0.0000E+00  0.0000E+00  0.6000E+01  0.6000E+01
      2.803  0.4835E-04  0.4835E-04  0.6000E+01  0.6000E+01
      3.201  0.2488E-01  0.2488E-01  0.6010E+01  0.6010E+01
      3.598  0.3940E-01  0.3940E-01  0.6027E+01  0.6027E+01
      3.996  0.4320E-01  0.4320E-01  0.6050E+01  0.6050E+01
      4.394  0.1059E+00  0.1059E+00  0.6092E+01  0.6092E+01
      4.792  0.1250E+00  0.1250E+00  0.6142E+01  0.6142E+01
      5.189  0.1023E+00  0.1023E+00  0.6186E+01  0.6186E+01
      5.587  0.1670E+00  0.1670E+00  0.6253E+01  0.6253E+01
      5.985  0.1943E+00  0.1943E+00  0.6331E+01  0.6331E+01
      6.382  0.4239E+00  0.4239E+00  0.6500E+01  0.6500E+01
      6.780  0.8512E+00  0.8512E+00  0.6841E+01  0.6841E+01
      7.178  0.1119E+01  0.1119E+01  0.7301E+01  0.7301E+01
      7.575  0.1384E+01  0.1384E+01  0.7868E+01  0.7868E+01
      7.973  0.7901E+00  0.7901E+00  0.8197E+01  0.8197E+01
      8.371  0.1532E+01  0.1532E+01  0.8826E+01  0.8826E+01
      8.769  0.1752E+01  0.1752E+01  0.9568E+01  0.9568E+01
      9.166  0.1703E+01  0.1703E+01  0.1026E+02  0.1026E+02
      9.564  0.2272E+01  0.2272E+01  0.1118E+02  0.1118E+02
      9.962  0.9776E+00  0.9776E+00  0.1160E+02  0.1160E+02
     10.359  0.7003E+00  0.7003E+00  0.1189E+02  0.1189E+02
     10.757  0.3459E+00  0.3459E+00  0.1203E+02  0.1203E+02
     11.155  0.6045E+00  0.6045E+00  0.1228E+02  0.1228E+02
     11.552  0.1850E+01  0.1850E+01  0.1303E+02  0.1303E+02
     11.950  0.2907E+01  0.2907E+01  0.1423E+02  0.1423E+02
     12.348  0.2251E+01  0.2251E+01  0.1516E+02  0.1516E+02
     12.745  0.1640E+01  0.1640E+01  0.1585E+02  0.1585E+02
     13.143  0.1248E+01  0.1248E+01  0.1640E+02  0.1640E+02
     13.541  0.6562E+00  0.6562E+00  0.1668E+02  0.1668E+02
     13.939  0.2438E+00  0.2438E+00  0.1680E+02  0.1680E+02
     14.336  0.4026E+00  0.4026E+00  0.1696E+02  0.1696E+02
     14.734  0.2616E+00  0.2616E+00  0.1706E+02  0.1706E+02
     15.132  0.3931E+00  0.3931E+00  0.1722E+02  0.1722E+02
     15.529  0.9950E-01  0.9950E-01  0.1727E+02  0.1727E+02
     15.927  0.4099E+00  0.4099E+00  0.1743E+02  0.1743E+02
     16.325  0.2388E+00  0.2388E+00  0.1753E+02  0.1753E+02
     16.722  0.1356E+00  0.1356E+00  0.1759E+02  0.1759E+02
     17.120  0.1274E+01  0.1274E+01  0.1810E+02  0.1810E+02
     17.518  0.1624E+01  0.1624E+01  0.1875E+02  0.1875E+02
     17.916  0.2360E+00  0.2360E+00  0.1884E+02  0.1884E+02
     18.313  0.6038E-01  0.6038E-01  0.1887E+02  0.1887E+02
     18.711  0.2118E+01  0.2118E+01  0.1971E+02  0.1971E+02
     19.109  0.6473E-01  0.6473E-01  0.1993E+02  0.1993E+02
     19.506  0.1300E+00  0.1300E+00  0.1998E+02  0.1998E+02
     19.904  0.2235E-01  0.2235E-01  0.1999E+02  0.1999E+02
     20.302  0.1955E+00  0.1955E+00  0.2007E+02  0.2007E+02
     20.699  0.6227E+00  0.6227E+00  0.2032E+02  0.2032E+02
     21.097  0.5795E+00  0.5795E+00  0.2057E+02  0.2057E+02
     21.495  0.1818E+00  0.1818E+00  0.2064E+02  0.2064E+02
     21.893  0.6379E+00  0.6379E+00  0.2090E+02  0.2090E+02
     22.290  0.3625E+00  0.3625E+00  0.2105E+02  0.2105E+02
     22.688  0.2846E+00  0.2846E+00  0.2117E+02  0.2117E+02
     23.086  0.6199E+00  0.6199E+00  0.2142E+02  0.2142E+02
     23.483  0.3631E+00  0.3631E+00  0.2157E+02  0.2157E+02
     23.881  0.2900E+00  0.2900E+00  0.2169E+02  0.2169E+02
     24.279  0.4531E+00  0.4531E+00  0.2188E+02  0.2188E+02
     24.676  0.5784E+00  0.5784E+00  0.2211E+02  0.2211E+02
     25.074  0.1551E+00  0.1551E+00  0.2218E+02  0.2218E+02
     25.472  0.4920E+00  0.4920E+00  0.2237E+02  0.2237E+02
     25.869  0.5013E+00  0.5013E+00  0.2257E+02  0.2257E+02
     26.267  0.3588E+00  0.3588E+00  0.2272E+02  0.2272E+02
     26.665  0.4131E+00  0.4131E+00  0.2289E+02  0.2289E+02
     27.063  0.2226E+00  0.2226E+00  0.2299E+02  0.2299E+02
     27.460  0.6231E+00  0.6231E+00  0.2325E+02  0.2325E+02
     27.858  0.3829E+00  0.3829E+00  0.2340E+02  0.2340E+02
     28.256  0.7019E+00  0.7019E+00  0.2369E+02  0.2369E+02
     28.653  0.4738E+00  0.4738E+00  0.2389E+02  0.2389E+02
     29.051  0.5560E+00  0.5560E+00  0.2411E+02  0.2411E+02
     29.449  0.4685E+00  0.4685E+00  0.2430E+02  0.2430E+02
     29.846  0.4375E+00  0.4375E+00  0.2449E+02  0.2449E+02
     30.244  0.5330E+00  0.5330E+00  0.2470E+02  0.2470E+02
     30.642  0.7141E+00  0.7141E+00  0.2499E+02  0.2499E+02
     31.040  0.4199E+00  0.4199E+00  0.2516E+02  0.2516E+02
     31.437  0.4410E+00  0.4410E+00  0.2535E+02  0.2535E+02
     31.835  0.5061E+00  0.5061E+00  0.2556E+02  0.2556E+02
     32.233  0.6665E+00  0.6665E+00  0.2583E+02  0.2583E+02
     32.630  0.3018E+00  0.3018E+00  0.2595E+02  0.2595E+02
     33.028  0.2153E+00  0.2153E+00  0.2605E+02  0.2605E+02
     33.426  0.6302E+00  0.6302E+00  0.2630E+02  0.2630E+02
     33.823  0.1901E+00  0.1901E+00  0.2639E+02  0.2639E+02
     34.221  0.2654E+00  0.2654E+00  0.2649E+02  0.2649E+02
     34.619  0.4195E+00  0.4195E+00  0.2666E+02  0.2666E+02
     35.017  0.3774E+00  0.3774E+00  0.2681E+02  0.2681E+02
     35.414  0.4185E+00  0.4185E+00  0.2699E+02  0.2699E+02
     35.812  0.7017E+00  0.7017E+00  0.2728E+02  0.2728E+02
     36.210  0.4714E+00  0.4714E+00  0.2747E+02  0.2747E+02
     36.607  0.4370E+00  0.4370E+00  0.2765E+02  0.2765E+02
     37.005  0.3165E+00  0.3165E+00  0.2777E+02  0.2777E+02
     37.403  0.2200E+00  0.2200E+00  0.2786E+02  0.2786E+02
     37.800  0.3711E+00  0.3711E+00  0.2802E+02  0.2802E+02
     38.198  0.7907E+00  0.7907E+00  0.2833E+02  0.2833E+02
     38.596  0.5018E+00  0.5018E+00  0.2854E+02  0.2854E+02
     38.993  0.6044E+00  0.6044E+00  0.2879E+02  0.2879E+02
     39.391  0.2912E+00  0.2912E+00  0.2891E+02  0.2891E+02
     39.789  0.4940E+00  0.4940E+00  0.2912E+02  0.2912E+02
     40.187  0.6670E+00  0.6670E+00  0.2938E+02  0.2938E+02
     40.584  0.4905E+00  0.4905E+00  0.2959E+02  0.2959E+02
     40.982  0.5947E+00  0.5947E+00  0.2984E+02  0.2984E+02
     41.380  0.4378E+00  0.4378E+00  0.3003E+02  0.3003E+02
     41.777  0.5598E+00  0.5598E+00  0.3026E+02  0.3026E+02
     42.175  0.3839E+00  0.3839E+00  0.3042E+02  0.3042E+02
     42.573  0.6435E+00  0.6435E+00  0.3068E+02  0.3068E+02
     42.970  0.6915E+00  0.6915E+00  0.3096E+02  0.3096E+02
     43.368  0.6661E+00  0.6661E+00  0.3122E+02  0.3122E+02
     43.766  0.4141E+00  0.4141E+00  0.3140E+02  0.3140E+02
     44.164  0.3500E+00  0.3500E+00  0.3155E+02  0.3155E+02
     44.561  0.6030E+00  0.6030E+00  0.3180E+02  0.3180E+02
     44.959  0.3204E+00  0.3204E+00  0.3193E+02  0.3193E+02
     45.357  0.5954E+00  0.5954E+00  0.3216E+02  0.3216E+02
     45.754  0.6912E+00  0.6912E+00  0.3244E+02  0.3244E+02
     46.152  0.5091E+00  0.5091E+00  0.3265E+02  0.3265E+02
     46.550  0.6946E+00  0.6946E+00  0.3293E+02  0.3293E+02
     46.947  0.3635E+00  0.3635E+00  0.3309E+02  0.3309E+02
     47.345  0.7804E+00  0.7804E+00  0.3340E+02  0.3340E+02
     47.743  0.7908E+00  0.7908E+00  0.3373E+02  0.3373E+02
     48.141  0.7438E+00  0.7438E+00  0.3404E+02  0.3404E+02
     48.538  0.4564E+00  0.4564E+00  0.3422E+02  0.3422E+02
     48.936  0.3823E+00  0.3823E+00  0.3438E+02  0.3438E+02
     49.334  0.5370E+00  0.5370E+00  0.3459E+02  0.3459E+02
     49.731  0.6001E+00  0.6001E+00  0.3484E+02  0.3484E+02
     50.129  0.5649E+00  0.5649E+00  0.3506E+02  0.3506E+02
     50.527  0.5554E+00  0.5554E+00  0.3530E+02  0.3530E+02
     50.924  0.4740E+00  0.4740E+00  0.3550E+02  0.3550E+02
     51.322  0.4039E+00  0.4039E+00  0.3566E+02  0.3566E+02
     51.720  0.7594E+00  0.7594E+00  0.3599E+02  0.3599E+02
     52.118  0.5893E+00  0.5893E+00  0.3625E+02  0.3625E+02
     52.515  0.4554E+00  0.4554E+00  0.3643E+02  0.3643E+02
     52.913  0.4576E+00  0.4576E+00  0.3662E+02  0.3662E+02
     53.311  0.6006E+00  0.6006E+00  0.3688E+02  0.3688E+02
     53.708  0.6861E+00  0.6861E+00  0.3716E+02  0.3716E+02
     54.106  0.4998E+00  0.4998E+00  0.3737E+02  0.3737E+02
     54.504  0.4717E+00  0.4717E+00  0.3757E+02  0.3757E+02
     54.901  0.3968E+00  0.3968E+00  0.3773E+02  0.3773E+02
     55.299  0.6196E+00  0.6196E+00  0.3799E+02  0.3799E+02
     55.697  0.4977E+00  0.4977E+00  0.3819E+02  0.3819E+02
     56.094  0.7006E+00  0.7006E+00  0.3848E+02  0.3848E+02
     56.492  0.5823E+00  0.5823E+00  0.3872E+02  0.3872E+02
     56.890  0.8226E+00  0.8226E+00  0.3906E+02  0.3906E+02
     57.288  0.6172E+00  0.6172E+00  0.3931E+02  0.3931E+02
     57.685  0.6955E+00  0.6955E+00  0.3959E+02  0.3959E+02
     58.083  0.9768E+00  0.9768E+00  0.3999E+02  0.3999E+02
     58.481  0.6499E+00  0.6499E+00  0.4025E+02  0.4025E+02
     58.878  0.7270E+00  0.7270E+00  0.4056E+02  0.4056E+02
     59.276  0.9133E+00  0.9133E+00  0.4093E+02  0.4093E+02
     59.674  0.7009E+00  0.7009E+00  0.4123E+02  0.4123E+02
     60.071  0.9348E+00  0.9348E+00  0.4162E+02  0.4162E+02
     60.469  0.8685E+00  0.8685E+00  0.4197E+02  0.4197E+02
     60.867  0.6597E+00  0.6597E+00  0.4224E+02  0.4224E+02
     61.265  0.3267E+00  0.3267E+00  0.4239E+02  0.4239E+02
     61.662  0.5160E+00  0.5160E+00  0.4260E+02  0.4260E+02
     62.060  0.4038E+00  0.4038E+00  0.4277E+02  0.4277E+02
     62.458  0.7369E+00  0.7369E+00  0.4307E+02  0.4307E+02
     62.855  0.5532E+00  0.5532E+00  0.4332E+02  0.4332E+02
     63.253  0.2769E+00  0.2769E+00  0.4344E+02  0.4344E+02
     63.651  0.4819E+00  0.4819E+00  0.4363E+02  0.4363E+02
     64.048  0.5032E+00  0.5032E+00  0.4384E+02  0.4384E+02
     64.446  0.4271E+00  0.4271E+00  0.4401E+02  0.4401E+02
     64.844  0.4414E+00  0.4414E+00  0.4420E+02  0.4420E+02
     65.242  0.4939E+00  0.4939E+00  0.4441E+02  0.4441E+02
     65.639  0.5552E+00  0.5552E+00  0.4464E+02  0.4464E+02
     66.037  0.6482E+00  0.6482E+00  0.4491E+02  0.4491E+02
     66.435  0.5558E+00  0.5558E+00  0.4514E+02  0.4514E+02
     66.832  0.8336E+00  0.8336E+00  0.4547E+02  0.4547E+02
     67.230  0.8199E+00  0.8199E+00  0.4582E+02  0.4582E+02
     67.628  0.6697E+00  0.6697E+00  0.4608E+02  0.4608E+02
     68.025  0.8335E+00  0.8335E+00  0.4642E+02  0.4642E+02
     68.423  0.3921E+00  0.3921E+00  0.4658E+02  0.4658E+02
     68.821  0.5483E+00  0.5483E+00  0.4681E+02  0.4681E+02
     69.218  0.2885E+00  0.2885E+00  0.4693E+02  0.4693E+02
     69.616  0.2890E+00  0.2890E+00  0.4705E+02  0.4705E+02
     70.014  0.3775E+00  0.3775E+00  0.4721E+02  0.4721E+02
     70.412  0.1997E+00  0.1997E+00  0.4729E+02  0.4729E+02
     70.809  0.4758E+00  0.4758E+00  0.4748E+02  0.4748E+02
     71.207  0.2434E+00  0.2434E+00  0.4759E+02  0.4759E+02
     71.605  0.2146E+00  0.2146E+00  0.4769E+02  0.4769E+02
     72.002  0.2184E+00  0.2184E+00  0.4778E+02  0.4778E+02
     72.400  0.1720E+00  0.1720E+00  0.4785E+02  0.4785E+02
     72.798  0.9388E-01  0.9388E-01  0.4789E+02  0.4789E+02
     73.195  0.1665E+00  0.1665E+00  0.4796E+02  0.4796E+02
     73.593  0.1217E-01  0.1217E-01  0.4796E+02  0.4796E+02
     73.991  0.3492E-01  0.3492E-01  0.4798E+02  0.4798E+02
     74.389  0.8730E-02  0.8730E-02  0.4798E+02  0.4798E+02
     74.786  0.3492E-01  0.3492E-01  0.4800E+02  0.4800E+02
     75.184  0.1880E-06  0.1880E-06  0.4800E+02  0.4800E+02
     75.582  0.8731E-02  0.8731E-02  0.4800E+02  0.4800E+02
     75.979  0.0000E+00  0.0000E+00  0.4800E+02  0.4800E+02
     76.377  0.0000E+00  0.0000E+00  0.4800E+02  0.4800E+02
     76.775  0.0000E+00  0.0000E+00  0.4800E+02  0.4800E+02
     77.172  0.0000E+00  0.0000E+00  0.4800E+02  0.4800E+02
     77.570  0.0000E+00  0.0000E+00  0.4800E+02  0.4800E+02
     77.968  0.0000E+00  0.0000E+00  0.4800E+02  0.4800E+02
     78.366  0.0000E+00  0.0000E+00  0.4800E+02  0.4800E+02
     78.763  0.0000E+00  0.0000E+00  0.4800E+02  0.4800E+02
     79.161  0.0000E+00  0.0000E+00  0.4800E+02  0.4800E+02
     79.559  0.0000E+00  0.0000E+00  0.4800E+02  0.4800E+02
     79.956  0.0000E+00  0.0000E+00  0.4800E+02  0.4800E+02
     80.354  0.0000E+00  0.0000E+00  0.4800E+02  0.4800E+02
     80.752  0.0000E+00  0.0000E+00  0.4800E+02  0.4800E+02
     80.75170001    -38.55744982  301     10.61791473      1.00000000
    -38.557  0.0000E+00  0.0000E+00  0.0000E+00  0.0000E+00  0.0000E+00  0.0000E+00  0.0000E+00  0.0000E+00  0.0000E+00  0.0000E+00  0.0000E+00  0.0000E+00  0.0000E+00  0.0000E+00  0.0000E+00  0.0000E+00  0.0000E+00  0.0000E+00
    -38.160  0.0000E+00  0.0000E+00  0.0000E+00  0.0000E+00  0.0000E+00  0.0000E+00  0.0000E+00  0.0000E+00  0.0000E+00  0.0000E+00  0.0000E+00  0.0000E+00  0.0000E+00  0.0000E+00  0.0000E+00  0.0000E+00  0.0000E+00  0.0000E+00
    -37.762  0.0000E+00  0.0000E+00  0.0000E+00  0.0000E+00  0.0000E+00  0.0000E+00  0.0000E+00  0.0000E+00  0.0000E+00  0.0000E+00  0.0000E+00  0.0000E+00  0.0000E+00  0.0000E+00  0.0000E+00  0.0000E+00  0.0000E+00  0.0000E+00
    -37.364  0.0000E+00  0.0000E+00  0.0000E+00  0.0000E+00  0.0000E+00  0.0000E+00  0.0000E+00  0.0000E+00  0.0000E+00  0.0000E+00  0.0000E+00  0.0000E+00  0.0000E+00  0.0000E+00  0.0000E+00  0.0000E+00  0.0000E+00  0.0000E+00
    -36.967  0.0000E+00  0.0000E+00  0.0000E+00  0.0000E+00  0.0000E+00  0.0000E+00  0.0000E+00  0.0000E+00  0.0000E+00  0.0000E+00  0.0000E+00  0.0000E+00  0.0000E+00  0.0000E+00  0.0000E+00  0.0000E+00  0.0000E+00  0.0000E+00
    -36.569  0.0000E+00  0.0000E+00  0.0000E+00  0.0000E+00  0.0000E+00  0.0000E+00  0.0000E+00  0.0000E+00  0.0000E+00  0.0000E+00  0.0000E+00  0.0000E+00  0.0000E+00  0.0000E+00  0.0000E+00  0.0000E+00  0.0000E+00  0.0000E+00
    -36.171  0.0000E+00  0.0000E+00  0.0000E+00  0.0000E+00  0.0000E+00  0.0000E+00  0.0000E+00  0.0000E+00  0.0000E+00  0.0000E+00  0.0000E+00  0.0000E+00  0.0000E+00  0.0000E+00  0.0000E+00  0.0000E+00  0.0000E+00  0.0000E+00
    -35.774  0.0000E+00  0.0000E+00  0.0000E+00  0.0000E+00  0.0000E+00  0.0000E+00  0.0000E+00  0.0000E+00  0.0000E+00  0.0000E+00  0.0000E+00  0.0000E+00  0.0000E+00  0.0000E+00  0.0000E+00  0.0000E+00  0.0000E+00  0.0000E+00
    -35.376  0.0000E+00  0.0000E+00  0.0000E+00  0.0000E+00  0.0000E+00  0.0000E+00  0.0000E+00  0.0000E+00  0.0000E+00  0.0000E+00  0.0000E+00  0.0000E+00  0.0000E+00  0.0000E+00  0.0000E+00  0.0000E+00  0.0000E+00  0.0000E+00
    -34.978  0.0000E+00  0.0000E+00  0.0000E+00  0.0000E+00  0.0000E+00  0.0000E+00  0.0000E+00  0.0000E+00  0.0000E+00  0.0000E+00  0.0000E+00  0.0000E+00  0.0000E+00  0.0000E+00  0.0000E+00  0.0000E+00  0.0000E+00  0.0000E+00
    -34.580  0.0000E+00  0.0000E+00  0.0000E+00  0.0000E+00  0.0000E+00  0.0000E+00  0.0000E+00  0.0000E+00  0.0000E+00  0.0000E+00  0.0000E+00  0.0000E+00  0.0000E+00  0.0000E+00  0.0000E+00  0.0000E+00  0.0000E+00  0.0000E+00
    -34.183  0.0000E+00  0.0000E+00  0.0000E+00  0.0000E+00  0.0000E+00  0.0000E+00  0.0000E+00  0.0000E+00  0.0000E+00  0.0000E+00  0.0000E+00  0.0000E+00  0.0000E+00  0.0000E+00  0.0000E+00  0.0000E+00  0.0000E+00  0.0000E+00
    -33.785  0.0000E+00  0.0000E+00  0.0000E+00  0.0000E+00  0.0000E+00  0.0000E+00  0.0000E+00  0.0000E+00  0.0000E+00  0.0000E+00  0.0000E+00  0.0000E+00  0.0000E+00  0.0000E+00  0.0000E+00  0.0000E+00  0.0000E+00  0.0000E+00
    -33.387  0.4710E-20  0.1257E-18  0.2145E-14  0.2250E-15  0.2145E-14  0.2250E-15  0.2145E-14  0.2250E-15  0.6860E-20  0.4710E-19  0.6860E-20  0.4710E-19  0.6362E-20  0.1475E-19  0.6860E-20  0.4710E-19  0.6362E-20  0.1475E-19
    -32.990  0.5502E-04  0.5949E-03  0.1015E+01  0.5964E-01  0.1015E+01  0.5964E-01  0.1015E+01  0.5964E-01  0.1514E-04  0.2460E-03  0.1514E-04  0.2460E-03  0.3785E-04  0.5812E-04  0.1514E-04  0.2460E-03  0.3785E-04  0.5812E-04
    -32.592  0.6776E-04  0.2848E-03  0.1264E+01  0.2243E-01  0.1264E+01  0.2243E-01  0.1264E+01  0.2243E-01  0.8625E-05  0.5114E-03  0.8625E-05  0.5114E-03  0.3735E-04  0.1153E-04  0.8625E-05  0.5114E-03  0.3735E-04  0.1153E-04
    -32.194  0.0000E+00  0.0000E+00  0.0000E+00  0.0000E+00  0.0000E+00  0.0000E+00  0.0000E+00  0.0000E+00  0.0000E+00  0.0000E+00  0.0000E+00  0.0000E+00  0.0000E+00  0.0000E+00  0.0000E+00  0.0000E+00  0.0000E+00  0.0000E+00
    -31.797  0.4637E-03  0.1031E-04  0.1344E-01  0.4397E+00  0.1344E-01  0.4397E+00  0.1344E-01  0.4397E+00  0.2070E-03  0.5361E-05  0.2070E-03  0.5361E-05  0.2289E-04  0.9225E-05  0.2070E-03  0.5361E-05  0.2289E-04  0.9225E-05
    -31.399  0.4095E-03  0.2194E-04  0.7752E-01  0.1899E+01  0.7752E-01  0.1899E+01  0.7752E-01  0.1899E+01  0.6194E-03  0.1204E-04  0.6194E-03  0.1204E-04  0.2180E-04  0.3971E-04  0.6194E-03  0.1204E-04  0.2180E-04  0.3971E-04
    -31.001  0.0000E+00  0.0000E+00  0.0000E+00  0.0000E+00  0.0000E+00  0.0000E+00  0.0000E+00  0.0000E+00  0.0000E+00  0.0000E+00  0.0000E+00  0.0000E+00  0.0000E+00  0.0000E+00  0.0000E+00  0.0000E+00  0.0000E+00  0.0000E+00
    -30.604  0.0000E+00  0.0000E+00  0.0000E+00  0.0000E+00  0.0000E+00  0.0000E+00  0.0000E+00  0.0000E+00  0.0000E+00  0.0000E+00  0.0000E+00  0.0000E+00  0.0000E+00  0.0000E+00  0.0000E+00  0.0000E+00  0.0000E+00  0.0000E+00
    -30.206  0.0000E+00  0.0000E+00  0.0000E+00  0.0000E+00  0.0000E+00  0.0000E+00  0.0000E+00  0.0000E+00  0.0000E+00  0.0000E+00  0.0000E+00  0.0000E+00  0.0000E+00  0.0000E+00  0.0000E+00  0.0000E+00  0.0000E+00  0.0000E+00
    -29.808  0.0000E+00  0.0000E+00  0.0000E+00  0.0000E+00  0.0000E+00  0.0000E+00  0.0000E+00  0.0000E+00  0.0000E+00  0.0000E+00  0.0000E+00  0.0000E+00  0.0000E+00  0.0000E+00  0.0000E+00  0.0000E+00  0.0000E+00  0.0000E+00
    -29.410  0.0000E+00  0.0000E+00  0.0000E+00  0.0000E+00  0.0000E+00  0.0000E+00  0.0000E+00  0.0000E+00  0.0000E+00  0.0000E+00  0.0000E+00  0.0000E+00  0.0000E+00  0.0000E+00  0.0000E+00  0.0000E+00  0.0000E+00  0.0000E+00
    -29.013  0.0000E+00  0.0000E+00  0.0000E+00  0.0000E+00  0.0000E+00  0.0000E+00  0.0000E+00  0.0000E+00  0.0000E+00  0.0000E+00  0.0000E+00  0.0000E+00  0.0000E+00  0.0000E+00  0.0000E+00  0.0000E+00  0.0000E+00  0.0000E+00
    -28.615  0.0000E+00  0.0000E+00  0.0000E+00  0.0000E+00  0.0000E+00  0.0000E+00  0.0000E+00  0.0000E+00  0.0000E+00  0.0000E+00  0.0000E+00  0.0000E+00  0.0000E+00  0.0000E+00  0.0000E+00  0.0000E+00  0.0000E+00  0.0000E+00
    -28.217  0.0000E+00  0.0000E+00  0.0000E+00  0.0000E+00  0.0000E+00  0.0000E+00  0.0000E+00  0.0000E+00  0.0000E+00  0.0000E+00  0.0000E+00  0.0000E+00  0.0000E+00  0.0000E+00  0.0000E+00  0.0000E+00  0.0000E+00  0.0000E+00
    -27.820  0.0000E+00  0.0000E+00  0.0000E+00  0.0000E+00  0.0000E+00  0.0000E+00  0.0000E+00  0.0000E+00  0.0000E+00  0.0000E+00  0.0000E+00  0.0000E+00  0.0000E+00  0.0000E+00  0.0000E+00  0.0000E+00  0.0000E+00  0.0000E+00
    -27.422  0.0000E+00  0.0000E+00  0.0000E+00  0.0000E+00  0.0000E+00  0.0000E+00  0.0000E+00  0.0000E+00  0.0000E+00  0.0000E+00  0.0000E+00  0.0000E+00  0.0000E+00  0.0000E+00  0.0000E+00  0.0000E+00  0.0000E+00  0.0000E+00
    -27.024  0.0000E+00  0.0000E+00  0.0000E+00  0.0000E+00  0.0000E+00  0.0000E+00  0.0000E+00  0.0000E+00  0.0000E+00  0.0000E+00  0.0000E+00  0.0000E+00  0.0000E+00  0.0000E+00  0.0000E+00  0.0000E+00  0.0000E+00  0.0000E+00
    -26.627  0.0000E+00  0.0000E+00  0.0000E+00  0.0000E+00  0.0000E+00  0.0000E+00  0.0000E+00  0.0000E+00  0.0000E+00  0.0000E+00  0.0000E+00  0.0000E+00  0.0000E+00  0.0000E+00  0.0000E+00  0.0000E+00  0.0000E+00  0.0000E+00
    -26.229  0.0000E+00  0.0000E+00  0.0000E+00  0.0000E+00  0.0000E+00  0.0000E+00  0.0000E+00  0.0000E+00  0.0000E+00  0.0000E+00  0.0000E+00  0.0000E+00  0.0000E+00  0.0000E+00  0.0000E+00  0.0000E+00  0.0000E+00  0.0000E+00
    -25.831  0.0000E+00  0.0000E+00  0.0000E+00  0.0000E+00  0.0000E+00  0.0000E+00  0.0000E+00  0.0000E+00  0.0000E+00  0.0000E+00  0.0000E+00  0.0000E+00  0.0000E+00  0.0000E+00  0.0000E+00  0.0000E+00  0.0000E+00  0.0000E+00
    -25.433  0.0000E+00  0.0000E+00  0.0000E+00  0.0000E+00  0.0000E+00  0.0000E+00  0.0000E+00  0.0000E+00  0.0000E+00  0.0000E+00  0.0000E+00  0.0000E+00  0.0000E+00  0.0000E+00  0.0000E+00  0.0000E+00  0.0000E+00  0.0000E+00
    -25.036  0.0000E+00  0.0000E+00  0.0000E+00  0.0000E+00  0.0000E+00  0.0000E+00  0.0000E+00  0.0000E+00  0.0000E+00  0.0000E+00  0.0000E+00  0.0000E+00  0.0000E+00  0.0000E+00  0.0000E+00  0.0000E+00  0.0000E+00  0.0000E+00
    -24.638  0.0000E+00  0.0000E+00  0.0000E+00  0.0000E+00  0.0000E+00  0.0000E+00  0.0000E+00  0.0000E+00  0.0000E+00  0.0000E+00  0.0000E+00  0.0000E+00  0.0000E+00  0.0000E+00  0.0000E+00  0.0000E+00  0.0000E+00  0.0000E+00
    -24.240  0.0000E+00  0.0000E+00  0.0000E+00  0.0000E+00  0.0000E+00  0.0000E+00  0.0000E+00  0.0000E+00  0.0000E+00  0.0000E+00  0.0000E+00  0.0000E+00  0.0000E+00  0.0000E+00  0.0000E+00  0.0000E+00  0.0000E+00  0.0000E+00
    -23.843  0.0000E+00  0.0000E+00  0.0000E+00  0.0000E+00  0.0000E+00  0.0000E+00  0.0000E+00  0.0000E+00  0.0000E+00  0.0000E+00  0.0000E+00  0.0000E+00  0.0000E+00  0.0000E+00  0.0000E+00  0.0000E+00  0.0000E+00  0.0000E+00
    -23.445  0.0000E+00  0.0000E+00  0.0000E+00  0.0000E+00  0.0000E+00  0.0000E+00  0.0000E+00  0.0000E+00  0.0000E+00  0.0000E+00  0.0000E+00  0.0000E+00  0.0000E+00  0.0000E+00  0.0000E+00  0.0000E+00  0.0000E+00  0.0000E+00
    -23.047  0.0000E+00  0.0000E+00  0.0000E+00  0.0000E+00  0.0000E+00  0.0000E+00  0.0000E+00  0.0000E+00  0.0000E+00  0.0000E+00  0.0000E+00  0.0000E+00  0.0000E+00  0.0000E+00  0.0000E+00  0.0000E+00  0.0000E+00  0.0000E+00
    -22.650  0.0000E+00  0.0000E+00  0.0000E+00  0.0000E+00  0.0000E+00  0.0000E+00  0.0000E+00  0.0000E+00  0.0000E+00  0.0000E+00  0.0000E+00  0.0000E+00  0.0000E+00  0.0000E+00  0.0000E+00  0.0000E+00  0.0000E+00  0.0000E+00
    -22.252  0.0000E+00  0.0000E+00  0.0000E+00  0.0000E+00  0.0000E+00  0.0000E+00  0.0000E+00  0.0000E+00  0.0000E+00  0.0000E+00  0.0000E+00  0.0000E+00  0.0000E+00  0.0000E+00  0.0000E+00  0.0000E+00  0.0000E+00  0.0000E+00
    -21.854  0.0000E+00  0.0000E+00  0.0000E+00  0.0000E+00  0.0000E+00  0.0000E+00  0.0000E+00  0.0000E+00  0.0000E+00  0.0000E+00  0.0000E+00  0.0000E+00  0.0000E+00  0.0000E+00  0.0000E+00  0.0000E+00  0.0000E+00  0.0000E+00
    -21.456  0.0000E+00  0.0000E+00  0.0000E+00  0.0000E+00  0.0000E+00  0.0000E+00  0.0000E+00  0.0000E+00  0.0000E+00  0.0000E+00  0.0000E+00  0.0000E+00  0.0000E+00  0.0000E+00  0.0000E+00  0.0000E+00  0.0000E+00  0.0000E+00
    -21.059  0.0000E+00  0.0000E+00  0.0000E+00  0.0000E+00  0.0000E+00  0.0000E+00  0.0000E+00  0.0000E+00  0.0000E+00  0.0000E+00  0.0000E+00  0.0000E+00  0.0000E+00  0.0000E+00  0.0000E+00  0.0000E+00  0.0000E+00  0.0000E+00
    -20.661  0.0000E+00  0.0000E+00  0.0000E+00  0.0000E+00  0.0000E+00  0.0000E+00  0.0000E+00  0.0000E+00  0.0000E+00  0.0000E+00  0.0000E+00  0.0000E+00  0.0000E+00  0.0000E+00  0.0000E+00  0.0000E+00  0.0000E+00  0.0000E+00
    -20.263  0.0000E+00  0.0000E+00  0.0000E+00  0.0000E+00  0.0000E+00  0.0000E+00  0.0000E+00  0.0000E+00  0.0000E+00  0.0000E+00  0.0000E+00  0.0000E+00  0.0000E+00  0.0000E+00  0.0000E+00  0.0000E+00  0.0000E+00  0.0000E+00
    -19.866  0.0000E+00  0.0000E+00  0.0000E+00  0.0000E+00  0.0000E+00  0.0000E+00  0.0000E+00  0.0000E+00  0.0000E+00  0.0000E+00  0.0000E+00  0.0000E+00  0.0000E+00  0.0000E+00  0.0000E+00  0.0000E+00  0.0000E+00  0.0000E+00
    -19.468  0.0000E+00  0.0000E+00  0.0000E+00  0.0000E+00  0.0000E+00  0.0000E+00  0.0000E+00  0.0000E+00  0.0000E+00  0.0000E+00  0.0000E+00  0.0000E+00  0.0000E+00  0.0000E+00  0.0000E+00  0.0000E+00  0.0000E+00  0.0000E+00
    -19.070  0.0000E+00  0.0000E+00  0.0000E+00  0.0000E+00  0.0000E+00  0.0000E+00  0.0000E+00  0.0000E+00  0.0000E+00  0.0000E+00  0.0000E+00  0.0000E+00  0.0000E+00  0.0000E+00  0.0000E+00  0.0000E+00  0.0000E+00  0.0000E+00
    -18.673  0.0000E+00  0.0000E+00  0.0000E+00  0.0000E+00  0.0000E+00  0.0000E+00  0.0000E+00  0.0000E+00  0.0000E+00  0.0000E+00  0.0000E+00  0.0000E+00  0.0000E+00  0.0000E+00  0.0000E+00  0.0000E+00  0.0000E+00  0.0000E+00