    2    2    1    2
  0.1183231E+02  0.2871000E-09  0.2871000E-09  0.2871000E-09  0.5000000E-15
  1.000000000000000E-004
  CAR 
 Cr                                      
     24     84     48
 
  0.0000000E+00  0.0000000E+00  0.0000000E+00  0.5787037E-03
      1        -32.932360      -32.932360   1.000000   1.000000
      2        -32.932360      -32.932360   1.000000   1.000000
      3        -32.932360      -32.932360   1.000000   1.000000
      4        -31.649949      -31.649949   1.000000   1.000000
      5        -31.649949      -31.649949   1.000000   1.000000
      6        -31.649949      -31.649949   1.000000   1.000000
      7          2.867946        2.867946   1.000000   1.000000
      8          6.485733        6.485733   1.000000   1.000000
      9          6.485733        6.485733   1.000000   1.000000
     10          9.761849        9.761849   1.000000   1.000000
     11          9.761849        9.761849   1.000000   1.000000
     12          9.761849        9.761849   1.000000   1.000000
     13         11.852622       11.852622   0.000000   0.000000
     14         11.852622       11.852622   0.000000   0.000000
     15         13.224743       13.224743   0.000000   0.000000
     16         13.224743       13.224743   0.000000   0.000000
     17         13.224743       13.224743   0.000000   0.000000
     18         17.128350       17.128350   0.000000   0.000000
     19         18.682762       18.682762   0.000000   0.000000
     20         21.040880       21.040880   0.000000   0.000000
     21         21.040880       21.040880   0.000000   0.000000
     22         21.040880       21.040880   0.000000   0.000000
     23         27.700608       27.700608   0.000000   0.000000
     24         27.700608       27.700608   0.000000   0.000000
     25         32.743330       32.743330   0.000000   0.000000
     26         32.743330       32.743330   0.000000   0.000000
     27         32.743330       32.743330   0.000000   0.000000
     28         33.704548       33.704548   0.000000   0.000000
     29         40.026975       40.026975   0.000000   0.000000
     30         40.026975       40.026975   0.000000   0.000000
     31         44.410163       44.410163   0.000000   0.000000
     32         44.410163       44.410163   0.000000   0.000000
     33         44.410163       44.410163   0.000000   0.000000
     34         45.282725       45.282725   0.000000   0.000000
     35         45.282725       45.282725   0.000000   0.000000
     36         45.282725       45.282725   0.000000   0.000000
     37         45.711255       45.711255   0.000000   0.000000
     38         57.523665       57.523665   0.000000   0.000000
     39         57.523665       57.523665   0.000000   0.000000
     40         57.523665       57.523665   0.000000   0.000000
     41         59.494318       59.494318   0.000000   0.000000
     42         59.494318       59.494318   0.000000   0.000000
     43         59.494318       59.494318   0.000000   0.000000
     44         60.654440       60.654440   0.000000   0.000000
     45         69.971669       69.971669   0.000000   0.000000
     46         70.826585       70.826585   0.000000   0.000000
     47         70.826585       70.826585   0.000000   0.000000
     48         70.826585       70.826585   0.000000   0.000000
 
  0.8333333E-01  0.6044102E-32  0.0000000E+00  0.3472222E-02
      1        -32.938357      -32.938357   1.000000   1.000000
      2        -32.927352      -32.927352   1.000000   1.000000
      3        -32.927352      -32.927352   1.000000   1.000000
      4        -31.665674      -31.665674   1.000000   1.000000
      5        -31.653908      -31.653908   1.000000   1.000000
      6        -31.653908      -31.653908   1.000000   1.000000
      7          3.017752        3.017752   1.000000   1.000000
      8          6.561697        6.561697   1.000000   1.000000
      9          6.568285        6.568285   1.000000   1.000000
     10          9.751307        9.751307   1.000000   1.000000
     11          9.751307        9.751307   1.000000   1.000000
     12          9.808873        9.808873   1.000000   1.000000
     13         11.749630       11.749630   0.000000   0.000000
     14         11.891619       11.891619   0.000000   0.000000
     15         13.032545       13.032545   0.000000   0.000000
     16         13.032545       13.032545   0.000000   0.000000
     17         13.166139       13.166139   0.000000   0.000000
     18         17.127931       17.127931   0.000000   0.000000
     19         18.682139       18.682139   0.000000   0.000000
     20         20.313203       20.313203   0.000000   0.000000
     21         21.386864       21.386864   0.000000   0.000000
     22         21.386864       21.386864   0.000000   0.000000
     23         27.708517       27.708517   0.000000   0.000000
     24         28.149227       28.149227   0.000000   0.000000
     25         32.284842       32.284842   0.000000   0.000000
     26         32.837272       32.837272   0.000000   0.000000
     27         32.837272       32.837272   0.000000   0.000000
     28         34.118434       34.118434   0.000000   0.000000
     29         39.031558       39.031558   0.000000   0.000000
     30         40.855021       40.855021   0.000000   0.000000
     31         42.816604       42.816604   0.000000   0.000000
     32         42.816604       42.816604   0.000000   0.000000
     33         44.393280       44.393280   0.000000   0.000000
     34         45.600931       45.600931   0.000000   0.000000
     35         46.056326       46.056326   0.000000   0.000000
     36         47.023217       47.023217   0.000000   0.000000
     37         47.023217       47.023217   0.000000   0.000000
     38         55.728893       55.728893   0.000000   0.000000
     39         55.728893       55.728893   0.000000   0.000000
     40         57.168247       57.168247   0.000000   0.000000
     41         59.924021       59.924021   0.000000   0.000000
     42         60.845232       60.845232   0.000000   0.000000
     43         61.090151       61.090151   0.000000   0.000000
     44         61.090151       61.090151   0.000000   0.000000
     45         69.781803       69.781803   0.000000   0.000000
     46         70.748313       70.748313   0.000000   0.000000
     47         71.111083       71.111083   0.000000   0.000000
     48         71.111083       71.111083   0.000000   0.000000
 
  0.1666667E+00  0.8784336E-32  0.0000000E+00  0.3472222E-02
      1        -32.954167      -32.954167   1.000000   1.000000
      2        -32.913134      -32.913134   1.000000   1.000000
      3        -32.913134      -32.913134   1.000000   1.000000
      4        -31.708224      -31.708224   1.000000   1.000000
      5        -31.664680      -31.664680   1.000000   1.000000
      6        -31.664680      -31.664680   1.000000   1.000000
      7          3.454940        3.454940   1.000000   1.000000
      8          6.786760        6.786760   1.000000   1.000000
      9          6.790619        6.790619   1.000000   1.000000
     10          9.728764        9.728764   1.000000   1.000000
     11          9.728764        9.728764   1.000000   1.000000
     12          9.946355        9.946355   1.000000   1.000000
     13         11.450540       11.450540   0.000000   0.000000
     14         12.001914       12.001914   0.000000   0.000000
     15         12.553888       12.553888   0.000000   0.000000
     16         12.553888       12.553888   0.000000   0.000000
     17         12.997506       12.997506   0.000000   0.000000
     18         17.127228       17.127228   0.000000   0.000000
     19         18.644701       18.644701   0.000000   0.000000
     20         18.753168       18.753168   0.000000   0.000000
     21         22.325557       22.325557   0.000000   0.000000
     22         22.325557       22.325557   0.000000   0.000000
     23         27.737564       27.737564   0.000000   0.000000
     24         28.824285       28.824285   0.000000   0.000000
     25         31.321754       31.321754   0.000000   0.000000
     26         33.003996       33.003996   0.000000   0.000000
     27         33.003996       33.003996   0.000000   0.000000
     28         35.488407       35.488407   0.000000   0.000000
     29         37.030115       37.030115   0.000000   0.000000
     30         41.192570       41.192570   0.000000   0.000000
     31         41.192570       41.192570   0.000000   0.000000
     32         42.917107       42.917107   0.000000   0.000000
     33         44.348055       44.348055   0.000000   0.000000
     34         45.327573       45.327573   0.000000   0.000000
     35         47.436695       47.436695   0.000000   0.000000
     36         49.196787       49.196787   0.000000   0.000000
     37         49.196787       49.196787   0.000000   0.000000
     38         53.168230       53.168230   0.000000   0.000000
     39         53.168230       53.168230   0.000000   0.000000
     40         56.316954       56.316954   0.000000   0.000000
     41         60.832000       60.832000   0.000000   0.000000
     42         61.187889       61.187889   0.000000   0.000000
     43         62.946850       62.946850   0.000000   0.000000
     44         62.946850       62.946850   0.000000   0.000000
     45         68.125107       68.125107   0.000000   0.000000
     46         71.949835       71.949835   0.000000   0.000000
     47         71.949835       71.949835   0.000000   0.000000
     48         72.797095       72.797095   0.000000   0.000000
 
  0.2500000E+00  0.1001223E-31  0.0000000E+00  0.3472222E-02
      1        -32.975211      -32.975211   1.000000   1.000000
      2        -32.893316      -32.893316   1.000000   1.000000
      3        -32.893316      -32.893316   1.000000   1.000000
      4        -31.766465      -31.766465   1.000000   1.000000
      5        -31.679887      -31.679887   1.000000   1.000000
      6        -31.679887      -31.679887   1.000000   1.000000
      7          4.141472        4.141472   1.000000   1.000000
      8          7.073165        7.073165   1.000000   1.000000
      9          7.150011        7.150011   1.000000   1.000000
     10          9.716394        9.716394   1.000000   1.000000
     11          9.716394        9.716394   1.000000   1.000000
     12         10.162468       10.162468   1.000000   1.000000
     13         10.984591       10.984591   0.000000   0.000000
     14         11.969452       11.969452   0.000000   0.000000
     15         11.969452       11.969452   0.000000   0.000000
     16         12.164752       12.164752   0.000000   0.000000
     17         12.738856       12.738856   0.000000   0.000000
     18         16.920824       16.920824   0.000000   0.000000
     19         17.140542       17.140542   0.000000   0.000000
     20         18.685486       18.685486   0.000000   0.000000
     21         23.669889       23.669889   0.000000   0.000000
     22         23.669889       23.669889   0.000000   0.000000
     23         27.797615       27.797615   0.000000   0.000000
     24         29.177239       29.177239   0.000000   0.000000
     25         30.338941       30.338941   0.000000   0.000000
     26         32.866712       32.866712   0.000000   0.000000
     27         32.866712       32.866712   0.000000   0.000000
     28         34.902606       34.902606   0.000000   0.000000
     29         37.792914       37.792914   0.000000   0.000000
     30         40.278305       40.278305   0.000000   0.000000
     31         40.278305       40.278305   0.000000   0.000000
     32         44.289319       44.289319   0.000000   0.000000
     33         44.992057       44.992057   0.000000   0.000000
     34         45.692662       45.692662   0.000000   0.000000
     35         48.668427       48.668427   0.000000   0.000000
     36         50.564414       50.564414   0.000000   0.000000
     37         50.564414       50.564414   0.000000   0.000000
     38         51.429697       51.429697   0.000000   0.000000
     39         51.429697       51.429697   0.000000   0.000000
     40         55.310214       55.310214   0.000000   0.000000
     41         59.139436       59.139436   0.000000   0.000000
     42         63.148246       63.148246   0.000000   0.000000
     43         63.759087       63.759087   0.000000   0.000000
     44         63.759087       63.759087   0.000000   0.000000
     45         68.158601       68.158601   0.000000   0.000000
     46         69.385199       69.385199   0.000000   0.000000
     47         73.120104       73.120104   0.000000   0.000000
     48         73.120104       73.120104   0.000000   0.000000
 
  0.3333333E+00  0.1470957E-31  0.0000000E+00  0.3472222E-02
      1        -32.995822      -32.995822   1.000000   1.000000
      2        -32.873005      -32.873005   1.000000   1.000000
      3        -32.873005      -32.873005   1.000000   1.000000
      4        -31.824979      -31.824979   1.000000   1.000000
      5        -31.695730      -31.695730   1.000000   1.000000
      6        -31.695730      -31.695730   1.000000   1.000000
      7          5.006014        5.006014   1.000000   1.000000
      8          7.275924        7.275924   1.000000   1.000000
      9          7.630231        7.630231   1.000000   1.000000
     10          9.737410        9.737410   1.000000   1.000000
     11          9.737410        9.737410   1.000000   1.000000
     12         10.399879       10.399879   1.000000   1.000000
     13         10.432501       10.432501   1.000000   1.000000
     14         11.420933       11.420933   0.000000   0.000000
     15         11.420933       11.420933   0.000000   0.000000
     16         12.359482       12.359482   0.000000   0.000000
     17         12.426342       12.426342   0.000000   0.000000
     18         15.315228       15.315228   0.000000   0.000000
     19         17.130067       17.130067   0.000000   0.000000
     20         18.684615       18.684615   0.000000   0.000000
     21         25.269143       25.269143   0.000000   0.000000
     22         25.269143       25.269143   0.000000   0.000000
     23         27.904567       27.904567   0.000000   0.000000
     24         29.371387       29.371387   0.000000   0.000000
     25         29.522019       29.522019   0.000000   0.000000
     26         32.023822       32.023822   0.000000   0.000000
     27         32.023822       32.023822   0.000000   0.000000
     28         32.982444       32.982444   0.000000   0.000000
     29         40.470062       40.470062   0.000000   0.000000
     30         40.470062       40.470062   0.000000   0.000000
     31         40.715028       40.715028   0.000000   0.000000
     32         44.238943       44.238943   0.000000   0.000000
     33         44.689053       44.689053   0.000000   0.000000
     34         48.025834       48.025834   0.000000   0.000000
     35         48.025834       48.025834   0.000000   0.000000
     36         48.944136       48.944136   0.000000   0.000000
     37         49.549945       49.549945   0.000000   0.000000
     38         53.705010       53.705010   0.000000   0.000000
     39         53.705010       53.705010   0.000000   0.000000
     40         54.328186       54.328186   0.000000   0.000000
     41         56.103997       56.103997   0.000000   0.000000
     42         62.841263       62.841263   0.000000   0.000000
     43         62.841263       62.841263   0.000000   0.000000
     44         65.072636       65.072636   0.000000   0.000000
     45         65.679272       65.679272   0.000000   0.000000
     46         69.718366       69.718366   0.000000   0.000000
     47         73.574948       73.574948   0.000000   0.000000
     48         73.574948       73.574948   0.000000   0.000000
 
  0.4166667E+00  0.2226601E-31  0.0000000E+00  0.3472222E-02
      1        -33.010317      -33.010317   1.000000   1.000000
      2        -32.857617      -32.857617   1.000000   1.000000
      3        -32.857617      -32.857617   1.000000   1.000000
      4        -31.867735      -31.867735   1.000000   1.000000
      5        -31.707485      -31.707485   1.000000   1.000000
      6        -31.707485      -31.707485   1.000000   1.000000
      7          5.925501        5.925501   1.000000   1.000000
      8          7.217741        7.217741   1.000000   1.000000
      9          8.180194        8.180194   1.000000   1.000000
     10          9.773166        9.773166   1.000000   1.000000
     11          9.793934        9.793934   1.000000   1.000000
     12          9.793934        9.793934   1.000000   1.000000
     13         10.701128       10.701128   0.009296   0.009296
     14         11.011046       11.011046   0.000000   0.000000
     15         11.011046       11.011046   0.000000   0.000000
     16         12.126730       12.126730   0.000000   0.000000
     17         12.580056       12.580056   0.000000   0.000000
     18         14.096331       14.096331   0.000000   0.000000
     19         17.129619       17.129619   0.000000   0.000000
     20         18.684423       18.684423   0.000000   0.000000
     21         27.017886       27.017886   0.000000   0.000000
     22         27.017886       27.017886   0.000000   0.000000
     23         28.073995       28.073995   0.000000   0.000000
     24         28.919098       28.919098   0.000000   0.000000
     25         29.691359       29.691359   0.000000   0.000000
     26         30.565390       30.565390   0.000000   0.000000
     27         30.565390       30.565390   0.000000   0.000000
     28         31.437834       31.437834   0.000000   0.000000
     29         41.646288       41.646288   0.000000   0.000000
     30         41.646288       41.646288   0.000000   0.000000
     31         43.972196       43.972196   0.000000   0.000000
     32         44.218580       44.218580   0.000000   0.000000
     33         44.468458       44.468458   0.000000   0.000000
     34         45.630406       45.630406   0.000000   0.000000
     35         45.630406       45.630406   0.000000   0.000000
     36         49.550932       49.550932   0.000000   0.000000
     37         52.572310       52.572310   0.000000   0.000000
     38         53.335118       53.335118   0.000000   0.000000
     39         53.498550       53.498550   0.000000   0.000000
     40         56.046271       56.046271   0.000000   0.000000
     41         56.046271       56.046271   0.000000   0.000000
     42         60.708919       60.708919   0.000000   0.000000
     43         60.811608       60.811608   0.000000   0.000000
     44         60.811608       60.811608   0.000000   0.000000
     45         68.665593       68.665593   0.000000   0.000000
     46         71.487698       71.487698   0.000000   0.000000
     47         74.124171       74.124171   0.000000   0.000000
     48         75.328557       75.328557   0.000000   0.000000
 
  0.5000000E+00  0.2002445E-31  0.0000000E+00  0.1736111E-02
      1        -33.015502      -33.015502   1.000000   1.000000
      2        -32.851852      -32.851852   1.000000   1.000000
      3        -32.851852      -32.851852   1.000000   1.000000
      4        -31.883379      -31.883379   1.000000   1.000000
      5        -31.711849      -31.711849   1.000000   1.000000
      6        -31.711849      -31.711849   1.000000   1.000000
      7          6.600000        6.600000   1.000000   1.000000
      8          6.878555        6.878555   1.000000   1.000000
      9          8.556049        8.556049   1.000000   1.000000
     10          9.368874        9.368874   1.000000   1.000000
     11          9.832168        9.832168   1.000000   1.000000
     12          9.832168        9.832168   1.000000   1.000000
     13         10.833306       10.833306   0.000000   0.000000
     14         10.849176       10.849176   0.000000   0.000000
     15         10.849176       10.849176   0.000000   0.000000
     16         11.983496       11.983496   0.000000   0.000000
     17         12.747909       12.747909   0.000000   0.000000
     18         13.563552       13.563552   0.000000   0.000000
     19         17.129599       17.129599   0.000000   0.000000
     20         18.684366       18.684366   0.000000   0.000000
     21         28.229746       28.229746   0.000000   0.000000
     22         28.617343       28.617343   0.000000   0.000000
     23         28.805043       28.805043   0.000000   0.000000
     24         28.805043       28.805043   0.000000   0.000000
     25         28.843209       28.843209   0.000000   0.000000
     26         28.843209       28.843209   0.000000   0.000000
     27         30.297467       30.297467   0.000000   0.000000
     28         30.390723       30.390723   0.000000   0.000000
     29         43.267214       43.267214   0.000000   0.000000
     30         43.267214       43.267214   0.000000   0.000000
     31         43.638841       43.638841   0.000000   0.000000
     32         43.638841       43.638841   0.000000   0.000000
     33         44.225663       44.225663   0.000000   0.000000
     34         44.386219       44.386219   0.000000   0.000000
     35         47.242021       47.242021   0.000000   0.000000
     36         47.287173       47.287173   0.000000   0.000000
     37         52.697756       52.697756   0.000000   0.000000
     38         52.991732       52.991732   0.000000   0.000000
     39         56.501096       56.501096   0.000000   0.000000
     40         56.524226       56.524226   0.000000   0.000000
     41         58.264608       58.264608   0.000000   0.000000
     42         58.264608       58.264608   0.000000   0.000000
     43         58.623898       58.623898   0.000000   0.000000
     44         58.623898       58.623898   0.000000   0.000000
     45         72.024244       72.024244   0.000000   0.000000
     46         72.030477       72.030477   0.000000   0.000000
     47         72.897941       72.897941   0.000000   0.000000
     48         72.966334       72.966334   0.000000   0.000000
 
  0.8333333E-01  0.8333333E-01  0.0000000E+00  0.6944444E-02
      1        -32.945557      -32.945557   1.000000   1.000000
      2        -32.922455      -32.922455   1.000000   1.000000
      3        -32.922332      -32.922332   1.000000   1.000000
      4        -31.682057      -31.682057   1.000000   1.000000
      5        -31.657500      -31.657500   1.000000   1.000000
      6        -31.655247      -31.655247   1.000000   1.000000
      7          3.165100        3.165100   1.000000   1.000000
      8          6.636160        6.636160   1.000000   1.000000
      9          6.650531        6.650531   1.000000   1.000000
     10          9.652923        9.652923   1.000000   1.000000
     11          9.732664        9.732664   1.000000   1.000000
     12          9.940421        9.940421   1.000000   1.000000
     13         11.732893       11.732893   0.000000   0.000000
     14         11.860829       11.860829   0.000000   0.000000
     15         12.735496       12.735496   0.000000   0.000000
     16         12.843330       12.843330   0.000000   0.000000
     17         13.244778       13.244778   0.000000   0.000000
     18         17.127974       17.127974   0.000000   0.000000
     19         18.682015       18.682015   0.000000   0.000000
     20         20.420819       20.420819   0.000000   0.000000
     21         20.851344       20.851344   0.000000   0.000000
     22         21.704660       21.704660   0.000000   0.000000
     23         27.925899       27.925899   0.000000   0.000000
     24         28.467567       28.467567   0.000000   0.000000
     25         32.016731       32.016731   0.000000   0.000000
     26         32.626642       32.626642   0.000000   0.000000
     27         32.940597       32.940597   0.000000   0.000000
     28         34.494703       34.494703   0.000000   0.000000
     29         39.172329       39.172329   0.000000   0.000000
     30         40.589799       40.589799   0.000000   0.000000
     31         41.810571       41.810571   0.000000   0.000000
     32         42.188976       42.188976   0.000000   0.000000
     33         44.763578       44.763578   0.000000   0.000000
     34         45.438349       45.438349   0.000000   0.000000
     35         47.022935       47.022935   0.000000   0.000000
     36         47.640101       47.640101   0.000000   0.000000
     37         47.784052       47.784052   0.000000   0.000000
     38         54.128158       54.128158   0.000000   0.000000
     39         55.196190       55.196190   0.000000   0.000000
     40         58.021903       58.021903   0.000000   0.000000
     41         59.218952       59.218952   0.000000   0.000000
     42         61.101868       61.101868   0.000000   0.000000
     43         61.319551       61.319551   0.000000   0.000000
     44         62.642381       62.642381   0.000000   0.000000
     45         69.505826       69.505826   0.000000   0.000000
     46         70.533983       70.533983   0.000000   0.000000
     47         71.385516       71.385516   0.000000   0.000000
     48         71.505419       71.505419   0.000000   0.000000
 
  0.1666667E+00  0.8333333E-01  0.0000000E+00  0.1388889E-01
      1        -32.962309      -32.962309   1.000000   1.000000
      2        -32.911590      -32.911590   1.000000   1.000000
      3        -32.908958      -32.908958   1.000000   1.000000
      4        -31.721129      -31.721129   1.000000   1.000000
      5        -31.667444      -31.667444   1.000000   1.000000
      6        -31.664423      -31.664423   1.000000   1.000000
      7          3.594456        3.594456   1.000000   1.000000
      8          6.844108        6.844108   1.000000   1.000000
      9          6.882026        6.882026   1.000000   1.000000
     10          9.563283        9.563283   1.000000   1.000000
     11          9.687133        9.687133   1.000000   1.000000
     12         10.130889       10.130889   1.000000   1.000000
     13         11.497902       11.497902   0.000000   0.000000
     14         11.953558       11.953558   0.000000   0.000000
     15         12.231978       12.231978   0.000000   0.000000
     16         12.378131       12.378131   0.000000   0.000000
     17         13.176764       13.176764   0.000000   0.000000
     18         17.127487       17.127487   0.000000   0.000000
     19         18.674679       18.674679   0.000000   0.000000
     20         18.948560       18.948560   0.000000   0.000000
     21         21.563882       21.563882   0.000000   0.000000
     22         22.582586       22.582586   0.000000   0.000000
     23         28.029915       28.029915   0.000000   0.000000
     24         29.249859       29.249859   0.000000   0.000000
     25         31.031490       31.031490   0.000000   0.000000
     26         32.510958       32.510958   0.000000   0.000000
     27         33.137240       33.137240   0.000000   0.000000
     28         35.764550       35.764550   0.000000   0.000000
     29         37.822755       37.822755   0.000000   0.000000
     30         40.339592       40.339592   0.000000   0.000000
     31         40.580643       40.580643   0.000000   0.000000
     32         42.686821       42.686821   0.000000   0.000000
     33         44.967989       44.967989   0.000000   0.000000
     34         45.026281       45.026281   0.000000   0.000000
     35         48.287882       48.287882   0.000000   0.000000
     36         49.438550       49.438550   0.000000   0.000000
     37         49.525933       49.525933   0.000000   0.000000
     38         51.862984       51.862984   0.000000   0.000000
     39         53.475221       53.475221   0.000000   0.000000
     40         57.685294       57.685294   0.000000   0.000000
     41         59.755545       59.755545   0.000000   0.000000
     42         61.321624       61.321624   0.000000   0.000000
     43         62.474706       62.474706   0.000000   0.000000
     44         64.534011       64.534011   0.000000   0.000000
     45         67.888777       67.888777   0.000000   0.000000
     46         71.079640       71.079640   0.000000   0.000000
     47         72.195614       72.195614   0.000000   0.000000
     48         72.466832       72.466832   0.000000   0.000000
 
  0.2500000E+00  0.8333333E-01  0.0000000E+00  0.1388889E-01
      1        -32.983640      -32.983640   1.000000   1.000000
      2        -32.898233      -32.898233   1.000000   1.000000
      3        -32.890146      -32.890146   1.000000   1.000000
      4        -31.772147      -31.772147   1.000000   1.000000
      5        -31.681450      -31.681450   1.000000   1.000000
      6        -31.679320      -31.679320   1.000000   1.000000
      7          4.266363        4.266363   1.000000   1.000000
      8          7.131201        7.131201   1.000000   1.000000
      9          7.222698        7.222698   1.000000   1.000000
     10          9.515658        9.515658   1.000000   1.000000
     11          9.634670        9.634670   1.000000   1.000000
     12         10.335295       10.335295   1.000000   1.000000
     13         11.099166       11.099166   0.000000   0.000000
     14         11.706729       11.706729   0.000000   0.000000
     15         11.829517       11.829517   0.000000   0.000000
     16         12.124987       12.124987   0.000000   0.000000
     17         12.965698       12.965698   0.000000   0.000000
     18         17.084532       17.084532   0.000000   0.000000
     19         17.177620       17.177620   0.000000   0.000000
     20         18.685158       18.685158   0.000000   0.000000
     21         22.756264       22.756264   0.000000   0.000000
     22         23.867197       23.867197   0.000000   0.000000
     23         28.125528       28.125528   0.000000   0.000000