       N       E                     dE             d eps       ncg     rms          rms(c)
DAV:   1    -0.190537680599E+02   -0.19054E+02   -0.28994E-05  8256   0.121E-02    0.184E-02
DAV:   2    -0.190537723314E+02   -0.42715E-05   -0.30075E-05  8064   0.110E-02
   1 F= -.19053772E+02 E0= -.19053367E+02  d E =-.810870E-03  mag=     0.0000
