 vasp.6.4.3 19Mar24 (build Jun 26 2024 13:02:28) complex                        
  
 executed on             LinuxIFC date 2025.07.29  17:53:20
 running   48 mpi-ranks, on    4 nodes
 distrk:  each k-point on   48 cores,    1 groups
 distr:  one band on NCORE=   1 cores,   48 groups


--------------------------------------------------------------------------------------------------------


 INCAR:
   ENCUT = 345.3853
   IBRION = -1
   ISMEAR = 0
   ISPIN = 2
   ISYM = 2
   LCHARG = True
   LWAVE = True
   LORBIT = 11
   MAGMOM = 1*3.0 1*-3.0
   SIGMA = 0.05
   SYSTEM = Cr

 POTCAR:  PAW_PBE Cr_pv 02Aug2007                 
 -----------------------------------------------------------------------------
|                                                                             |
|           W    W    AA    RRRRR   N    N  II  N    N   GGGG   !!!           |
|           W    W   A  A   R    R  NN   N  II  NN   N  G    G  !!!           |
|           W    W  A    A  R    R  N N  N  II  N N  N  G       !!!           |
|           W WW W  AAAAAA  RRRRR   N  N N  II  N  N N  G  GGG   !            |
|           WW  WW  A    A  R   R   N   NN  II  N   NN  G    G                |
|           W    W  A    A  R    R  N    N  II  N    N   GGGG   !!!           |
|                                                                             |
|     For optimal performance we recommend to set                             |
|       NCORE = 2 up to number-of-cores-per-socket                            |
|     NCORE specifies how many cores store one orbital (NPAR=cpu/NCORE).      |
|     This setting can greatly improve the performance of VASP for DFT.       |
|     The default, NCORE=1 might be grossly inefficient on modern             |
|     multi-core architectures or massively parallel machines. Do your        |
|     own testing! More info at https://www.vasp.at/wiki/index.php/NCORE      |
|     Unfortunately you need to use the default for GW and RPA                |
|     calculations (for HF NCORE is supported but not extensively tested      |
|     yet).                                                                   |
|                                                                             |
 -----------------------------------------------------------------------------

 POTCAR:  PAW_PBE Cr_pv 02Aug2007                 
   VRHFIN =Cr : p6d5s1                                                                              
   LEXCH  = PE                                                                                      
   EATOM  =  1647.9177 eV,  121.1185 Ry                                                             
                                                                                                    
   TITEL  = PAW_PBE Cr_pv 02Aug2007                                                                 
   LULTRA =        F    use ultrasoft PP ?                                                          
   IUNSCR =        1    unscreen: 0-lin 1-nonlin 2-no                                               
   RPACOR =    2.080    partial core radius                                                         
   POMASS =   51.996; ZVAL   =   12.000    mass and valenz                                          
   RCORE  =    2.300    outmost cutoff radius                                                       
   RWIGS  =    2.500; RWIGS  =    1.323    wigner-seitz radius (au A)                               
   ENMAX  =  265.681; ENMIN  =  199.261 eV                                                          
   ICORE  =        3    local potential                                                             
   LCOR   =        T    correct aug charges                                                         
   LPAW   =        T    paw PP                                                                      
   EAUG   =  519.424                                                                                
   DEXC   =    0.000                                                                                
   RMAX   =    2.356    core radius for proj-oper                                                   
   RAUG   =    1.300    factor for augmentation sphere                                              
   RDEP   =    2.447    radius for radial grids                                                     
   RDEPT  =    1.882    core radius for aug-charge                                                  
                                                                                                    
   Atomic configuration                                                                             
    8 entries                                                                                       
     n  l   j            E        occ.                                                              
     1  0  0.50     -5880.4963   2.0000                                                             
     2  0  0.50      -667.0865   2.0000                                                             
     2  1  1.50      -560.6250   6.0000                                                             
     3  0  0.50       -73.9860   2.0000                                                             
     3  1  1.50       -45.4378   6.0000                                                             
     3  2  2.50        -2.9137   5.0000                                                             
     4  0  0.50        -4.0071   1.0000                                                             
     4  3  2.50        -1.3606   0.0000                                                             
   Description                                                                                      
     l       E           TYP  RCUT    TYP  RCUT                                                     
     1    -45.4377911     23  2.000                                                                 
     1      1.3605826     23  2.000                                                                 
     2     -2.9136672     23  2.300                                                                 
     2     -4.2742498     23  2.300                                                                 
     0     -4.0071320     23  2.300                                                                 
     0      9.4498803     23  2.300                                                                 
     3      2.7211652     23  2.300                                                                 
  local pseudopotential read in
  partial core-charges read in
  partial kinetic energy density read in
  atomic valenz-charges read in
  non local Contribution for L=           1  read in
    real space projection operators read in
  non local Contribution for L=           1  read in
    real space projection operators read in
  non local Contribution for L=           2  read in
    real space projection operators read in
  non local Contribution for L=           2  read in
    real space projection operators read in
  non local Contribution for L=           0  read in
    real space projection operators read in
  non local Contribution for L=           0  read in
    real space projection operators read in
    PAW grid and wavefunctions read in
 
   number of l-projection  operators is LMAX  =           6
   number of lm-projection operators is LMMAX =          18
 
PAW_PBE Cr_pv 02Aug2007                 :
 energy of atom  1       EATOM=-1647.9177
 kinetic energy error for atom=    0.0541 (will be added to EATOM!!)
 
 
 POSCAR: Cr2
  positions in direct lattice
  No initial velocities read in


 exchange-correlation table for PE
   RHO(1)=    0.500       N(1)  =     2000
   RHO(2)=  100.500       N(2)  =     4000
 


--------------------------------------------------------------------------------------------------------


 ion  position               nearest neighbor table
   1  0.000  0.000  0.000-   2 2.49   2 2.49   2 2.49   2 2.49   2 2.49   2 2.49   2 2.49   2 2.49

   2  0.500  0.500  0.500-   1 2.49   1 2.49   1 2.49   1 2.49   1 2.49   1 2.49   1 2.49   1 2.49

 
  LATTYP: Found a simple cubic cell.
 ALAT       =     2.8710000000
  
  Lattice vectors:
  
 A1 = (   2.8710000000,   0.0000000000,   0.0000000000)
 A2 = (   0.0000000000,   2.8710000000,   0.0000000000)
 A3 = (   0.0000000000,   0.0000000000,   2.8710000000)


Analysis of symmetry for initial positions (statically):
=====================================================================
 Subroutine PRICEL returns following result:
 
  LATTYP: Found a body centered cubic cell.
 ALAT       =     2.8710000000
  
  Lattice vectors:
  
 A1 = (   1.4355000000,   1.4355000000,  -1.4355000000)
 A2 = (  -1.4355000000,   1.4355000000,   1.4355000000)
 A3 = (   1.4355000000,  -1.4355000000,   1.4355000000)
 
   2 primitive cells build up your supercell.
 

 Routine SETGRP: Setting up the symmetry group for a 
 simple cubic supercell.


 Subroutine GETGRP returns: Found 48 space group operations
 (whereof 48 operations were pure point group operations)
 out of a pool of 48 trial point group operations.


The static configuration has the point symmetry O_h .


Analysis of symmetry for dynamics (positions and initial velocities):
=====================================================================
 Subroutine PRICEL returns following result:
 
  LATTYP: Found a body centered cubic cell.
 ALAT       =     2.8710000000
  
  Lattice vectors:
  
 A1 = (   1.4355000000,   1.4355000000,  -1.4355000000)
 A2 = (  -1.4355000000,   1.4355000000,   1.4355000000)
 A3 = (   1.4355000000,  -1.4355000000,   1.4355000000)
 
   2 primitive cells build up your supercell.
 

 Routine SETGRP: Setting up the symmetry group for a 
 simple cubic supercell.


 Subroutine GETGRP returns: Found 48 space group operations
 (whereof 48 operations were pure point group operations)
 out of a pool of 48 trial point group operations.


The dynamic configuration has the point symmetry O_h .


Analysis of structural, dynamic, and magnetic symmetry:
=====================================================================
 Subroutine PRICEL returns following result:
 
  LATTYP: Found a body centered cubic cell.
 ALAT       =     2.8710000000
  
  Lattice vectors:
  
 A1 = (   1.4355000000,   1.4355000000,  -1.4355000000)
 A2 = (  -1.4355000000,   1.4355000000,   1.4355000000)
 A3 = (   1.4355000000,  -1.4355000000,   1.4355000000)
 
   2 primitive cells build up your supercell.
 

 Routine SETGRP: Setting up the symmetry group for a 
 simple cubic supercell.


 Subroutine GETGRP returns: Found 48 space group operations
 (whereof 48 operations were pure point group operations)
 out of a pool of 48 trial point group operations.


The overall configuration has the point symmetry O_h .


 Subroutine INISYM returns: Found 48 space group operations
 (whereof 48 operations are pure point group operations),
 and found     2 'primitive' translations


----------------------------------------------------------------------------------------

                                     Primitive cell                                     

  volume of cell :      11.8323

  direct lattice vectors                    reciprocal lattice vectors
     1.435500000  1.435500000 -1.435500000     0.348310693  0.348310693  0.000000000
    -1.435500000  1.435500000  1.435500000    -0.000000000  0.348310693  0.348310693
     1.435500000 -1.435500000  1.435500000     0.348310693 -0.000000000  0.348310693

  length of vectors
     2.486358934  2.486358934  2.486358934     0.492585706  0.492585706  0.492585706

  position of ions in fractional coordinates (direct lattice)
     0.000000000  0.000000000  0.000000000

  ion indices of the primitive-cell ions
   primitive index   ion index
                 1           1

----------------------------------------------------------------------------------------

 
 
 KPOINTS: Automatic kpoint scheme                 

Automatic generation of k-mesh.
 Grid dimensions read from file:
 generate k-points for:   12   12   12

 Generating k-lattice:

  Cartesian coordinates                     Fractional coordinates (reciprocal lattice)
     0.029025891 -0.000000000  0.000000000     0.083333333  0.000000000  0.000000000
     0.000000000  0.029025891  0.000000000     0.000000000  0.083333333  0.000000000
    -0.000000000 -0.000000000  0.029025891     0.000000000  0.000000000  0.083333333

  Length of vectors
     0.029025891  0.029025891  0.029025891

  Shift w.r.t. Gamma in fractional coordinates (k-lattice)
     0.000000000  0.000000000  0.000000000

 
 Subroutine IBZKPT returns following result:
 ===========================================
 
 Found     84 irreducible k-points:
 
 Following reciprocal coordinates:
            Coordinates               Weight
  0.000000  0.000000  0.000000      1.000000
  0.083333  0.000000  0.000000      6.000000
  0.166667  0.000000  0.000000      6.000000
  0.250000  0.000000  0.000000      6.000000
  0.333333  0.000000  0.000000      6.000000
  0.416667  0.000000  0.000000      6.000000
  0.500000  0.000000  0.000000      3.000000
  0.083333  0.083333  0.000000     12.000000
  0.166667  0.083333  0.000000     24.000000
  0.250000  0.083333  0.000000     24.000000
  0.333333  0.083333  0.000000     24.000000
  0.416667  0.083333  0.000000     24.000000
  0.500000  0.083333  0.000000     12.000000
  0.166667  0.166667  0.000000     12.000000
  0.250000  0.166667  0.000000     24.000000
  0.333333  0.166667  0.000000     24.000000
  0.416667  0.166667  0.000000     24.000000
  0.500000  0.166667  0.000000     12.000000
  0.250000  0.250000  0.000000     12.000000
  0.333333  0.250000  0.000000     24.000000
  0.416667  0.250000  0.000000     24.000000
  0.500000  0.250000  0.000000     12.000000
  0.333333  0.333333  0.000000     12.000000
  0.416667  0.333333  0.000000     24.000000
  0.500000  0.333333  0.000000     12.000000
  0.416667  0.416667  0.000000     12.000000
  0.500000  0.416667  0.000000     12.000000
  0.500000  0.500000  0.000000      3.000000
  0.083333  0.083333  0.083333      8.000000
  0.166667  0.083333  0.083333     24.000000
  0.250000  0.083333  0.083333     24.000000
  0.333333  0.083333  0.083333     24.000000
  0.416667  0.083333  0.083333     24.000000
  0.500000  0.083333  0.083333     12.000000
  0.166667  0.166667  0.083333     24.000000
  0.250000  0.166667  0.083333     48.000000
  0.333333  0.166667  0.083333     48.000000
  0.416667  0.166667  0.083333     48.000000
  0.500000  0.166667  0.083333     24.000000
  0.250000  0.250000  0.083333     24.000000
  0.333333  0.250000  0.083333     48.000000
  0.416667  0.250000  0.083333     48.000000
  0.500000  0.250000  0.083333     24.000000
  0.333333  0.333333  0.083333     24.000000
  0.416667  0.333333  0.083333     48.000000
  0.500000  0.333333  0.083333     24.000000
  0.416667  0.416667  0.083333     24.000000
  0.500000  0.416667  0.083333     24.000000
  0.500000  0.500000  0.083333      6.000000
  0.166667  0.166667  0.166667      8.000000
  0.250000  0.166667  0.166667     24.000000
  0.333333  0.166667  0.166667     24.000000
  0.416667  0.166667  0.166667     24.000000
  0.500000  0.166667  0.166667     12.000000
  0.250000  0.250000  0.166667     24.000000
  0.333333  0.250000  0.166667     48.000000
  0.416667  0.250000  0.166667     48.000000
  0.500000  0.250000  0.166667     24.000000
  0.333333  0.333333  0.166667     24.000000
  0.416667  0.333333  0.166667     48.000000
  0.500000  0.333333  0.166667     24.000000
  0.416667  0.416667  0.166667     24.000000
  0.500000  0.416667  0.166667     24.000000
  0.500000  0.500000  0.166667      6.000000
  0.250000  0.250000  0.250000      8.000000
  0.333333  0.250000  0.250000     24.000000
  0.416667  0.250000  0.250000     24.000000
  0.500000  0.250000  0.250000     12.000000
  0.333333  0.333333  0.250000     24.000000
  0.416667  0.333333  0.250000     48.000000
  0.500000  0.333333  0.250000     24.000000
  0.416667  0.416667  0.250000     24.000000
  0.500000  0.416667  0.250000     24.000000
  0.500000  0.500000  0.250000      6.000000
  0.333333  0.333333  0.333333      8.000000
  0.416667  0.333333  0.333333     24.000000
  0.500000  0.333333  0.333333     12.000000
  0.416667  0.416667  0.333333     24.000000
  0.500000  0.416667  0.333333     24.000000
  0.500000  0.500000  0.333333      6.000000
  0.416667  0.416667  0.416667      8.000000
  0.500000  0.416667  0.416667     12.000000
  0.500000  0.500000  0.416667      6.000000
  0.500000  0.500000  0.500000      1.000000
 
 Following cartesian coordinates:
            Coordinates               Weight
  0.000000  0.000000  0.000000      1.000000
  0.029026 -0.000000  0.000000      6.000000
  0.058052 -0.000000  0.000000      6.000000
  0.087078 -0.000000  0.000000      6.000000
  0.116104 -0.000000  0.000000      6.000000
  0.145129 -0.000000  0.000000      6.000000
  0.174155 -0.000000  0.000000      3.000000
  0.029026  0.029026  0.000000     12.000000
  0.058052  0.029026  0.000000     24.000000
  0.087078  0.029026  0.000000     24.000000
  0.116104  0.029026  0.000000     24.000000
  0.145129  0.029026  0.000000     24.000000
  0.174155  0.029026  0.000000     12.000000
  0.058052  0.058052  0.000000     12.000000
  0.087078  0.058052  0.000000     24.000000
  0.116104  0.058052  0.000000     24.000000
  0.145129  0.058052  0.000000     24.000000
  0.174155  0.058052  0.000000     12.000000
  0.087078  0.087078  0.000000     12.000000
  0.116104  0.087078  0.000000     24.000000
  0.145129  0.087078  0.000000     24.000000
  0.174155  0.087078  0.000000     12.000000
  0.116104  0.116104  0.000000     12.000000
  0.145129  0.116104  0.000000     24.000000
  0.174155  0.116104  0.000000     12.000000
  0.145129  0.145129  0.000000     12.000000
  0.174155  0.145129  0.000000     12.000000
  0.174155  0.174155  0.000000      3.000000
  0.029026  0.029026  0.029026      8.000000
  0.058052  0.029026  0.029026     24.000000
  0.087078  0.029026  0.029026     24.000000
  0.116104  0.029026  0.029026     24.000000
  0.145129  0.029026  0.029026     24.000000
  0.174155  0.029026  0.029026     12.000000
  0.058052  0.058052  0.029026     24.000000
  0.087078  0.058052  0.029026     48.000000
  0.116104  0.058052  0.029026     48.000000
  0.145129  0.058052  0.029026     48.000000
  0.174155  0.058052  0.029026     24.000000
  0.087078  0.087078  0.029026     24.000000
  0.116104  0.087078  0.029026     48.000000
  0.145129  0.087078  0.029026     48.000000
  0.174155  0.087078  0.029026     24.000000
  0.116104  0.116104  0.029026     24.000000
  0.145129  0.116104  0.029026     48.000000
  0.174155  0.116104  0.029026     24.000000
  0.145129  0.145129  0.029026     24.000000
  0.174155  0.145129  0.029026     24.000000
  0.174155  0.174155  0.029026      6.000000
  0.058052  0.058052  0.058052      8.000000
  0.087078  0.058052  0.058052     24.000000
  0.116104  0.058052  0.058052     24.000000
  0.145129  0.058052  0.058052     24.000000
  0.174155  0.058052  0.058052     12.000000
  0.087078  0.087078  0.058052     24.000000
  0.116104  0.087078  0.058052     48.000000
  0.145129  0.087078  0.058052     48.000000
  0.174155  0.087078  0.058052     24.000000
  0.116104  0.116104  0.058052     24.000000
  0.145129  0.116104  0.058052     48.000000
  0.174155  0.116104  0.058052     24.000000
  0.145129  0.145129  0.058052     24.000000
  0.174155  0.145129  0.058052     24.000000
  0.174155  0.174155  0.058052      6.000000
  0.087078  0.087078  0.087078      8.000000
  0.116104  0.087078  0.087078     24.000000
  0.145129  0.087078  0.087078     24.000000
  0.174155  0.087078  0.087078     12.000000
  0.116104  0.116104  0.087078     24.000000
  0.145129  0.116104  0.087078     48.000000
  0.174155  0.116104  0.087078     24.000000
  0.145129  0.145129  0.087078     24.000000
  0.174155  0.145129  0.087078     24.000000
  0.174155  0.174155  0.087078      6.000000
  0.116104  0.116104  0.116104      8.000000
  0.145129  0.116104  0.116104     24.000000
  0.174155  0.116104  0.116104     12.000000
  0.145129  0.145129  0.116104     24.000000
  0.174155  0.145129  0.116104     24.000000
  0.174155  0.174155  0.116104      6.000000
  0.145129  0.145129  0.145129      8.000000
  0.174155  0.145129  0.145129     12.000000
  0.174155  0.174155  0.145129      6.000000
  0.174155  0.174155  0.174155      1.000000
 


--------------------------------------------------------------------------------------------------------




 Dimension of arrays:
   k-points           NKPTS =     84   k-points in BZ     NKDIM =     84   number of bands    NBANDS=     48
   number of dos      NEDOS =    301   number of ions     NIONS =      2
   non local maximal  LDIM  =      6   non local SUM 2l+1 LMDIM =     18
   total plane-waves  NPLWV =   2744
   max r-space proj   IRMAX =      1   max aug-charges    IRDMAX=   4234
   dimension x,y,z NGX =    14 NGY =   14 NGZ =   14
   dimension x,y,z NGXF=    28 NGYF=   28 NGZF=   28
   support grid    NGXF=    28 NGYF=   28 NGZF=   28
   ions per type =               2
   NGX,Y,Z   is equivalent  to a cutoff of   8.11,  8.11,  8.11 a.u.
   NGXF,Y,Z  is equivalent  to a cutoff of  16.21, 16.21, 16.21 a.u.

 SYSTEM =  Cr                                      
 POSCAR =  Cr2                                     

 Startparameter for this run:
   NWRITE =      2    write-flag & timer
   PREC   = normal    normal or accurate (medium, high low for compatibility)
   ISTART =      1    job   : 0-new  1-cont  2-samecut
   ICHARG =      0    charge: 1-file 2-atom 10-const
   ISPIN  =      2    spin polarized calculation?
   LNONCOLLINEAR =      F non collinear calculations
   LSORBIT =      F    spin-orbit coupling
   INIWAV =      1    electr: 0-lowe 1-rand  2-diag
   LASPH  =      F    aspherical Exc in radial PAW
 Electronic Relaxation 1
   ENCUT  =  345.4 eV  25.39 Ry    5.04 a.u.   4.35  4.35  4.35*2*pi/ulx,y,z
   ENINI  =  345.4     initial cutoff
   ENAUG  =  519.4 eV  augmentation charge cutoff
   NELM   =     60;   NELMIN=  2; NELMDL=  0     # of ELM steps 
   EDIFF  = 0.1E-03   stopping-criterion for ELM
   LREAL  =      F    real-space projection
   NLSPLINE    = F    spline interpolate recip. space projectors
   LCOMPAT=      F    compatible to vasp.4.4
   GGA_COMPAT  = T    GGA compatible to vasp.4.4-vasp.4.6
   LMAXPAW     = -100 max onsite density
   LMAXMIX     =    2 max onsite mixed and CHGCAR
   VOSKOWN=      0    Vosko Wilk Nusair interpolation
   ROPT   =    0.00000
 Ionic relaxation
   EDIFFG = 0.1E-02   stopping-criterion for IOM
   NSW    =      0    number of steps for IOM
   NBLOCK =      1;   KBLOCK =      1    inner block; outer block 
   IBRION =     -1    ionic relax: 0-MD 1-quasi-New 2-CG
   NFREE  =      0    steps in history (QN), initial steepest desc. (CG)
   ISIF   =      2    stress and relaxation
   IWAVPR =     10    prediction:  0-non 1-charg 2-wave 3-comb
   ISYM   =      2    0-nonsym 1-usesym 2-fastsym
   LCORR  =      T    Harris-Foulkes like correction to forces

   POTIM  = 0.5000    time-step for ionic-motion
   TEIN   =    0.0    initial temperature
   TEBEG  =    0.0;   TEEND  =   0.0 temperature during run
   SMASS  =  -3.00    Nose mass-parameter (am)
   estimated Nose-frequenzy (Omega)   =  0.10E-29 period in steps = 0.13E+47 mass=  -0.188E-27a.u.
   SCALEE = 1.0000    scale energy and forces
   NPACO  =    256;   APACO  = 10.0  distance and # of slots for P.C.
   PSTRESS=    0.0 pullay stress

  Mass of Ions in am
   POMASS =  52.00
  Ionic Valenz
   ZVAL   =  12.00
  Atomic Wigner-Seitz radii
   RWIGS  =  -1.00
  virtual crystal weights 
   VCA    =   1.00
   NELECT =      24.0000    total number of electrons
   NUPDOWN=      -1.0000    fix difference up-down

 DOS related values:
   EMIN   =  10.00;   EMAX   =-10.00  energy-range for DOS
   EFERMI =   0.00;   METHOD = LEGACY      
   ISMEAR =     0;   SIGMA  =   0.05  broadening in eV -4-tet -1-fermi 0-gaus

 Electronic relaxation 2 (details)
   IALGO  =     38    algorithm
   LDIAG  =      T    sub-space diagonalisation (order eigenvalues)
   LSUBROT=      F    optimize rotation matrix (better conditioning)
   TURBO    =      0    0=normal 1=particle mesh
   IRESTART =      0    0=no restart 2=restart with 2 vectors
   NREBOOT  =      0    no. of reboots
   NMIN     =      0    reboot dimension
   EREF     =   0.00    reference energy to select bands
   IMIX   =      4    mixing-type and parameters
     AMIX     =   0.40;   BMIX     =  1.00
     AMIX_MAG =   1.60;   BMIX_MAG =  1.00
     AMIN     =   0.10
     WC   =   100.;   INIMIX=   1;  MIXPRE=   1;  MAXMIX= -45

 Intra band minimization:
   WEIMIN = 0.0000     energy-eigenvalue tresh-hold
   EBREAK =  0.52E-06  absolut break condition
   DEPER  =   0.30     relativ break condition  

   TIME   =   0.40     timestep for ELM

  volume/ion in A,a.u.               =      11.83        79.85
  Fermi-wavevector in a.u.,A,eV,Ry     =   1.644796  3.108214 36.808576  2.705354
  Thomas-Fermi vector in A             =   2.734701
 
 Write flags
   LWAVE        =      T    write WAVECAR
   LDOWNSAMPLE  =      F    k-point downsampling of WAVECAR
   LCHARG       =      T    write CHGCAR
   LVTOT        =      F    write LOCPOT, total local potential
   LVHAR        =      F    write LOCPOT, Hartree potential only
   WRT_POTENTIAL= false  ! write potential to hdf5 file
   LELF         =      F    write electronic localiz. function (ELF)
   LORBIT       =     11    0 simple, 1 ext, 2 COOP (PROOUT), +10 PAW based schemes


 Dipole corrections
   LMONO      =      F    monopole corrections only (constant potential shift)
   LDIPOL     =      F    correct potential (dipole corrections)
   IDIPOL     =      0    1-x, 2-y, 3-z, 4-all directions 
   EPSILON    =  1.0000000 bulk dielectric constant
   LVACPOTAV  =      F  vacuum potentials using an averaging scheme for the charge density
   VACPOTFLAT =  0.1000000 required flatness to determine vacuum potential
 Exchange correlation treatment:
   GGA     = PE    functional components
   XC_C    = 1    coefficients multiplying the functional components
   LIBXC   =     F    Libxc                    
   VOSKOWN =     0    Vosko Wilk Nusair interpolation
   LHFCALC =     F    Hartree Fock is set to
   LHFONE  =     F    Hartree Fock one center treatment
   AEXX    =    0.0000 exact exchange contribution

 Parameters of functionals:
   PE:
     No parameter
 
 Van der Waals corrections
   IVDW    =     0    specifies the selected vdW correction

 Linear response parameters
   LEPSILON=     F    determine dielectric tensor
   LRPA    =     F    only Hartree local field effects (RPA)
   LNABLA  =     F    use nabla operator in PAW spheres
   LVEL    =     F    velocity operator in full k-point grid
   CSHIFT  =0.1000    complex shift for real part using Kramers Kronig
   OMEGAMAX=  -1.0    maximum frequency
   DEG_THRESHOLD= 0.2000000E-02 threshold for treating states as degnerate
   RTIME   =   -0.100 relaxation time in fs
  (WPLASMAI=    0.000 imaginary part of plasma frequency in eV, 0.658/RTIME)
   DFIELD  = 0.0000000 0.0000000 0.0000000 field for delta impulse in time
 
  Optional k-point grid parameters
   LKPOINTS_OPT  =     F    use optional k-point grid
   KPOINTS_OPT_MODE=     1    mode for optional k-point grid
 
 Orbital magnetization related:
   ORBITALMAG=     F  switch on orbital magnetization
   LCHIMAG   =     F  perturbation theory with respect to B field
   DQ        =  0.001000  dq finite difference perturbation B field
   LLRAUG    =     F  two centre corrections for induced B field
   LBONE     =     F  B-component reconstruction in AE one-centre
   LVGVCALC  =     T  calculate vGv susceptibility
   LVGVAPPL  =     F  apply vGv susceptibility instead of pGv for G=0

 Random number generation:
   RANDOM_GENERATOR = DEFAULT
   PCG_SEED         = not used


--------------------------------------------------------------------------------------------------------


 Static calculation
 charge density and potential will be updated during run
 spin polarized calculation
 Variant of blocked Davidson
 Davidson routine will perform the subspace rotation
 perform sub-space diagonalisation
    after iterative eigenvector-optimisation
 modified Broyden-mixing scheme, WC =      100.0
 initial mixing is a Kerker type mixing with AMIX =  0.4000 and BMIX =      1.0000
 Hartree-type preconditioning will be used
 using additional bands           36
 reciprocal scheme for non local part
 use partial core corrections
 calculate Harris-corrections to forces 
   (improved forces if not selfconsistent)
 use gradient corrections 
 use of overlap-Matrix (Vanderbilt PP)
 Gauss-broadening in eV      SIGMA  =   0.05


--------------------------------------------------------------------------------------------------------


  energy-cutoff  :      345.39
  volume of cell :       23.66
      direct lattice vectors                 reciprocal lattice vectors
     2.871000000  0.000000000  0.000000000     0.348310693 -0.000000000  0.000000000
     0.000000000  2.871000000  0.000000000     0.000000000  0.348310693  0.000000000
     0.000000000  0.000000000  2.871000000    -0.000000000 -0.000000000  0.348310693

  length of vectors
     2.871000000  2.871000000  2.871000000     0.348310693  0.348310693  0.348310693


 
 old parameters found on file WAVECAR:
  energy-cutoff  :      345.39
  volume of cell :       23.66
      direct lattice vectors                 reciprocal lattice vectors
     2.871000000  0.000000000  0.000000000     0.348310693 -0.000000000  0.000000000
     0.000000000  2.871000000  0.000000000     0.000000000  0.348310693  0.000000000
     0.000000000  0.000000000  2.871000000    -0.000000000 -0.000000000  0.348310693

  length of vectors

 
 k-points in units of 2pi/SCALE and weight: Automatic kpoint scheme                 
   0.00000000  0.00000000  0.00000000       0.001
   0.02902589 -0.00000000  0.00000000       0.003
   0.05805178 -0.00000000  0.00000000       0.003
   0.08707767 -0.00000000  0.00000000       0.003
   0.11610356 -0.00000000  0.00000000       0.003
   0.14512946 -0.00000000  0.00000000       0.003
   0.17415535 -0.00000000  0.00000000       0.002
   0.02902589  0.02902589  0.00000000       0.007
   0.05805178  0.02902589  0.00000000       0.014
   0.08707767  0.02902589  0.00000000       0.014
   0.11610356  0.02902589  0.00000000       0.014
   0.14512946  0.02902589  0.00000000       0.014
   0.17415535  0.02902589  0.00000000       0.007
   0.05805178  0.05805178  0.00000000       0.007
   0.08707767  0.05805178  0.00000000       0.014
   0.11610356  0.05805178  0.00000000       0.014
   0.14512946  0.05805178  0.00000000       0.014
   0.17415535  0.05805178  0.00000000       0.007
   0.08707767  0.08707767  0.00000000       0.007
   0.11610356  0.08707767  0.00000000       0.014
   0.14512946  0.08707767  0.00000000       0.014
   0.17415535  0.08707767  0.00000000       0.007
   0.11610356  0.11610356  0.00000000       0.007
   0.14512946  0.11610356  0.00000000       0.014
   0.17415535  0.11610356  0.00000000       0.007
   0.14512946  0.14512946  0.00000000       0.007
   0.17415535  0.14512946  0.00000000       0.007
   0.17415535  0.17415535  0.00000000       0.002
   0.02902589  0.02902589  0.02902589       0.005
   0.05805178  0.02902589  0.02902589       0.014
   0.08707767  0.02902589  0.02902589       0.014
   0.11610356  0.02902589  0.02902589       0.014
   0.14512946  0.02902589  0.02902589       0.014
   0.17415535  0.02902589  0.02902589       0.007
   0.05805178  0.05805178  0.02902589       0.014
   0.08707767  0.05805178  0.02902589       0.028
   0.11610356  0.05805178  0.02902589       0.028
   0.14512946  0.05805178  0.02902589       0.028
   0.17415535  0.05805178  0.02902589       0.014
   0.08707767  0.08707767  0.02902589       0.014
   0.11610356  0.08707767  0.02902589       0.028
   0.14512946  0.08707767  0.02902589       0.028
   0.17415535  0.08707767  0.02902589       0.014
   0.11610356  0.11610356  0.02902589       0.014
   0.14512946  0.11610356  0.02902589       0.028
   0.17415535  0.11610356  0.02902589       0.014
   0.14512946  0.14512946  0.02902589       0.014
   0.17415535  0.14512946  0.02902589       0.014
   0.17415535  0.17415535  0.02902589       0.003
   0.05805178  0.05805178  0.05805178       0.005
   0.08707767  0.05805178  0.05805178       0.014
   0.11610356  0.05805178  0.05805178       0.014
   0.14512946  0.05805178  0.05805178       0.014
   0.17415535  0.05805178  0.05805178       0.007
   0.08707767  0.08707767  0.05805178       0.014
   0.11610356  0.08707767  0.05805178       0.028
   0.14512946  0.08707767  0.05805178       0.028
   0.17415535  0.08707767  0.05805178       0.014
   0.11610356  0.11610356  0.05805178       0.014
   0.14512946  0.11610356  0.05805178       0.028
   0.17415535  0.11610356  0.05805178       0.014
   0.14512946  0.14512946  0.05805178       0.014
   0.17415535  0.14512946  0.05805178       0.014
   0.17415535  0.17415535  0.05805178       0.003
   0.08707767  0.08707767  0.08707767       0.005
   0.11610356  0.08707767  0.08707767       0.014
   0.14512946  0.08707767  0.08707767       0.014
   0.17415535  0.08707767  0.08707767       0.007
   0.11610356  0.11610356  0.08707767       0.014
   0.14512946  0.11610356  0.08707767       0.028
   0.17415535  0.11610356  0.08707767       0.014
   0.14512946  0.14512946  0.08707767       0.014
   0.17415535  0.14512946  0.08707767       0.014
   0.17415535  0.17415535  0.08707767       0.003
   0.11610356  0.11610356  0.11610356       0.005
   0.14512946  0.11610356  0.11610356       0.014
   0.17415535  0.11610356  0.11610356       0.007
   0.14512946  0.14512946  0.11610356       0.014
   0.17415535  0.14512946  0.11610356       0.014
   0.17415535  0.17415535  0.11610356       0.003
   0.14512946  0.14512946  0.14512946       0.005
   0.17415535  0.14512946  0.14512946       0.007
   0.17415535  0.17415535  0.14512946       0.003
   0.17415535  0.17415535  0.17415535       0.001
 
 k-points in reciprocal lattice and weights: Automatic kpoint scheme                 
   0.00000000  0.00000000  0.00000000       0.001
   0.08333333  0.00000000  0.00000000       0.003
   0.16666667  0.00000000  0.00000000       0.003
   0.25000000  0.00000000  0.00000000       0.003
   0.33333333  0.00000000  0.00000000       0.003
   0.41666667  0.00000000  0.00000000       0.003
   0.50000000  0.00000000  0.00000000       0.002
   0.08333333  0.08333333  0.00000000       0.007
   0.16666667  0.08333333  0.00000000       0.014
   0.25000000  0.08333333  0.00000000       0.014
   0.33333333  0.08333333  0.00000000       0.014
   0.41666667  0.08333333  0.00000000       0.014
   0.50000000  0.08333333  0.00000000       0.007
   0.16666667  0.16666667  0.00000000       0.007
   0.25000000  0.16666667  0.00000000       0.014
   0.33333333  0.16666667  0.00000000       0.014
   0.41666667  0.16666667  0.00000000       0.014
   0.50000000  0.16666667  0.00000000       0.007
   0.25000000  0.25000000  0.00000000       0.007
   0.33333333  0.25000000  0.00000000       0.014
   0.41666667  0.25000000  0.00000000       0.014
   0.50000000  0.25000000  0.00000000       0.007
   0.33333333  0.33333333  0.00000000       0.007
   0.41666667  0.33333333  0.00000000       0.014
   0.50000000  0.33333333  0.00000000       0.007
   0.41666667  0.41666667  0.00000000       0.007
   0.50000000  0.41666667  0.00000000       0.007
   0.50000000  0.50000000  0.00000000       0.002
   0.08333333  0.08333333  0.08333333       0.005
   0.16666667  0.08333333  0.08333333       0.014
   0.25000000  0.08333333  0.08333333       0.014
   0.33333333  0.08333333  0.08333333       0.014
   0.41666667  0.08333333  0.08333333       0.014
   0.50000000  0.08333333  0.08333333       0.007
   0.16666667  0.16666667  0.08333333       0.014
   0.25000000  0.16666667  0.08333333       0.028
   0.33333333  0.16666667  0.08333333       0.028
   0.41666667  0.16666667  0.08333333       0.028
   0.50000000  0.16666667  0.08333333       0.014
   0.25000000  0.25000000  0.08333333       0.014
   0.33333333  0.25000000  0.08333333       0.028
   0.41666667  0.25000000  0.08333333       0.028
   0.50000000  0.25000000  0.08333333       0.014
   0.33333333  0.33333333  0.08333333       0.014
   0.41666667  0.33333333  0.08333333       0.028
   0.50000000  0.33333333  0.08333333       0.014
   0.41666667  0.41666667  0.08333333       0.014
   0.50000000  0.41666667  0.08333333       0.014
   0.50000000  0.50000000  0.08333333       0.003
   0.16666667  0.16666667  0.16666667       0.005
   0.25000000  0.16666667  0.16666667       0.014
   0.33333333  0.16666667  0.16666667       0.014
   0.41666667  0.16666667  0.16666667       0.014
   0.50000000  0.16666667  0.16666667       0.007
   0.25000000  0.25000000  0.16666667       0.014
   0.33333333  0.25000000  0.16666667       0.028
   0.41666667  0.25000000  0.16666667       0.028
   0.50000000  0.25000000  0.16666667       0.014
   0.33333333  0.33333333  0.16666667       0.014
   0.41666667  0.33333333  0.16666667       0.028
   0.50000000  0.33333333  0.16666667       0.014
   0.41666667  0.41666667  0.16666667       0.014
   0.50000000  0.41666667  0.16666667       0.014
   0.50000000  0.50000000  0.16666667       0.003
   0.25000000  0.25000000  0.25000000       0.005
   0.33333333  0.25000000  0.25000000       0.014
   0.41666667  0.25000000  0.25000000       0.014
   0.50000000  0.25000000  0.25000000       0.007
   0.33333333  0.33333333  0.25000000       0.014
   0.41666667  0.33333333  0.25000000       0.028
   0.50000000  0.33333333  0.25000000       0.014
   0.41666667  0.41666667  0.25000000       0.014
   0.50000000  0.41666667  0.25000000       0.014
   0.50000000  0.50000000  0.25000000       0.003
   0.33333333  0.33333333  0.33333333       0.005
   0.41666667  0.33333333  0.33333333       0.014
   0.50000000  0.33333333  0.33333333       0.007
   0.41666667  0.41666667  0.33333333       0.014
   0.50000000  0.41666667  0.33333333       0.014
   0.50000000  0.50000000  0.33333333       0.003
   0.41666667  0.41666667  0.41666667       0.005
   0.50000000  0.41666667  0.41666667       0.007
   0.50000000  0.50000000  0.41666667       0.003
   0.50000000  0.50000000  0.50000000       0.001
 
 position of ions in fractional coordinates (direct lattice) 
   0.00000000  0.00000000  0.00000000
   0.50000000  0.50000000  0.50000000
 
 position of ions in cartesian coordinates  (Angst):
   0.00000000  0.00000000  0.00000000
   1.43550000  1.43550000  1.43550000
 


--------------------------------------------------------------------------------------------------------


 k-point     1 :   0.0000 0.0000 0.0000  plane waves:     341
 k-point     2 :   0.0833 0.0000 0.0000  plane waves:     353
 k-point     3 :   0.1667 0.0000 0.0000  plane waves:     349
 k-point     4 :   0.2500 0.0000 0.0000  plane waves:     345
 k-point     5 :   0.3333 0.0000 0.0000  plane waves:     353
 k-point     6 :   0.4167 0.0000 0.0000  plane waves:     344
 k-point     7 :   0.5000 0.0000 0.0000  plane waves:     336
 k-point     8 :   0.0833 0.0833 0.0000  plane waves:     350
 k-point     9 :   0.1667 0.0833 0.0000  plane waves:     348
 k-point    10 :   0.2500 0.0833 0.0000  plane waves:     347
 k-point    11 :   0.3333 0.0833 0.0000  plane waves:     346
 k-point    12 :   0.4167 0.0833 0.0000  plane waves:     345
 k-point    13 :   0.5000 0.0833 0.0000  plane waves:     348
 k-point    14 :   0.1667 0.1667 0.0000  plane waves:     344
 k-point    15 :   0.2500 0.1667 0.0000  plane waves:     348
 k-point    16 :   0.3333 0.1667 0.0000  plane waves:     345
 k-point    17 :   0.4167 0.1667 0.0000  plane waves:     344
 k-point    18 :   0.5000 0.1667 0.0000  plane waves:     342
 k-point    19 :   0.2500 0.2500 0.0000  plane waves:     338
 k-point    20 :   0.3333 0.2500 0.0000  plane waves:     344
 k-point    21 :   0.4167 0.2500 0.0000  plane waves:     348
 k-point    22 :   0.5000 0.2500 0.0000  plane waves:     350
 k-point    23 :   0.3333 0.3333 0.0000  plane waves:     348
 k-point    24 :   0.4167 0.3333 0.0000  plane waves:     347
 k-point    25 :   0.5000 0.3333 0.0000  plane waves:     348
 k-point    26 :   0.4167 0.4167 0.0000  plane waves:     354
 k-point    27 :   0.5000 0.4167 0.0000  plane waves:     354
 k-point    28 :   0.5000 0.5000 0.0000  plane waves:     356
 k-point    29 :   0.0833 0.0833 0.0833  plane waves:     347
 k-point    30 :   0.1667 0.0833 0.0833  plane waves:     348
 k-point    31 :   0.2500 0.0833 0.0833  plane waves:     347
 k-point    32 :   0.3333 0.0833 0.0833  plane waves:     343
 k-point    33 :   0.4167 0.0833 0.0833  plane waves:     344
 k-point    34 :   0.5000 0.0833 0.0833  plane waves:     342
 k-point    35 :   0.1667 0.1667 0.0833  plane waves:     349
 k-point    36 :   0.2500 0.1667 0.0833  plane waves:     343
 k-point    37 :   0.3333 0.1667 0.0833  plane waves:     346
 k-point    38 :   0.4167 0.1667 0.0833  plane waves:     349
 k-point    39 :   0.5000 0.1667 0.0833  plane waves:     346
 k-point    40 :   0.2500 0.2500 0.0833  plane waves:     341
 k-point    41 :   0.3333 0.2500 0.0833  plane waves:     348
 k-point    42 :   0.4167 0.2500 0.0833  plane waves:     347
 k-point    43 :   0.5000 0.2500 0.0833  plane waves:     346
 k-point    44 :   0.3333 0.3333 0.0833  plane waves:     349
 k-point    45 :   0.4167 0.3333 0.0833  plane waves:     344
 k-point    46 :   0.5000 0.3333 0.0833  plane waves:     348
 k-point    47 :   0.4167 0.4167 0.0833  plane waves:     346
 k-point    48 :   0.5000 0.4167 0.0833  plane waves:     342
 k-point    49 :   0.5000 0.5000 0.0833  plane waves:     348
 k-point    50 :   0.1667 0.1667 0.1667  plane waves:     350
 k-point    51 :   0.2500 0.1667 0.1667  plane waves:     347
 k-point    52 :   0.3333 0.1667 0.1667  plane waves:     350
 k-point    53 :   0.4167 0.1667 0.1667  plane waves:     349
 k-point    54 :   0.5000 0.1667 0.1667  plane waves:     344
 k-point    55 :   0.2500 0.2500 0.1667  plane waves:     345
 k-point    56 :   0.3333 0.2500 0.1667  plane waves:     345
 k-point    57 :   0.4167 0.2500 0.1667  plane waves:     341
 k-point    58 :   0.5000 0.2500 0.1667  plane waves:     346
 k-point    59 :   0.3333 0.3333 0.1667  plane waves:     348
 k-point    60 :   0.4167 0.3333 0.1667  plane waves:     341
 k-point    61 :   0.5000 0.3333 0.1667  plane waves:     342
 k-point    62 :   0.4167 0.4167 0.1667  plane waves:     345
 k-point    63 :   0.5000 0.4167 0.1667  plane waves:     340
 k-point    64 :   0.5000 0.5000 0.1667  plane waves:     340
 k-point    65 :   0.2500 0.2500 0.2500  plane waves:     350
 k-point    66 :   0.3333 0.2500 0.2500  plane waves:     344
 k-point    67 :   0.4167 0.2500 0.2500  plane waves:     343
 k-point    68 :   0.5000 0.2500 0.2500  plane waves:     350
 k-point    69 :   0.3333 0.3333 0.2500  plane waves:     340
 k-point    70 :   0.4167 0.3333 0.2500  plane waves:     345
 k-point    71 :   0.5000 0.3333 0.2500  plane waves:     344
 k-point    72 :   0.4167 0.4167 0.2500  plane waves:     343
 k-point    73 :   0.5000 0.4167 0.2500  plane waves:     340
 k-point    74 :   0.5000 0.5000 0.2500  plane waves:     336
 k-point    75 :   0.3333 0.3333 0.3333  plane waves:     335
 k-point    76 :   0.4167 0.3333 0.3333  plane waves:     340
 k-point    77 :   0.5000 0.3333 0.3333  plane waves:     338
 k-point    78 :   0.4167 0.4167 0.3333  plane waves:     335
 k-point    79 :   0.5000 0.4167 0.3333  plane waves:     332
 k-point    80 :   0.5000 0.5000 0.3333  plane waves:     332
 k-point    81 :   0.4167 0.4167 0.4167  plane waves:     338
 k-point    82 :   0.5000 0.4167 0.4167  plane waves:     334
 k-point    83 :   0.5000 0.5000 0.4167  plane waves:     340
 k-point    84 :   0.5000 0.5000 0.5000  plane waves:     360

 maximum and minimum number of plane-waves per node :       360      332

 maximum number of plane-waves:       360
 maximum index in each direction: 
   IXMAX=    4   IYMAX=    4   IZMAX=    4
   IXMIN=   -4   IYMIN=   -4   IZMIN=   -4


 serial   3D FFT for wavefunctions
 parallel 3D FFT for charge:
    minimum data exchange during FFTs selected (reduces bandwidth)


 total amount of memory used by VASP MPI-rank0    36213. kBytes
=======================================================================

   base      :      30000. kBytes
   nonl-proj :       4657. kBytes
   fftplans  :         48. kBytes
   grid      :        285. kBytes
   one-center:         62. kBytes
   wavefun   :       1161. kBytes
 
     INWAV:  cpu time      0.1860: real time      0.1861
 Broyden mixing: mesh for mixing (old mesh)
   NGX =  9   NGY =  9   NGZ =  9
  (NGX  = 28   NGY  = 28   NGZ  = 28)
  gives a total of    729 points

 charge density for first step will be calculated from the start-wavefunctions


--------------------------------------------------------------------------------------------------------


 Maximum index for augmentation-charges          293 (set IRDMAX)


--------------------------------------------------------------------------------------------------------


 initial charge from wavefunction
 First call to EWALD:  gamma=   0.617
 Maximum number of real-space cells 3x 3x 3
 Maximum number of reciprocal cells 3x 3x 3

    FEWALD:  cpu time      0.0014: real time      0.0014


--------------------------------------- Ionic step        1  -------------------------------------------




--------------------------------------- Iteration      1(   1)  ---------------------------------------


    POTLOK:  cpu time      0.0045: real time      0.0068
    SETDIJ:  cpu time      0.0052: real time      0.0053
     EDDAV:  cpu time      1.0064: real time      1.0066
       DOS:  cpu time      0.0016: real time      0.0017
    CHARGE:  cpu time      0.0054: real time      0.0054
    MIXING:  cpu time      0.0008: real time      0.0011
    --------------------------------------------
      LOOP:  cpu time      1.0239: real time      1.0269

 eigenvalue-minimisations  :  8256
 total energy-change (2. order) :-0.1905377E+02  (-0.2899426E-05)
 number of electron      23.9999611 magnetization       0.0000000
 augmentation part       11.8402767 magnetization       0.0000000

 Broyden mixing:
  rms(total) = 0.18424E-02    rms(broyden)= 0.18422E-02
  rms(prec ) = 0.20459E-02
  weight for this iteration     100.00

 Free energy of the ion-electron system (eV)
  ---------------------------------------------------
  alpha Z        PSCENC =       176.69251159
  Ewald energy   TEWEN  =     -2628.42319331
  -Hartree energ DENC   =      -581.41659338
  -exchange      EXHF   =         0.00000000
  -V(xc)+E(xc)   XCENC  =       108.61769121
  PAW double counting   =      2904.49225364    -3005.23232326
  entropy T*S    EENTRO =        -0.00081109
  eigenvalues    EBANDS =      -289.51050154
  atomic energy  EATOM  =      3295.72719809
  Solvation  Ediel_sol  =         0.00000000
  ---------------------------------------------------
  free energy    TOTEN  =       -19.05376806 eV

  energy without entropy =      -19.05295697  energy(sigma->0) =      -19.05336252


--------------------------------------------------------------------------------------------------------




--------------------------------------- Iteration      1(   2)  ---------------------------------------


    POTLOK:  cpu time      0.0035: real time      0.0036
    SETDIJ:  cpu time      0.0043: real time      0.0043
     EDDAV:  cpu time      0.9598: real time      0.9596
       DOS:  cpu time      0.0010: real time      0.0010
    --------------------------------------------
      LOOP:  cpu time      0.9687: real time      0.9686

 eigenvalue-minimisations  :  8064
 total energy-change (2. order) :-0.4271510E-05  (-0.3007546E-05)
 number of electron      23.9999611 magnetization       0.0000000
 augmentation part       11.8402767 magnetization       0.0000000

 Free energy of the ion-electron system (eV)
  ---------------------------------------------------
  alpha Z        PSCENC =       176.69251159
  Ewald energy   TEWEN  =     -2628.42319331
  -Hartree energ DENC   =      -581.43220688
  -exchange      EXHF   =         0.00000000
  -V(xc)+E(xc)   XCENC  =       108.61724304
  PAW double counting   =      2904.50588886    -3005.24769363
  entropy T*S    EENTRO =        -0.00081087
  eigenvalues    EBANDS =      -289.49270923
  atomic energy  EATOM  =      3295.72719809
  Solvation  Ediel_sol  =         0.00000000
  ---------------------------------------------------
  free energy    TOTEN  =       -19.05377233 eV

  energy without entropy =      -19.05296146  energy(sigma->0) =      -19.05336690


--------------------------------------------------------------------------------------------------------




 average (electrostatic) potential at core
  the test charge radii are     1.0025
  (the norm of the test charge is              1.0000)
       1 -66.0626       2 -66.0626
 
 
 
 E-fermi :  10.6179     XC(G=0): -13.5180     alpha+bet :-19.2527

 val. band max:       10.5848187887   @ k =   0.5000   0.4167   0.0833
 cond. band min:      10.6365047630   @ k =   0.3333   0.0833   0.0000
 fundamental gap:      0.0516859743
 Fermi energy:        10.6179147290

 spin component 1

 k-point     1 :       0.0000    0.0000    0.0000
  band No.  band energies     occupation 
      1     -32.9324      1.00000
      2     -32.9324      1.00000
      3     -32.9324      1.00000
      4     -31.6499      1.00000
      5     -31.6499      1.00000
      6     -31.6499      1.00000
      7       2.8679      1.00000
      8       6.4857      1.00000
      9       6.4857      1.00000
     10       9.7618      1.00000
     11       9.7618      1.00000
     12       9.7618      1.00000
     13      11.8526      0.00000
     14      11.8526      0.00000
     15      13.2247      0.00000
     16      13.2247      0.00000
     17      13.2247      0.00000
     18      17.1283      0.00000
     19      18.6828      0.00000
     20      21.0409      0.00000
     21      21.0409      0.00000
     22      21.0409      0.00000
     23      27.7006      0.00000
     24      27.7006      0.00000
     25      32.7433      0.00000
     26      32.7433      0.00000
     27      32.7433      0.00000
     28      33.7045      0.00000
     29      40.0270      0.00000
     30      40.0270      0.00000
     31      44.4102      0.00000
     32      44.4102      0.00000
     33      44.4102      0.00000
     34      45.2827      0.00000
     35      45.2827      0.00000
     36      45.2827      0.00000
     37      45.7113      0.00000
     38      57.5237      0.00000
     39      57.5237      0.00000
     40      57.5237      0.00000
     41      59.4943      0.00000
     42      59.4943      0.00000
     43      59.4943      0.00000
     44      60.6544      0.00000
     45      69.9717      0.00000
     46      70.8266      0.00000
     47      70.8266      0.00000
     48      70.8266      0.00000

 k-point     2 :       0.0833    0.0000    0.0000
  band No.  band energies     occupation 
      1     -32.9384      1.00000
      2     -32.9274      1.00000
      3     -32.9274      1.00000
      4     -31.6657      1.00000
      5     -31.6539      1.00000
      6     -31.6539      1.00000
      7       3.0178      1.00000
      8       6.5617      1.00000
      9       6.5683      1.00000
     10       9.7513      1.00000
     11       9.7513      1.00000
     12       9.8089      1.00000
     13      11.7496      0.00000
     14      11.8916      0.00000
     15      13.0325      0.00000
     16      13.0325      0.00000
     17      13.1661      0.00000
     18      17.1279      0.00000
     19      18.6821      0.00000
     20      20.3132      0.00000
     21      21.3869      0.00000
     22      21.3869      0.00000
     23      27.7085      0.00000
     24      28.1492      0.00000
     25      32.2848      0.00000
     26      32.8373      0.00000
     27      32.8373      0.00000
     28      34.1184      0.00000
     29      39.0316      0.00000
     30      40.8550      0.00000
     31      42.8166      0.00000
     32      42.8166      0.00000
     33      44.3933      0.00000
     34      45.6009      0.00000
     35      46.0563      0.00000
     36      47.0232      0.00000
     37      47.0232      0.00000
     38      55.7289      0.00000
     39      55.7289      0.00000
     40      57.1682      0.00000
     41      59.9240      0.00000
     42      60.8452      0.00000
     43      61.0902      0.00000
     44      61.0902      0.00000
     45      69.7818      0.00000
     46      70.7483      0.00000
     47      71.1111      0.00000
     48      71.1111      0.00000

 k-point     3 :       0.1667    0.0000    0.0000
  band No.  band energies     occupation 
      1     -32.9542      1.00000
      2     -32.9131      1.00000
      3     -32.9131      1.00000
      4     -31.7082      1.00000
      5     -31.6647      1.00000
      6     -31.6647      1.00000
      7       3.4549      1.00000
      8       6.7868      1.00000
      9       6.7906      1.00000
     10       9.7288      1.00000
     11       9.7288      1.00000
     12       9.9464      1.00000
     13      11.4505      0.00000
     14      12.0019      0.00000
     15      12.5539      0.00000
     16      12.5539      0.00000
     17      12.9975      0.00000
     18      17.1272      0.00000
     19      18.6447      0.00000
     20      18.7532      0.00000
     21      22.3256      0.00000
     22      22.3256      0.00000
     23      27.7376      0.00000
     24      28.8243      0.00000
     25      31.3218      0.00000
     26      33.0040      0.00000
     27      33.0040      0.00000
     28      35.4884      0.00000
     29      37.0301      0.00000
     30      41.1926      0.00000
     31      41.1926      0.00000
     32      42.9171      0.00000
     33      44.3481      0.00000
     34      45.3276      0.00000
     35      47.4367      0.00000
     36      49.1968      0.00000
     37      49.1968      0.00000
     38      53.1682      0.00000
     39      53.1682      0.00000
     40      56.3170      0.00000
     41      60.8320      0.00000
     42      61.1879      0.00000
     43      62.9469      0.00000
     44      62.9469      0.00000
     45      68.1251      0.00000
     46      71.9498      0.00000
     47      71.9498      0.00000
     48      72.7971      0.00000

 k-point     4 :       0.2500    0.0000    0.0000
  band No.  band energies     occupation 
      1     -32.9752      1.00000
      2     -32.8933      1.00000
      3     -32.8933      1.00000
      4     -31.7665      1.00000
      5     -31.6799      1.00000
      6     -31.6799      1.00000
      7       4.1415      1.00000
      8       7.0732      1.00000
      9       7.1500      1.00000
     10       9.7164      1.00000
     11       9.7164      1.00000
     12      10.1625      1.00000
     13      10.9846      0.00000
     14      11.9695      0.00000
     15      11.9695      0.00000
     16      12.1648      0.00000
     17      12.7389      0.00000
     18      16.9208      0.00000
     19      17.1405      0.00000
     20      18.6855      0.00000
     21      23.6699      0.00000
     22      23.6699      0.00000
     23      27.7976      0.00000
     24      29.1772      0.00000
     25      30.3389      0.00000
     26      32.8667      0.00000
     27      32.8667      0.00000
     28      34.9026      0.00000
     29      37.7929      0.00000
     30      40.2783      0.00000
     31      40.2783      0.00000
     32      44.2893      0.00000
     33      44.9921      0.00000
     34      45.6927      0.00000
     35      48.6684      0.00000
     36      50.5644      0.00000
     37      50.5644      0.00000
     38      51.4297      0.00000
     39      51.4297      0.00000
     40      55.3102      0.00000
     41      59.1394      0.00000
     42      63.1482      0.00000
     43      63.7591      0.00000
     44      63.7591      0.00000
     45      68.1586      0.00000
     46      69.3852      0.00000
     47      73.1201      0.00000
     48      73.1201      0.00000

 k-point     5 :       0.3333    0.0000    0.0000
  band No.  band energies     occupation 
      1     -32.9958      1.00000
      2     -32.8730      1.00000
      3     -32.8730      1.00000
      4     -31.8250      1.00000
      5     -31.6957      1.00000
      6     -31.6957      1.00000
      7       5.0060      1.00000
      8       7.2759      1.00000
      9       7.6302      1.00000
     10       9.7374      1.00000
     11       9.7374      1.00000
     12      10.3999      1.00000
     13      10.4325      1.00000
     14      11.4209      0.00000
     15      11.4209      0.00000
     16      12.3595      0.00000
     17      12.4263      0.00000
     18      15.3152      0.00000
     19      17.1301      0.00000
     20      18.6846      0.00000
     21      25.2691      0.00000
     22      25.2691      0.00000
     23      27.9046      0.00000
     24      29.3714      0.00000
     25      29.5220      0.00000
     26      32.0238      0.00000
     27      32.0238      0.00000
     28      32.9824      0.00000
     29      40.4701      0.00000
     30      40.4701      0.00000
     31      40.7150      0.00000
     32      44.2389      0.00000
     33      44.6891      0.00000
     34      48.0258      0.00000
     35      48.0258      0.00000
     36      48.9441      0.00000
     37      49.5499      0.00000
     38      53.7050      0.00000
     39      53.7050      0.00000
     40      54.3282      0.00000
     41      56.1040      0.00000
     42      62.8413      0.00000
     43      62.8413      0.00000
     44      65.0726      0.00000
     45      65.6793      0.00000
     46      69.7184      0.00000
     47      73.5749      0.00000
     48      73.5749      0.00000

 k-point     6 :       0.4167    0.0000    0.0000
  band No.  band energies     occupation 
      1     -33.0103      1.00000
      2     -32.8576      1.00000
      3     -32.8576      1.00000
      4     -31.8677      1.00000
      5     -31.7075      1.00000
      6     -31.7075      1.00000
      7       5.9255      1.00000
      8       7.2177      1.00000
      9       8.1802      1.00000
     10       9.7732      1.00000
     11       9.7939      1.00000
     12       9.7939      1.00000
     13      10.7011      0.00930
     14      11.0110      0.00000
     15      11.0110      0.00000
     16      12.1267      0.00000
     17      12.5801      0.00000
     18      14.0963      0.00000
     19      17.1296      0.00000
     20      18.6844      0.00000
     21      27.0179      0.00000
     22      27.0179      0.00000
     23      28.0740      0.00000
     24      28.9191      0.00000
     25      29.6914      0.00000
     26      30.5654      0.00000
     27      30.5654      0.00000
     28      31.4378      0.00000
     29      41.6463      0.00000
     30      41.6463      0.00000
     31      43.9722      0.00000
     32      44.2186      0.00000
     33      44.4685      0.00000
     34      45.6304      0.00000
     35      45.6304      0.00000
     36      49.5509      0.00000
     37      52.5723      0.00000
     38      53.3351      0.00000
     39      53.4986      0.00000
     40      56.0463      0.00000
     41      56.0463      0.00000
     42      60.7089      0.00000
     43      60.8116      0.00000
     44      60.8116      0.00000
     45      68.6656      0.00000
     46      71.4877      0.00000
     47      74.1242      0.00000
     48      75.3286      0.00000

 k-point     7 :       0.5000    0.0000    0.0000
  band No.  band energies     occupation 
      1     -33.0155      1.00000
      2     -32.8519      1.00000
      3     -32.8519      1.00000
      4     -31.8834      1.00000
      5     -31.7118      1.00000
      6     -31.7118      1.00000
      7       6.6000      1.00000
      8       6.8786      1.00000
      9       8.5560      1.00000
     10       9.3689      1.00000
     11       9.8322      1.00000
     12       9.8322      1.00000
     13      10.8333      0.00000
     14      10.8492      0.00000
     15      10.8492      0.00000
     16      11.9835      0.00000
     17      12.7479      0.00000
     18      13.5636      0.00000
     19      17.1296      0.00000
     20      18.6844      0.00000
     21      28.2297      0.00000
     22      28.6173      0.00000
     23      28.8050      0.00000
     24      28.8050      0.00000
     25      28.8432      0.00000
     26      28.8432      0.00000
     27      30.2975      0.00000
     28      30.3907      0.00000
     29      43.2672      0.00000
     30      43.2672      0.00000
     31      43.6388      0.00000
     32      43.6388      0.00000
     33      44.2257      0.00000
     34      44.3862      0.00000
     35      47.2420      0.00000
     36      47.2872      0.00000
     37      52.6978      0.00000
     38      52.9917      0.00000
     39      56.5011      0.00000
     40      56.5242      0.00000
     41      58.2646      0.00000
     42      58.2646      0.00000
     43      58.6239      0.00000
     44      58.6239      0.00000
     45      72.0242      0.00000
     46      72.0305      0.00000
     47      72.8979      0.00000
     48      72.9663      0.00000

 k-point     8 :       0.0833    0.0833    0.0000
  band No.  band energies     occupation 
      1     -32.9456      1.00000
      2     -32.9225      1.00000
      3     -32.9223      1.00000
      4     -31.6821      1.00000
      5     -31.6575      1.00000
      6     -31.6552      1.00000
      7       3.1651      1.00000
      8       6.6362      1.00000
      9       6.6505      1.00000
     10       9.6529      1.00000
     11       9.7327      1.00000
     12       9.9404      1.00000
     13      11.7329      0.00000
     14      11.8608      0.00000
     15      12.7355      0.00000
     16      12.8433      0.00000
     17      13.2448      0.00000
     18      17.1280      0.00000
     19      18.6820      0.00000
     20      20.4208      0.00000
     21      20.8513      0.00000
     22      21.7047      0.00000
     23      27.9259      0.00000
     24      28.4676      0.00000
     25      32.0167      0.00000
     26      32.6266      0.00000
     27      32.9406      0.00000
     28      34.4947      0.00000
     29      39.1723      0.00000
     30      40.5898      0.00000
     31      41.8106      0.00000
     32      42.1890      0.00000
     33      44.7636      0.00000
     34      45.4383      0.00000
     35      47.0229      0.00000
     36      47.6401      0.00000
     37      47.7841      0.00000
     38      54.1282      0.00000
     39      55.1962      0.00000
     40      58.0219      0.00000
     41      59.2190      0.00000
     42      61.1019      0.00000
     43      61.3196      0.00000
     44      62.6424      0.00000
     45      69.5058      0.00000
     46      70.5340      0.00000
     47      71.3855      0.00000
     48      71.5054      0.00000

 k-point     9 :       0.1667    0.0833    0.0000
  band No.  band energies     occupation 
      1     -32.9623      1.00000
      2     -32.9116      1.00000
      3     -32.9090      1.00000
      4     -31.7211      1.00000
      5     -31.6674      1.00000
      6     -31.6644      1.00000
      7       3.5945      1.00000
      8       6.8441      1.00000
      9       6.8820      1.00000
     10       9.5633      1.00000
     11       9.6871      1.00000
     12      10.1309      1.00000
     13      11.4979      0.00000
     14      11.9536      0.00000
     15      12.2320      0.00000
     16      12.3781      0.00000
     17      13.1768      0.00000
     18      17.1275      0.00000
     19      18.6747      0.00000
     20      18.9486      0.00000
     21      21.5639      0.00000
     22      22.5826      0.00000
     23      28.0299      0.00000
     24      29.2499      0.00000
     25      31.0315      0.00000
     26      32.5110      0.00000
     27      33.1372      0.00000
     28      35.7646      0.00000
     29      37.8228      0.00000
     30      40.3396      0.00000
     31      40.5806      0.00000
     32      42.6868      0.00000
     33      44.9680      0.00000
     34      45.0263      0.00000
     35      48.2879      0.00000
     36      49.4386      0.00000
     37      49.5259      0.00000
     38      51.8630      0.00000
     39      53.4752      0.00000
     40      57.6853      0.00000
     41      59.7555      0.00000
     42      61.3216      0.00000
     43      62.4747      0.00000
     44      64.5340      0.00000
     45      67.8888      0.00000
     46      71.0796      0.00000
     47      72.1956      0.00000
     48      72.4668      0.00000

 k-point    10 :       0.2500    0.0833    0.0000
  band No.  band energies     occupation 
      1     -32.9836      1.00000
      2     -32.8982      1.00000
      3     -32.8901      1.00000
      4     -31.7721      1.00000
      5     -31.6815      1.00000
      6     -31.6793      1.00000
      7       4.2664      1.00000
      8       7.1312      1.00000
      9       7.2227      1.00000
     10       9.5157      1.00000
     11       9.6347      1.00000
     12      10.3353      1.00000
     13      11.0992      0.00000
     14      11.7067      0.00000
     15      11.8295      0.00000
     16      12.1250      0.00000
     17      12.9657      0.00000
     18      17.0845      0.00000
     19      17.1776      0.00000
     20      18.6852      0.00000
     21      22.7563      0.00000
     22      23.8672      0.00000
     23      28.1255      0.00000
     24      29.7856      0.00000
     25      29.9287      0.00000
     26      32.0356      0.00000
     27      33.0320      0.00000
     28      36.1990      0.00000
     29      37.9622      0.00000
     30      39.4039      0.00000
     31      39.9065      0.00000
     32      44.4392      0.00000
     33      45.0848      0.00000
     34      45.2628      0.00000
     35      49.2781      0.00000
     36      49.5748      0.00000
     37      51.2748      0.00000
     38      51.6121      0.00000
     39      51.6891      0.00000
     40      56.5676      0.00000
     41      59.7743      0.00000
     42      61.1789      0.00000
     43      63.2994      0.00000
     44      65.5945      0.00000
     45      67.8340      0.00000
     46      69.7673      0.00000
     47      70.7076      0.00000
     48      72.2956      0.00000

 k-point    11 :       0.3333    0.0833    0.0000
  band No.  band energies     occupation 
      1     -33.0040      1.00000
      2     -32.8855      1.00000
      3     -32.8708      1.00000
      4     -31.8216      1.00000
      5     -31.6959      1.00000
      6     -31.6954      1.00000
      7       5.1077      1.00000
      8       7.3290      1.00000
      9       7.6724      1.00000
     10       9.5268      1.00000
     11       9.5699      1.00000
     12      10.4417      1.00000
     13      10.6365      0.29951
     14      11.3543      0.00000
     15      11.3644      0.00000
     16      12.3310      0.00000
     17      12.6648      0.00000
     18      15.4711      0.00000
     19      17.1301      0.00000
     20      18.6845      0.00000
     21      24.1099      0.00000
     22      25.4211      0.00000
     23      28.2649      0.00000
     24      28.9128      0.00000
     25      30.2099      0.00000
     26      31.0317      0.00000
     27      32.1760      0.00000
     28      34.6397      0.00000
     29      39.5050      0.00000
     30      40.1502      0.00000
     31      40.7823      0.00000
     32      43.7582      0.00000
     33      45.2288      0.00000
     34      47.3406      0.00000
     35      48.2885      0.00000
     36      49.1517      0.00000
     37      50.1099      0.00000
     38      53.8177      0.00000
     39      53.8714      0.00000
     40      55.3744      0.00000
     41      56.9834      0.00000
     42      61.9966      0.00000
     43      62.0286      0.00000
     44      66.0127      0.00000
     45      66.0849      0.00000
     46      69.2857      0.00000
     47      70.6933      0.00000
     48      73.8667      0.00000

 k-point    12 :       0.4167    0.0833    0.0000
  band No.  band energies     occupation 
      1     -33.0183      1.00000
      2     -32.8769      1.00000
      3     -32.8564      1.00000
      4     -31.8568      1.00000
      5     -31.7079      1.00000
      6     -31.7069      1.00000
      7       5.9966      1.00000
      8       7.2537      1.00000
      9       8.1861      1.00000
     10       9.3899      1.00000
     11       9.6003      1.00000
     12      10.2916      1.00000
     13      10.2973      1.00000
     14      11.0463      0.00000
     15      11.4019      0.00000
     16      12.3396      0.00000
     17      12.5753      0.00000
     18      14.1774      0.00000
     19      17.1295      0.00000
     20      18.6842      0.00000
     21      25.4762      0.00000
     22      27.1409      0.00000
     23      27.8485      0.00000
     24      28.5999      0.00000
     25      29.9158      0.00000
     26      30.6871      0.00000
     27      30.8314      0.00000
     28      33.1225      0.00000
     29      40.4530      0.00000
     30      41.2744      0.00000
     31      42.8897      0.00000
     32      43.6167      0.00000
     33      45.5331      0.00000
     34      45.5332      0.00000
     35      47.3850      0.00000
     36      49.5951      0.00000
     37      52.0836      0.00000
     38      53.7762      0.00000
     39      54.3272      0.00000
     40      56.1103      0.00000
     41      57.0060      0.00000
     42      59.1230      0.00000
     43      60.6722      0.00000
     44      62.5282      0.00000
     45      68.1382      0.00000
     46      70.7428      0.00000
     47      71.5208      0.00000
     48      74.6098      0.00000

 k-point    13 :       0.5000    0.0833    0.0000
  band No.  band energies     occupation 
      1     -33.0234      1.00000
      2     -32.8739      1.00000
      3     -32.8510      1.00000
      4     -31.8695      1.00000
      5     -31.7126      1.00000
      6     -31.7109      1.00000
      7       6.6572      1.00000
      8       6.9018      1.00000
      9       8.5371      1.00000
     10       9.1419      1.00000
     11       9.6652      1.00000
     12      10.1655      1.00000
     13      10.2030      1.00000
     14      10.9410      0.00000
     15      11.5285      0.00000
     16      12.1531      0.00000
     17      12.7838      0.00000
     18      13.5740      0.00000
     19      17.1294      0.00000
     20      18.6841      0.00000
     21      26.6704      0.00000
     22      26.8247      0.00000
     23      28.9095      0.00000
     24      28.9619      0.00000
     25      29.0057      0.00000
     26      29.1668      0.00000
     27      31.8000      0.00000
     28      31.8040      0.00000
     29      41.5925      0.00000
     30      41.8649      0.00000
     31      42.7015      0.00000
     32      43.0924      0.00000
     33      46.0545      0.00000
     34      46.3134      0.00000
     35      47.4509      0.00000
     36      47.4651      0.00000
     37      53.3925      0.00000
     38      53.6972      0.00000
     39      55.5612      0.00000
     40      55.6472      0.00000
     41      58.2734      0.00000
     42      58.6349      0.00000
     43      59.4238      0.00000
     44      59.6530      0.00000
     45      71.1934      0.00000
     46      71.1953      0.00000
     47      71.5557      0.00000
     48      71.6138      0.00000

 k-point    14 :       0.1667    0.1667    0.0000
  band No.  band energies     occupation 
      1     -32.9817      1.00000
      2     -32.9106      1.00000
      3     -32.8974      1.00000
      4     -31.7507      1.00000
      5     -31.6751      1.00000
      6     -31.6689      1.00000
      7       3.9985      1.00000
      8       6.9998      1.00000
      9       7.1391      1.00000
     10       9.3640      1.00000
     11       9.5897      1.00000
     12      10.3610      1.00000
     13      11.5340      0.00000
     14      11.7475      0.00000
     15      11.8928      0.00000
     16      11.9657      0.00000
     17      13.3023      0.00000
     18      17.1278      0.00000
     19      18.6806      0.00000
     20      18.9958      0.00000
     21      20.5518      0.00000
     22      23.3191      0.00000
     23      28.1989      0.00000
     24      30.0370      0.00000
     25      30.3678      0.00000
     26      31.8861      0.00000
     27      33.4420      0.00000
     28      36.7328      0.00000
     29      38.7700      0.00000
     30      38.8370      0.00000
     31      39.6784      0.00000
     32      42.6474      0.00000
     33      44.2500      0.00000
     34      45.8648      0.00000
     35      49.7332      0.00000
     36      49.8778      0.00000
     37      50.4430      0.00000
     38      50.5531      0.00000
     39      53.7713      0.00000
     40      58.5478      0.00000
     41      59.4508      0.00000
     42      61.7605      0.00000
     43      62.3137      0.00000
     44      66.4205      0.00000
     45      66.4551      0.00000
     46      69.3780      0.00000
     47      70.6234      0.00000
     48      72.4952      0.00000

 k-point    15 :       0.2500    0.1667    0.0000
  band No.  band energies     occupation 
      1     -33.0052      1.00000
      2     -32.9134      1.00000
      3     -32.8814      1.00000
      4     -31.7841      1.00000
      5     -31.6858      1.00000
      6     -31.6805      1.00000
      7       4.6215      1.00000
      8       7.2049      1.00000
      9       7.5055      1.00000
     10       9.2235      1.00000
     11       9.4848      1.00000
     12      10.3964      1.00000
     13      11.3183      0.00000
     14      11.4756      0.00000
     15      11.5465      0.00000
     16      12.0206      0.00000
     17      13.2515      0.00000
     18      17.1252      0.00000
     19      17.5181      0.00000
     20      18.6832      0.00000
     21      21.1878      0.00000
     22      24.4502      0.00000
     23      28.2274      0.00000
     24      28.7401      0.00000
     25      31.1586      0.00000
     26      31.4063      0.00000
     27      33.4939      0.00000
     28      37.7121      0.00000
     29      38.2612      0.00000
     30      38.5429      0.00000
     31      39.2486      0.00000
     32      43.2783      0.00000
     33      44.2398      0.00000
     34      46.4948      0.00000
     35      47.8561      0.00000
     36      50.6618      0.00000
     37      52.1779      0.00000
     38      52.6163      0.00000
     39      52.8794      0.00000
     40      59.0133      0.00000
     41      59.0684      0.00000
     42      61.3051      0.00000
     43      62.3390      0.00000
     44      66.0173      0.00000
     45      66.7559      0.00000
     46      67.2465      0.00000
     47      70.3730      0.00000
     48      71.5261      0.00000

 k-point    16 :       0.3333    0.1667    0.0000
  band No.  band energies     occupation 
      1     -33.0261      1.00000
      2     -32.9200      1.00000
      3     -32.8651      1.00000
      4     -31.8118      1.00000
      5     -31.6968      1.00000
      6     -31.6956      1.00000
      7       5.3817      1.00000
      8       7.3370      1.00000
      9       7.9235      1.00000
     10       9.1682      1.00000
     11       9.3904      1.00000
     12      10.1046      1.00000
     13      10.9932      0.00000
     14      11.2827      0.00000
     15      11.6148      0.00000
     16      12.2425      0.00000
     17      13.0530      0.00000
     18      15.8089      0.00000
     19      17.1298      0.00000
     20      18.6835      0.00000
     21      22.3067      0.00000
     22      25.8768      0.00000
     23      27.3567      0.00000
     24      28.3380      0.00000
     25      30.2992      0.00000
     26      32.1972      0.00000
     27      32.6180      0.00000
     28      36.9305      0.00000
     29      37.7272      0.00000
     30      39.5844      0.00000
     31      40.9403      0.00000
     32      42.2040      0.00000
     33      46.1701      0.00000
     34      46.6785      0.00000
     35      47.0274      0.00000
     36      51.2955      0.00000
     37      51.5735      0.00000
     38      54.1751      0.00000
     39      54.7716      0.00000
     40      57.6102      0.00000
     41      58.5508      0.00000
     42      60.3082      0.00000
     43      60.8189      0.00000
     44      66.5092      0.00000
     45      66.6426      0.00000
     46      67.4179      0.00000
     47      67.8335      0.00000
     48      72.9519      0.00000

 k-point    17 :       0.4167    0.1667    0.0000
  band No.  band energies     occupation 
      1     -33.0401      1.00000
      2     -32.9274      1.00000
      3     -32.8528      1.00000
      4     -31.8288      1.00000
      5     -31.7087      1.00000
      6     -31.7050      1.00000
      7       6.1571      1.00000
      8       7.2306      1.00000
      9       8.3520      1.00000
     10       9.2122      1.00000
     11       9.2508      1.00000
     12       9.7472      1.00000
     13      10.7931      0.00000
     14      11.1715      0.00000
     15      11.9340      0.00000
     16      12.5417      0.00000
     17      12.7613      0.00000
     18      14.3682      0.00000
     19      17.1293      0.00000
     20      18.6836      0.00000
     21      23.5210      0.00000
     22      26.0542      0.00000
     23      27.5088      0.00000
     24      28.4942      0.00000
     25      29.4672      0.00000
     26      31.0375      0.00000
     27      33.0692      0.00000
     28      35.4733      0.00000
     29      38.6192      0.00000
     30      40.5407      0.00000
     31      41.0487      0.00000
     32      42.5871      0.00000
     33      45.7211      0.00000
     34      47.6619      0.00000
     35      48.5940      0.00000
     36      49.7891      0.00000
     37      52.4853      0.00000
     38      55.2000      0.00000
     39      56.0586      0.00000
     40      56.3251      0.00000
     41      57.9914      0.00000
     42      58.4368      0.00000
     43      60.2148      0.00000
     44      63.7754      0.00000
     45      67.1608      0.00000
     46      68.6343      0.00000
     47      68.7395      0.00000
     48      72.8508      0.00000

 k-point    18 :       0.5000    0.1667    0.0000
  band No.  band energies     occupation 
      1     -33.0449      1.00000
      2     -32.9306      1.00000
      3     -32.8483      1.00000
      4     -31.8342      1.00000
      5     -31.7139      1.00000
      6     -31.7081      1.00000
      7       6.7444      1.00000
      8       6.8858      1.00000
      9       8.6220      1.00000
     10       9.0925      1.00000
     11       9.2970      1.00000
     12       9.5464      1.00000
     13      10.7531      0.00007
     14      11.1512      0.00000
     15      12.1798      0.00000
     16      12.5294      0.00000
     17      12.8686      0.00000
     18      13.5908      0.00000
     19      17.1292      0.00000
     20      18.6836      0.00000
     21      24.7215      0.00000
     22      24.8244      0.00000
     23      28.7910      0.00000
     24      28.9182      0.00000
     25      29.2167      0.00000
     26      29.3105      0.00000
     27      34.1294      0.00000
     28      34.1820      0.00000
     29      39.6968      0.00000
     30      39.9391      0.00000
[...]
     33      48.3730      0.00000
     34      49.4648      0.00000
     35      49.4648      0.00000
     36      51.1057      0.00000
     37      51.4168      0.00000
     38      51.4168      0.00000
     39      56.2787      0.00000
     40      56.2787      0.00000
     41      57.2658      0.00000
     42      57.8193      0.00000
     43      57.8193      0.00000
     44      63.2389      0.00000
     45      63.2389      0.00000
     46      64.2642      0.00000
     47      66.1645      0.00000
     48      66.1645      0.00000

 k-point    82 :       0.5000    0.4167    0.4167
  band No.  band energies     occupation 
      1     -33.0058      1.00000
      2     -32.9954      1.00000
      3     -32.9765      1.00000
      4     -31.8419      1.00000
      5     -31.8325      1.00000
      6     -31.8216      1.00000
      7       7.8662      1.00000
      8       8.0471      1.00000
      9       8.0816      1.00000
     10       8.7007      1.00000
     11       8.7339      1.00000
     12       8.9871      1.00000
     13      11.7307      0.00000
     14      11.7462      0.00000
     15      12.5980      0.00000
     16      12.6695      0.00000
     17      17.1246      0.00000
     18      18.5558      0.00000
     19      18.5928      0.00000
     20      18.6940      0.00000
     21      20.9393      0.00000
     22      21.0957      0.00000
     23      22.0471      0.00000
     24      22.2239      0.00000
     25      24.1148      0.00000
     26      24.4982      0.00000
     27      42.4225      0.00000
     28      42.4588      0.00000
     29      44.0931      0.00000
     30      44.1342      0.00000
     31      46.8610      0.00000
     32      47.1344      0.00000
     33      47.2607      0.00000
     34      47.5993      0.00000
     35      50.1028      0.00000
     36      50.2329      0.00000
     37      50.7591      0.00000
     38      50.8442      0.00000
     39      56.9856      0.00000
     40      57.0634      0.00000
     41      57.3339      0.00000
     42      57.4495      0.00000
     43      60.1058      0.00000
     44      60.2441      0.00000
     45      64.4782      0.00000
     46      64.6640      0.00000
     47      64.9438      0.00000
     48      65.1114      0.00000

 k-point    83 :       0.5000    0.5000    0.4167
  band No.  band energies     occupation 
      1     -32.9966      1.00000
      2     -32.9966      1.00000
      3     -32.9755      1.00000
      4     -31.8413      1.00000
      5     -31.8413      1.00000
      6     -31.8408      1.00000
      7       7.9491      1.00000
      8       8.0717      1.00000
      9       8.0717      1.00000
     10       8.5735      1.00000
     11       8.9211      1.00000
     12       8.9211      1.00000
     13      11.7159      0.00000
     14      11.7402      0.00000
     15      12.6389      0.00000
     16      12.7011      0.00000
     17      17.1246      0.00000
     18      18.6746      0.00000
     19      19.2638      0.00000
     20      19.2638      0.00000
     21      20.5199      0.00000
     22      20.6592      0.00000
     23      22.2489      0.00000
     24      22.2489      0.00000
     25      23.2304      0.00000
     26      23.7434      0.00000
     27      43.3585      0.00000
     28      43.3585      0.00000
     29      45.7067      0.00000
     30      45.7067      0.00000
     31      46.3005      0.00000
     32      46.4476      0.00000
     33      47.0416      0.00000
     34      47.4172      0.00000
     35      48.9744      0.00000
     36      48.9744      0.00000
     37      50.1301      0.00000
     38      50.1301      0.00000
     39      57.2436      0.00000
     40      57.6749      0.00000
     41      57.8241      0.00000
     42      58.3650      0.00000
     43      60.7147      0.00000
     44      60.7147      0.00000
     45      63.1136      0.00000
     46      63.1428      0.00000
     47      65.5952      0.00000
     48      65.5952      0.00000

 k-point    84 :       0.5000    0.5000    0.5000
  band No.  band energies     occupation 
      1     -32.9856      1.00000
      2     -32.9856      1.00000
      3     -32.9856      1.00000
      4     -31.8515      1.00000
      5     -31.8515      1.00000
      6     -31.8515      1.00000
      7       8.0811      1.00000
      8       8.0811      1.00000
      9       8.0811      1.00000
     10       8.7790      1.00000
     11       8.7790      1.00000
     12       8.7790      1.00000
     13      11.7197      0.00000
     14      11.7197      0.00000
     15      12.7051      0.00000
     16      12.7051      0.00000
     17      17.1244      0.00000
     18      18.6753      0.00000
     19      20.6430      0.00000
     20      20.6430      0.00000
     21      20.6430      0.00000
     22      20.8532      0.00000
     23      20.8532      0.00000
     24      20.8532      0.00000
     25      22.6154      0.00000
     26      23.1882      0.00000
     27      46.1855      0.00000
     28      46.1855      0.00000
     29      46.1855      0.00000
     30      46.3338      0.00000
     31      46.3338      0.00000
     32      46.3338      0.00000
     33      47.3981      0.00000
     34      47.3981      0.00000
     35      47.3981      0.00000
     36      47.7511      0.00000
     37      47.7511      0.00000
     38      47.7511      0.00000
     39      57.9149      0.00000
     40      57.9149      0.00000
     41      58.4574      0.00000
     42      58.4574      0.00000
     43      63.1068      0.00000
     44      63.1068      0.00000
     45      63.1068      0.00000
     46      63.1879      0.00000
     47      63.1879      0.00000
     48      63.1879      0.00000


--------------------------------------------------------------------------------------------------------


 soft charge-density along one line, spin component           1
         0         1         2         3         4         5         6         7         8         9
 total charge-density along one line
 
 soft charge-density along one line, spin component           2
         0         1         2         3         4         5         6         7         8         9
 total charge-density along one line
 
 pseudopotential strength for first ion, spin component:           1
-34.040   0.000   0.000   7.393  -0.000  -0.000   0.000  -0.000
  0.000 -34.040  -0.000  -0.000   7.393   0.000   0.000  -0.000
  0.000  -0.000 -34.040  -0.000   0.000   7.393  -0.000   0.000
  7.393  -0.000  -0.000   5.261   0.000   0.000   0.000   0.000
 -0.000   7.393   0.000   0.000   5.261   0.000  -0.000   0.000
 -0.000   0.000   7.393   0.000   0.000   5.261   0.000  -0.000
  0.000   0.000  -0.000   0.000  -0.000   0.000  -0.853  -0.000
 -0.000  -0.000   0.000   0.000   0.000  -0.000  -0.000  -0.853
  0.000  -0.000   0.000  -0.000   0.000   0.000  -0.000   0.000
  0.000  -0.000  -0.000  -0.000   0.000   0.000  -0.000   0.000
  0.000  -0.000  -0.000  -0.000   0.000  -0.000   0.000  -0.000
 -0.000   0.000  -0.000  -0.000  -0.000   0.000  -1.319  -0.000
 -0.000  -0.000   0.000   0.000   0.000  -0.000  -0.000  -1.319
  0.000  -0.000   0.000  -0.000   0.000  -0.000  -0.000   0.000
  0.000  -0.000  -0.000  -0.000  -0.000   0.000  -0.000   0.000
  0.000  -0.000  -0.000  -0.000   0.000   0.000   0.000  -0.000
  0.000   0.000  -0.000  -0.000  -0.000  -0.000  -0.000  -0.000
  0.000   0.000  -0.000   0.000   0.000   0.000  -0.000  -0.000
 pseudopotential strength for first ion, spin component:           2
-33.378   0.000   0.000   7.036  -0.000  -0.000  -0.000  -0.000
  0.000 -33.378   0.000  -0.000   7.036  -0.000   0.000  -0.000
  0.000   0.000 -33.378  -0.000  -0.000   7.036  -0.000   0.000
  7.036  -0.000  -0.000   5.398   0.000   0.000   0.000   0.000
 -0.000   7.036  -0.000   0.000   5.398   0.000  -0.000   0.000
 -0.000  -0.000   7.036   0.000   0.000   5.398   0.000  -0.000
 -0.000   0.000  -0.000   0.000  -0.000   0.000  -0.184  -0.000
 -0.000  -0.000   0.000   0.000   0.000  -0.000  -0.000  -0.184
  0.000  -0.000   0.000  -0.000   0.000  -0.000  -0.000   0.000
  0.000  -0.000  -0.000  -0.000   0.000   0.000  -0.000   0.000
  0.000  -0.000  -0.000  -0.000   0.000   0.000   0.000  -0.000
 -0.000   0.000  -0.000   0.000  -0.000   0.000  -0.651  -0.000
 -0.000  -0.000   0.000   0.000   0.000  -0.000  -0.000  -0.651
  0.000  -0.000   0.000  -0.000   0.000  -0.000  -0.000   0.000
  0.000  -0.000  -0.000  -0.000   0.000   0.000  -0.000   0.000
  0.000  -0.000  -0.000  -0.000   0.000   0.000   0.000  -0.000
  0.000   0.000   0.000  -0.000  -0.000  -0.000  -0.000  -0.000
  0.000   0.000   0.000   0.000   0.000   0.000  -0.000  -0.000
 total augmentation occupancy for first ion, spin component:           1
  1.986   0.000   0.000  -0.045  -0.000  -0.000   0.000   0.000  -0.000   0.000  -0.000  -0.000  -0.000   0.000   0.000   0.000
  0.000   1.986   0.000  -0.000  -0.045  -0.000   0.000  -0.000  -0.000   0.000   0.000   0.000   0.000   0.000   0.000   0.000
  0.000   0.000   1.986  -0.000  -0.000  -0.045   0.000   0.000  -0.000   0.000  -0.000  -0.000   0.000  -0.000  -0.000   0.000
 -0.045  -0.000  -0.000   0.194   0.000   0.000  -0.000   0.000  -0.000  -0.000   0.000   0.000   0.000   0.000  -0.000   0.000
 -0.000  -0.045  -0.000   0.000   0.194   0.000   0.000   0.000   0.000   0.000  -0.000   0.000   0.000  -0.000   0.000   0.000
 -0.000  -0.000  -0.045   0.000   0.000   0.194   0.000   0.000  -0.000   0.000   0.000  -0.000  -0.000   0.000  -0.000  -0.000
 -0.000   0.000   0.000   0.000  -0.000   0.000   0.873   0.000  -0.000   0.000   0.000  -0.697  -0.000   0.000  -0.000   0.000
  0.000   0.000   0.000  -0.000   0.000   0.000   0.000   0.873   0.000   0.000  -0.000  -0.000  -0.697  -0.000  -0.000   0.000
  0.000   0.000   0.000   0.000   0.000  -0.000  -0.000   0.000   0.602   0.000   0.000   0.000  -0.000  -0.850  -0.000  -0.000
  0.000  -0.000   0.000   0.000   0.000   0.000   0.000   0.000   0.000   0.873   0.000  -0.000  -0.000  -0.000  -0.697  -0.000
 -0.000  -0.000   0.000  -0.000   0.000   0.000   0.000  -0.000   0.000   0.000   0.602   0.000   0.000  -0.000  -0.000  -0.850
  0.000   0.000  -0.000  -0.000  -0.000  -0.000  -0.697  -0.000   0.000  -0.000   0.000   1.557   0.000  -0.000   0.000  -0.000
 -0.000  -0.000   0.000   0.000   0.000  -0.000  -0.000  -0.697  -0.000  -0.000   0.000   0.000   1.557   0.000   0.000  -0.000
 -0.000  -0.000   0.000  -0.000   0.000   0.000   0.000  -0.000  -0.850  -0.000  -0.000  -0.000   0.000   1.744   0.000   0.000
 -0.000   0.000   0.000  -0.000  -0.000  -0.000  -0.000  -0.000  -0.000  -0.697  -0.000   0.000   0.000   0.000   1.557   0.000
 -0.000  -0.000   0.000  -0.000   0.000   0.000   0.000   0.000  -0.000  -0.000  -0.850  -0.000  -0.000   0.000   0.000   1.744
  0.000   0.000   0.000  -0.000  -0.000  -0.000  -0.000  -0.000  -0.000  -0.000  -0.000   0.000   0.000  -0.000   0.000   0.000
  0.000   0.000  -0.000  -0.000   0.000   0.000   0.000   0.000  -0.000   0.000  -0.000  -0.000  -0.000   0.000   0.000   0.000
 total augmentation occupancy for first ion, spin component:           2
 -0.000  -0.000  -0.000  -0.001  -0.000  -0.000  -0.000  -0.000  -0.000   0.000   0.000   0.000   0.000   0.000   0.000   0.000
 -0.000  -0.000  -0.000  -0.000  -0.001  -0.000   0.000  -0.000  -0.000  -0.000   0.000  -0.000   0.000  -0.000   0.000  -0.000
 -0.000  -0.000  -0.000  -0.000  -0.000  -0.001   0.000   0.000   0.000  -0.000  -0.000   0.000  -0.000   0.000   0.000   0.000
 -0.001  -0.000  -0.000   0.004   0.000   0.000   0.000  -0.000   0.000   0.000  -0.000  -0.000   0.000   0.000  -0.000   0.000
 -0.000  -0.001  -0.000   0.000   0.004   0.000   0.000   0.000  -0.000   0.000   0.000  -0.000   0.000  -0.000   0.000   0.000
 -0.000  -0.000  -0.001   0.000   0.000   0.004  -0.000   0.000  -0.000  -0.000   0.000  -0.000   0.000   0.000   0.000  -0.000
 -0.000   0.000   0.000   0.000   0.000  -0.000   0.292   0.000  -0.000   0.000   0.000   0.248   0.000  -0.000   0.000  -0.000
  0.000   0.000   0.000  -0.000   0.000   0.000   0.000   0.292   0.000   0.000   0.000   0.000   0.248   0.000   0.000  -0.000
  0.000   0.000   0.000   0.000   0.000   0.000  -0.000   0.000  -0.111   0.000  -0.000  -0.000   0.000   0.271   0.000   0.000
  0.000  -0.000   0.000   0.000   0.000  -0.000   0.000   0.000   0.000   0.292  -0.000   0.000   0.000   0.000   0.248   0.000
  0.000  -0.000  -0.000  -0.000  -0.000   0.000   0.000   0.000  -0.000  -0.000  -0.111  -0.000  -0.000   0.000   0.000   0.271
 -0.000   0.000   0.000   0.000   0.000  -0.000   0.248   0.000  -0.000   0.000  -0.000  -0.444  -0.000   0.000  -0.000  -0.000
  0.000   0.000   0.000   0.000   0.000   0.000   0.000   0.248   0.000   0.000  -0.000  -0.000  -0.444  -0.000  -0.000   0.000
  0.000   0.000   0.000   0.000  -0.000   0.000  -0.000   0.000   0.271   0.000   0.000   0.000  -0.000  -0.260  -0.000  -0.000
  0.000   0.000  -0.000  -0.000   0.000   0.000   0.000   0.000   0.000   0.248   0.000  -0.000  -0.000  -0.000  -0.444  -0.000
 -0.000   0.000  -0.000   0.000   0.000  -0.000  -0.000  -0.000   0.000   0.000   0.271  -0.000   0.000   0.000  -0.000  -0.260
  0.000   0.000  -0.000   0.000   0.000  -0.000   0.000  -0.000  -0.000  -0.000   0.000   0.000   0.000  -0.000   0.000   0.000
  0.000   0.000   0.000   0.000   0.000   0.000   0.000   0.000   0.000   0.000  -0.000  -0.000  -0.000   0.000   0.000   0.000


------------------------ aborting loop because EDIFF is reached ----------------------------------------





 total charge

# of ion       s       p       d       tot
------------------------------------------
    1        0.432   6.389   4.186  11.006
    2        0.432   6.389   4.186  11.006
--------------------------------------------------
tot          0.863  12.778   8.372  22.012



 magnetization (x)

# of ion       s       p       d       tot
------------------------------------------
    1        0.014   0.009   1.114   1.137
    2       -0.014  -0.009  -1.114  -1.137
--------------------------------------------------
tot          0.000   0.000   0.000   0.000
 
    CHARGE:  cpu time      0.0053: real time      0.0053
    FORLOC:  cpu time      0.0001: real time      0.0002
    FORNL :  cpu time      0.0139: real time      0.0139
    STRESS:  cpu time      0.0825: real time      0.0825
    FORCOR:  cpu time      0.0029: real time      0.0031
    FORHAR:  cpu time      0.0005: real time      0.0006
    MIXING:  cpu time      0.0006: real time      0.0006
    OFIELD:  cpu time      0.0000: real time      0.0001

  FORCE on cell =-STRESS in cart. coord.  units (eV):
  Direction    XX          YY          ZZ          XY          YZ          ZX
  --------------------------------------------------------------------------------------
  Alpha Z   176.69251   176.69251   176.69251
  Ewald    -876.14100  -876.14100  -876.14100    -0.00000     0.00000     0.00000
  Hartree   193.80341   193.80341   193.80341    -0.00000    -0.00000    -0.00000
  E(xc)    -131.36454  -131.36454  -131.36454     0.00000     0.00000    -0.00000
  Local     227.24369   227.24369   227.24369     0.00000     0.00000    -0.00000
  n-local   -71.36771   -62.72785   -56.80615     1.77348    -0.71661     0.28252
  augment   181.54698   181.54698   181.54698     0.00000     0.00000    -0.00000
  Kinetic   285.85083   290.41259   298.47308     5.74533    -1.79766     1.31475
  Fock        0.00000     0.00000     0.00000     0.00000     0.00000     0.00000
  -------------------------------------------------------------------------------------
  Total      -0.27401    -0.27401    -0.27401    -0.00000    -0.00000     0.00000
  in kB     -18.55162   -18.55162   -18.55162    -0.00000    -0.00000     0.00000
  external pressure =      -18.55 kB  Pullay stress =        0.00 kB


 VOLUME and BASIS-vectors are now :
 -----------------------------------------------------------------------------
  energy-cutoff  :      345.39
  volume of cell :       23.66
      direct lattice vectors                 reciprocal lattice vectors
     2.871000000  0.000000000  0.000000000     0.348310693 -0.000000000  0.000000000
     0.000000000  2.871000000  0.000000000     0.000000000  0.348310693  0.000000000
     0.000000000  0.000000000  2.871000000    -0.000000000 -0.000000000  0.348310693

  length of vectors
     2.871000000  2.871000000  2.871000000     0.348310693  0.348310693  0.348310693


 FORCES acting on ions
    electron-ion (+dipol)            ewald-force                    non-local-force                 convergence-correction
 -----------------------------------------------------------------------------------------------
   -.514E-13 -.437E-13 -.527E-13   0.623E-15 0.417E-14 -.561E-14   0.504E-26 0.850E-26 -.688E-26   0.114E-13 -.150E-13 -.402E-13
   0.353E-12 -.171E-11 0.715E-13   0.288E-14 -.492E-14 0.583E-14   -.207E-25 -.165E-25 0.856E-26   -.806E-15 -.477E-14 -.290E-13
 -----------------------------------------------------------------------------------------------
   0.302E-12 -.175E-11 0.188E-13   0.350E-14 -.749E-15 0.222E-15   -.157E-25 -.802E-26 0.168E-26   0.106E-13 -.197E-13 -.691E-13
 
 
 POSITION                                       TOTAL-FORCE (eV/Angst)
 -----------------------------------------------------------------------------------
      0.00000      0.00000      0.00000        -0.000000      0.000000      0.000000
      1.43550      1.43550      1.43550         0.000000     -0.000000     -0.000000
 -----------------------------------------------------------------------------------
    total drift:                                0.000000     -0.000000     -0.000000


--------------------------------------------------------------------------------------------------------



  FREE ENERGIE OF THE ION-ELECTRON SYSTEM (eV)
  ---------------------------------------------------
  free  energy   TOTEN  =       -19.05377233 eV

  energy  without entropy=      -19.05296146  energy(sigma->0) =      -19.05336690
 


--------------------------------------------------------------------------------------------------------


    POTLOK:  cpu time      0.0076: real time      0.0076


--------------------------------------------------------------------------------------------------------


 writing wavefunctions
     LOOP+:  cpu time      2.3767: real time      2.3988
    4ORBIT:  cpu time      0.0000: real time      0.0000



 total charge

# of ion       s       p       d       tot
------------------------------------------
    1        0.432   6.389   4.186  11.006
    2        0.432   6.389   4.186  11.006
--------------------------------------------------
tot          0.863  12.778   8.372  22.012



 magnetization (x)

# of ion       s       p       d       tot
------------------------------------------
    1        0.014   0.009   1.114   1.137
    2       -0.014  -0.009  -1.114  -1.137
--------------------------------------------------
tot          0.000   0.000   0.000   0.000
 

 total amount of memory used by VASP MPI-rank0    36213. kBytes
=======================================================================

   base      :      30000. kBytes
   nonl-proj :       4657. kBytes
   fftplans  :         48. kBytes
   grid      :        285. kBytes
   one-center:         62. kBytes
   wavefun   :       1161. kBytes
 
  
  
 General timing and accounting informations for this job:
 ========================================================
  
                  Total CPU time used (sec):        3.393
                            User time (sec):        3.121
                          System time (sec):        0.272
                         Elapsed time (sec):        3.746
  
                   Maximum memory used (kb):      197496.
                   Average memory used (kb):          N/A
  
                          Minor page faults:        20223
                          Major page faults:            0
                 Voluntary context switches:         4555
