PROCAR lm decomposed
# of k-points:   84         # of bands:   48         # of ions:    2

 k-point     1 :    0.00000000 0.00000000 0.00000000     weight = 0.00057870

band     1 # energy  -32.93235951 # occ.  1.00000000
 
ion      s     py     pz     px    dxy    dyz    dz2    dxz  x2-y2    tot
    1  0.000  0.125  0.250  0.563  0.000  0.000  0.000  0.000  0.000  0.937
    2  0.000  0.007  0.014  0.033  0.000  0.000  0.000  0.000  0.000  0.054
tot    0.000  0.132  0.264  0.596  0.000  0.000  0.000  0.000  0.000  0.992
 
band     2 # energy  -32.93235951 # occ.  1.00000000
 
ion      s     py     pz     px    dxy    dyz    dz2    dxz  x2-y2    tot
    1  0.000  0.385  0.277  0.275  0.000  0.000  0.000  0.000  0.000  0.937
    2  0.000  0.022  0.016  0.016  0.000  0.000  0.000  0.000  0.000  0.054
tot    0.000  0.408  0.293  0.290  0.000  0.000  0.000  0.000  0.000  0.992
 
band     3 # energy  -32.93235951 # occ.  1.00000000
 
ion      s     py     pz     px    dxy    dyz    dz2    dxz  x2-y2    tot
    1  0.000  0.427  0.410  0.100  0.000  0.000  0.000  0.000  0.000  0.937
    2  0.000  0.025  0.024  0.006  0.000  0.000  0.000  0.000  0.000  0.054
tot    0.000  0.452  0.434  0.106  0.000  0.000  0.000  0.000  0.000  0.992
 
band     4 # energy  -31.64994877 # occ.  1.00000000
 
ion      s     py     pz     px    dxy    dyz    dz2    dxz  x2-y2    tot
    1  0.000  0.038  0.017  0.001  0.000  0.000  0.000  0.000  0.000  0.057
    2  0.000  0.633  0.282  0.025  0.000  0.000  0.000  0.000  0.000  0.940
tot    0.000  0.671  0.299  0.026  0.000  0.000  0.000  0.000  0.000  0.996
 
band     5 # energy  -31.64994877 # occ.  1.00000000
 
ion      s     py     pz     px    dxy    dyz    dz2    dxz  x2-y2    tot
    1  0.000  0.010  0.008  0.039  0.000  0.000  0.000  0.000  0.000  0.057
    2  0.000  0.159  0.134  0.646  0.000  0.000  0.000  0.000  0.000  0.940
tot    0.000  0.169  0.142  0.685  0.000  0.000  0.000  0.000  0.000  0.996
 
band     6 # energy  -31.64994877 # occ.  1.00000000
 
ion      s     py     pz     px    dxy    dyz    dz2    dxz  x2-y2    tot
    1  0.000  0.009  0.032  0.016  0.000  0.000  0.000  0.000  0.000  0.057
    2  0.000  0.147  0.524  0.269  0.000  0.000  0.000  0.000  0.000  0.940
tot    0.000  0.156  0.555  0.285  0.000  0.000  0.000  0.000  0.000  0.996
 
band     7 # energy    2.86794590 # occ.  1.00000000
 
ion      s     py     pz     px    dxy    dyz    dz2    dxz  x2-y2    tot
    1  0.322  0.000  0.000  0.000  0.000  0.000  0.000  0.000  0.000  0.322
    2  0.308  0.000  0.000  0.000  0.000  0.000  0.000  0.000  0.000  0.308
tot    0.630  0.000  0.000  0.000  0.000  0.000  0.000  0.000  0.000  0.630
 
band     8 # energy    6.48573294 # occ.  1.00000000
 
ion      s     py     pz     px    dxy    dyz    dz2    dxz  x2-y2    tot
    1  0.000  0.000  0.000  0.000  0.000  0.000  0.131  0.000  0.349  0.480
    2  0.000  0.000  0.000  0.000  0.000  0.000  0.095  0.000  0.253  0.348
tot    0.000  0.000  0.000  0.000  0.000  0.000  0.225  0.000  0.602  0.828
 
band     9 # energy    6.48573294 # occ.  1.00000000
 
ion      s     py     pz     px    dxy    dyz    dz2    dxz  x2-y2    tot
    1  0.000  0.000  0.000  0.000  0.000  0.000  0.349  0.000  0.131  0.480
    2  0.000  0.000  0.000  0.000  0.000  0.000  0.253  0.000  0.095  0.348
tot    0.000  0.000  0.000  0.000  0.000  0.000  0.602  0.000  0.225  0.828
 
band    10 # energy    9.76184852 # occ.  1.00000000
 
ion      s     py     pz     px    dxy    dyz    dz2    dxz  x2-y2    tot
    1  0.000  0.000  0.000  0.000  0.236  0.232  0.000  0.179  0.000  0.647
    2  0.000  0.000  0.000  0.000  0.119  0.117  0.000  0.090  0.000  0.327
tot    0.000  0.000  0.000  0.000  0.355  0.349  0.000  0.269  0.000  0.973
 
band    11 # energy    9.76184852 # occ.  1.00000000
 
ion      s     py     pz     px    dxy    dyz    dz2    dxz  x2-y2    tot
    1  0.000  0.000  0.000  0.000  0.274  0.349  0.000  0.024  0.000  0.647
    2  0.000  0.000  0.000  0.000  0.139  0.176  0.000  0.012  0.000  0.327
tot    0.000  0.000  0.000  0.000  0.413  0.525  0.000  0.035  0.000  0.973
 
band    12 # energy    9.76184852 # occ.  1.00000000
 
ion      s     py     pz     px    dxy    dyz    dz2    dxz  x2-y2    tot
    1  0.000  0.000  0.000  0.000  0.136  0.066  0.000  0.444  0.000  0.647
    2  0.000  0.000  0.000  0.000  0.069  0.033  0.000  0.225  0.000  0.327
tot    0.000  0.000  0.000  0.000  0.205  0.099  0.000  0.669  0.000  0.973
 
band    13 # energy   11.85262212 # occ.  0.00000000
 
ion      s     py     pz     px    dxy    dyz    dz2    dxz  x2-y2    tot
    1  0.000  0.000  0.000  0.000  0.000  0.000  0.176  0.000  0.244  0.420
    2  0.000  0.000  0.000  0.000  0.000  0.000  0.225  0.000  0.312  0.537
tot    0.000  0.000  0.000  0.000  0.000  0.000  0.401  0.000  0.556  0.957
 
band    14 # energy   11.85262212 # occ.  0.00000000
 
ion      s     py     pz     px    dxy    dyz    dz2    dxz  x2-y2    tot
    1  0.000  0.000  0.000  0.000  0.000  0.000  0.244  0.000  0.176  0.420
    2  0.000  0.000  0.000  0.000  0.000  0.000  0.312  0.000  0.225  0.537
tot    0.000  0.000  0.000  0.000  0.000  0.000  0.556  0.000  0.401  0.957
 
band    15 # energy   13.22474281 # occ.  0.00000000
 
ion      s     py     pz     px    dxy    dyz    dz2    dxz  x2-y2    tot
    1  0.000  0.000  0.000  0.000  0.115  0.051  0.000  0.169  0.000  0.334
    2  0.000  0.000  0.000  0.000  0.223  0.099  0.000  0.328  0.000  0.651
tot    0.000  0.000  0.000  0.000  0.338  0.150  0.000  0.497  0.000  0.985
 
band    16 # energy   13.22474281 # occ.  0.00000000
 
ion      s     py     pz     px    dxy    dyz    dz2    dxz  x2-y2    tot
    1  0.000  0.000  0.000  0.000  0.153  0.027  0.000  0.155  0.000  0.334
    2  0.000  0.000  0.000  0.000  0.297  0.052  0.000  0.302  0.000  0.651
tot    0.000  0.000  0.000  0.000  0.450  0.079  0.000  0.457  0.000  0.985
 
band    17 # energy   13.22474281 # occ.  0.00000000
 
ion      s     py     pz     px    dxy    dyz    dz2    dxz  x2-y2    tot
    1  0.000  0.000  0.000  0.000  0.067  0.256  0.000  0.011  0.000  0.334
    2  0.000  0.000  0.000  0.000  0.131  0.500  0.000  0.021  0.000  0.651
tot    0.000  0.000  0.000  0.000  0.198  0.756  0.000  0.031  0.000  0.985
 
band    18 # energy   17.12834983 # occ.  0.00000000
 
ion      s     py     pz     px    dxy    dyz    dz2    dxz  x2-y2    tot
    1 12.452  0.000  0.000  0.000  0.000  0.000  0.000  0.000  0.000 12.452
    2  0.000  0.000  0.000  0.000  0.000  0.000  0.000  0.000  0.000  0.000
tot   12.452  0.000  0.000  0.000  0.000  0.000  0.000  0.000  0.000 12.452
 
band    19 # energy   18.68276229 # occ.  0.00000000
 
ion      s     py     pz     px    dxy    dyz    dz2    dxz  x2-y2    tot
    1  0.000  0.000  0.000  0.000  0.000  0.000  0.000  0.000  0.000  0.000
    2 12.467  0.000  0.000  0.000  0.000  0.000  0.000  0.000  0.000 12.467
tot   12.467  0.000  0.000  0.000  0.000  0.000  0.000  0.000  0.000 12.467
 
band    20 # energy   21.04087963 # occ.  0.00000000
 
ion      s     py     pz     px    dxy    dyz    dz2    dxz  x2-y2    tot
    1  0.000  0.092  0.268  0.044  0.000  0.000  0.000  0.000  0.000  0.404
    2  0.000  0.085  0.248  0.040  0.000  0.000  0.000  0.000  0.000  0.373
tot    0.000  0.177  0.516  0.084  0.000  0.000  0.000  0.000  0.000  0.777
 
band    21 # energy   21.04087963 # occ.  0.00000000
 
ion      s     py     pz     px    dxy    dyz    dz2    dxz  x2-y2    tot
    1  0.000  0.276  0.049  0.079  0.000  0.000  0.000  0.000  0.000  0.404
    2  0.000  0.255  0.045  0.074  0.000  0.000  0.000  0.000  0.000  0.373
tot    0.000  0.531  0.094  0.153  0.000  0.000  0.000  0.000  0.000  0.777
 
band    22 # energy   21.04087963 # occ.  0.00000000
 
ion      s     py     pz     px    dxy    dyz    dz2    dxz  x2-y2    tot
    1  0.000  0.036  0.087  0.281  0.000  0.000  0.000  0.000  0.000  0.404
    2  0.000  0.033  0.080  0.260  0.000  0.000  0.000  0.000  0.000  0.373
tot    0.000  0.070  0.167  0.540  0.000  0.000  0.000  0.000  0.000  0.777
 
band    23 # energy   27.70060759 # occ.  0.00000000
 
ion      s     py     pz     px    dxy    dyz    dz2    dxz  x2-y2    tot
    1  0.000  0.000  0.000  0.000  0.000  0.000  0.418  0.000  0.003  0.421
    2  0.000  0.000  0.000  0.000  0.000  0.000  0.404  0.000  0.002  0.406
tot    0.000  0.000  0.000  0.000  0.000  0.000  0.822  0.000  0.005  0.827
 
band    24 # energy   27.70060759 # occ.  0.00000000
 
ion      s     py     pz     px    dxy    dyz    dz2    dxz  x2-y2    tot
    1  0.000  0.000  0.000  0.000  0.000  0.000  0.003  0.000  0.418  0.421
    2  0.000  0.000  0.000  0.000  0.000  0.000  0.002  0.000  0.404  0.406
tot    0.000  0.000  0.000  0.000  0.000  0.000  0.005  0.000  0.822  0.827
 
band    25 # energy   32.74333044 # occ.  0.00000000
 
ion      s     py     pz     px    dxy    dyz    dz2    dxz  x2-y2    tot
    1  0.000  0.000  0.000  0.000  0.000  0.000  0.000  0.000  0.000  0.000
    2  0.000  0.000  0.000  0.000  0.000  0.000  0.000  0.000  0.000  0.000
tot    0.000  0.000  0.000  0.000  0.000  0.000  0.000  0.000  0.000  0.000
 
band    26 # energy   32.74333044 # occ.  0.00000000
 
ion      s     py     pz     px    dxy    dyz    dz2    dxz  x2-y2    tot
    1  0.000  0.000  0.000  0.000  0.000  0.000  0.000  0.000  0.000  0.000
    2  0.000  0.000  0.000  0.000  0.000  0.000  0.000  0.000  0.000  0.000
tot    0.000  0.000  0.000  0.000  0.000  0.000  0.000  0.000  0.000  0.000
 
band    27 # energy   32.74333044 # occ.  0.00000000
 
ion      s     py     pz     px    dxy    dyz    dz2    dxz  x2-y2    tot
    1  0.000  0.000  0.000  0.000  0.000  0.000  0.000  0.000  0.000  0.000
    2  0.000  0.000  0.000  0.000  0.000  0.000  0.000  0.000  0.000  0.000
tot    0.000  0.000  0.000  0.000  0.000  0.000  0.000  0.000  0.000  0.000
 
band    28 # energy   33.70454762 # occ.  0.00000000
 
ion      s     py     pz     px    dxy    dyz    dz2    dxz  x2-y2    tot
    1  0.456  0.000  0.000  0.000  0.000  0.000  0.000  0.000  0.000  0.456
    2  0.455  0.000  0.000  0.000  0.000  0.000  0.000  0.000  0.000  0.455
tot    0.912  0.000  0.000  0.000  0.000  0.000  0.000  0.000  0.000  0.912
 
band    29 # energy   40.02697482 # occ.  0.00000000
 
ion      s     py     pz     px    dxy    dyz    dz2    dxz  x2-y2    tot
    1  0.000  0.000  0.000  0.000  0.000  0.000  0.241  0.000  0.012  0.254
    2  0.000  0.000  0.000  0.000  0.000  0.000  0.261  0.000  0.013  0.274
tot    0.000  0.000  0.000  0.000  0.000  0.000  0.502  0.000  0.026  0.528
 
band    30 # energy   40.02697482 # occ.  0.00000000
 
ion      s     py     pz     px    dxy    dyz    dz2    dxz  x2-y2    tot
    1  0.000  0.000  0.000  0.000  0.000  0.000  0.012  0.000  0.241  0.254
    2  0.000  0.000  0.000  0.000  0.000  0.000  0.013  0.000  0.261  0.274
tot    0.000  0.000  0.000  0.000  0.000  0.000  0.026  0.000  0.502  0.528
 
band    31 # energy   44.41016332 # occ.  0.00000000
 
ion      s     py     pz     px    dxy    dyz    dz2    dxz  x2-y2    tot
    1  0.000  0.000  0.000  0.000  0.015  0.637  0.000  0.041  0.000  0.694
    2  0.000  0.000  0.000  0.000  0.014  0.598  0.000  0.039  0.000  0.651
tot    0.000  0.000  0.000  0.000  0.030  1.235  0.000  0.080  0.000  1.345
 
band    32 # energy   44.41016332 # occ.  0.00000000
 
ion      s     py     pz     px    dxy    dyz    dz2    dxz  x2-y2    tot
    1  0.000  0.000  0.000  0.000  0.004  0.042  0.000  0.648  0.000  0.694
    2  0.000  0.000  0.000  0.000  0.004  0.039  0.000  0.608  0.000  0.651
tot    0.000  0.000  0.000  0.000  0.008  0.081  0.000  1.256  0.000  1.345
 
band    33 # energy   44.41016332 # occ.  0.00000000
 
ion      s     py     pz     px    dxy    dyz    dz2    dxz  x2-y2    tot
    1  0.000  0.000  0.000  0.000  0.674  0.015  0.000  0.004  0.000  0.694
    2  0.000  0.000  0.000  0.000  0.633  0.014  0.000  0.004  0.000  0.651
tot    0.000  0.000  0.000  0.000  1.307  0.029  0.000  0.009  0.000  1.345
 
band    34 # energy   45.28272481 # occ.  0.00000000
 
ion      s     py     pz     px    dxy    dyz    dz2    dxz  x2-y2    tot
    1  0.000  0.399  0.344  0.081  0.000  0.000  0.000  0.000  0.000  0.825
    2  0.000  0.381  0.329  0.078  0.000  0.000  0.000  0.000  0.000  0.789
tot    0.000  0.780  0.674  0.159  0.000  0.000  0.000  0.000  0.000  1.613
 
band    35 # energy   45.28272481 # occ.  0.00000000
 
ion      s     py     pz     px    dxy    dyz    dz2    dxz  x2-y2    tot
    1  0.000  0.382  0.337  0.106  0.000  0.000  0.000  0.000  0.000  0.825
    2  0.000  0.365  0.322  0.101  0.000  0.000  0.000  0.000  0.000  0.789
tot    0.000  0.747  0.660  0.207  0.000  0.000  0.000  0.000  0.000  1.613
 
band    36 # energy   45.28272481 # occ.  0.00000000
 
ion      s     py     pz     px    dxy    dyz    dz2    dxz  x2-y2    tot
    1  0.000  0.044  0.143  0.638  0.000  0.000  0.000  0.000  0.000  0.825
    2  0.000  0.042  0.137  0.610  0.000  0.000  0.000  0.000  0.000  0.789
tot    0.000  0.086  0.280  1.247  0.000  0.000  0.000  0.000  0.000  1.613
 
band    37 # energy   45.71125540 # occ.  0.00000000
 
ion      s     py     pz     px    dxy    dyz    dz2    dxz  x2-y2    tot
    1  0.000  0.000  0.000  0.000  0.000  0.000  0.000  0.000  0.000  0.000
    2  0.000  0.000  0.000  0.000  0.000  0.000  0.000  0.000  0.000  0.000
tot    0.000  0.000  0.000  0.000  0.000  0.000  0.000  0.000  0.000  0.000
 
band    38 # energy   57.52366450 # occ.  0.00000000
 
ion      s     py     pz     px    dxy    dyz    dz2    dxz  x2-y2    tot
    1  0.000  0.066  0.062  0.248  0.000  0.000  0.000  0.000  0.000  0.376
    2  0.000  0.076  0.072  0.285  0.000  0.000  0.000  0.000  0.000  0.433
tot    0.000  0.142  0.134  0.533  0.000  0.000  0.000  0.000  0.000  0.809
 
band    39 # energy   57.52366450 # occ.  0.00000000
 
ion      s     py     pz     px    dxy    dyz    dz2    dxz  x2-y2    tot
    1  0.000  0.076  0.242  0.059  0.000  0.000  0.000  0.000  0.000  0.376
    2  0.000  0.087  0.278  0.067  0.000  0.000  0.000  0.000  0.000  0.433
tot    0.000  0.163  0.520  0.126  0.000  0.000  0.000  0.000  0.000  0.809
 
band    40 # energy   57.52366450 # occ.  0.00000000
 
ion      s     py     pz     px    dxy    dyz    dz2    dxz  x2-y2    tot
    1  0.000  0.234  0.072  0.070  0.000  0.000  0.000  0.000  0.000  0.376
    2  0.000  0.270  0.083  0.080  0.000  0.000  0.000  0.000  0.000  0.433
tot    0.000  0.504  0.155  0.150  0.000  0.000  0.000  0.000  0.000  0.809
 
band    41 # energy   59.49431798 # occ.  0.00000000
 
ion      s     py     pz     px    dxy    dyz    dz2    dxz  x2-y2    tot
    1  0.000  0.000  0.000  0.000  0.017  0.004  0.000  0.392  0.000  0.413
    2  0.000  0.000  0.000  0.000  0.018  0.004  0.000  0.414  0.000  0.435
tot    0.000  0.000  0.000  0.000  0.035  0.008  0.000  0.806  0.000  0.848
 
band    42 # energy   59.49431798 # occ.  0.00000000
 
ion      s     py     pz     px    dxy    dyz    dz2    dxz  x2-y2    tot
    1  0.000  0.000  0.000  0.000  0.023  0.385  0.000  0.005  0.000  0.413
    2  0.000  0.000  0.000  0.000  0.024  0.406  0.000  0.005  0.000  0.435
tot    0.000  0.000  0.000  0.000  0.047  0.791  0.000  0.010  0.000  0.848
 
band    43 # energy   59.49431798 # occ.  0.00000000
 
ion      s     py     pz     px    dxy    dyz    dz2    dxz  x2-y2    tot
    1  0.000  0.000  0.000  0.000  0.373  0.024  0.000  0.016  0.000  0.413
    2  0.000  0.000  0.000  0.000  0.393  0.025  0.000  0.017  0.000  0.435
tot    0.000  0.000  0.000  0.000  0.766  0.050  0.000  0.032  0.000  0.848
 
band    44 # energy   60.65444000 # occ.  0.00000000
 
ion      s     py     pz     px    dxy    dyz    dz2    dxz  x2-y2    tot
    1  0.196  0.000  0.000  0.000  0.000  0.000  0.000  0.000  0.000  0.196
    2  0.175  0.000  0.000  0.000  0.000  0.000  0.000  0.000  0.000  0.175
tot    0.370  0.000  0.000  0.000  0.000  0.000  0.000  0.000  0.000  0.370
 
band    45 # energy   69.97166901 # occ.  0.00000000
 
ion      s     py     pz     px    dxy    dyz    dz2    dxz  x2-y2    tot
    1  0.179  0.000  0.000  0.000  0.000  0.000  0.000  0.000  0.000  0.179
    2  0.205  0.000  0.000  0.000  0.000  0.000  0.000  0.000  0.000  0.205
tot    0.385  0.000  0.000  0.000  0.000  0.000  0.000  0.000  0.000  0.385
 
band    46 # energy   70.82658496 # occ.  0.00000000
 
ion      s     py     pz     px    dxy    dyz    dz2    dxz  x2-y2    tot
    1  0.000  0.198  0.137  0.084  0.000  0.000  0.000  0.000  0.000  0.419
    2  0.000  0.188  0.129  0.080  0.000  0.000  0.000  0.000  0.000  0.397
tot    0.000  0.386  0.266  0.164  0.000  0.000  0.000  0.000  0.000  0.816
 
band    47 # energy   70.82658496 # occ.  0.00000000
 
ion      s     py     pz     px    dxy    dyz    dz2    dxz  x2-y2    tot
    1  0.000  0.112  0.148  0.159  0.000  0.000  0.000  0.000  0.000  0.419
    2  0.000  0.106  0.140  0.151  0.000  0.000  0.000  0.000  0.000  0.397
tot    0.000  0.217  0.289  0.310  0.000  0.000  0.000  0.000  0.000  0.816
 
band    48 # energy   70.82658496 # occ.  0.00000000
 
ion      s     py     pz     px    dxy    dyz    dz2    dxz  x2-y2    tot
    1  0.000  0.109  0.134  0.176  0.000  0.000  0.000  0.000  0.000  0.419
    2  0.000  0.103  0.127  0.167  0.000  0.000  0.000  0.000  0.000  0.397
tot    0.000  0.212  0.261  0.342  0.000  0.000  0.000  0.000  0.000  0.816
 

 k-point     2 :    0.08333333 0.00000000 0.00000000     weight = 0.00347222

band     1 # energy  -32.93835712 # occ.  1.00000000
 
ion      s     py     pz     px    dxy    dyz    dz2    dxz  x2-y2    tot
    1  0.000  0.000  0.000  0.940  0.000  0.000  0.000  0.000  0.000  0.940
    2  0.000  0.000  0.000  0.051  0.000  0.000  0.000  0.000  0.000  0.051
tot    0.000  0.000  0.000  0.992  0.000  0.000  0.000  0.000  0.000  0.992
 
band     2 # energy  -32.92735199 # occ.  1.00000000
 
ion      s     py     pz     px    dxy    dyz    dz2    dxz  x2-y2    tot
    1  0.000  0.036  0.905  0.000  0.000  0.000  0.000  0.000  0.000  0.941
    2  0.000  0.002  0.049  0.000  0.000  0.000  0.000  0.000  0.000  0.051
tot    0.000  0.038  0.954  0.000  0.000  0.000  0.000  0.000  0.000  0.992
 
band     3 # energy  -32.92735199 # occ.  1.00000000
 
ion      s     py     pz     px    dxy    dyz    dz2    dxz  x2-y2    tot
    1  0.000  0.905  0.036  0.000  0.000  0.000  0.000  0.000  0.000  0.941
    2  0.000  0.049  0.002  0.000  0.000  0.000  0.000  0.000  0.000  0.051
tot    0.000  0.954  0.038  0.000  0.000  0.000  0.000  0.000  0.000  0.992
 
band     4 # energy  -31.66567403 # occ.  1.00000000
 
ion      s     py     pz     px    dxy    dyz    dz2    dxz  x2-y2    tot
    1  0.000  0.000  0.000  0.053  0.000  0.000  0.000  0.000  0.000  0.054
    2  0.000  0.000  0.000  0.942  0.000  0.000  0.000  0.000  0.000  0.942
tot    0.000  0.000  0.000  0.996  0.000  0.000  0.000  0.000  0.000  0.996
 
band     5 # energy  -31.65390825 # occ.  1.00000000
 
ion      s     py     pz     px    dxy    dyz    dz2    dxz  x2-y2    tot
    1  0.000  0.003  0.051  0.000  0.000  0.000  0.000  0.000  0.000  0.054
    2  0.000  0.047  0.896  0.000  0.000  0.000  0.000  0.000  0.000  0.943
tot    0.000  0.049  0.947  0.000  0.000  0.000  0.000  0.000  0.000  0.996
 
band     6 # energy  -31.65390825 # occ.  1.00000000
 
ion      s     py     pz     px    dxy    dyz    dz2    dxz  x2-y2    tot
    1  0.000  0.051  0.003  0.000  0.000  0.000  0.000  0.000  0.000  0.054
    2  0.000  0.896  0.047  0.000  0.000  0.000  0.000  0.000  0.000  0.943
tot    0.000  0.947  0.049  0.000  0.000  0.000  0.000  0.000  0.000  0.996
 
band     7 # energy    3.01775196 # occ.  1.00000000
 
ion      s     py     pz     px    dxy    dyz    dz2    dxz  x2-y2    tot
    1  0.318  0.000  0.000  0.004  0.000  0.000  0.000  0.000  0.000  0.322
    2  0.304  0.000  0.000  0.004  0.000  0.000  0.000  0.000  0.000  0.308
tot    0.622  0.000  0.000  0.008  0.000  0.000  0.000  0.000  0.000  0.630
 
band     8 # energy    6.56169738 # occ.  1.00000000
 
ion      s     py     pz     px    dxy    dyz    dz2    dxz  x2-y2    tot
    1  0.000  0.000  0.000  0.000  0.000  0.000  0.362  0.000  0.121  0.482
    2  0.000  0.000  0.000  0.000  0.000  0.000  0.259  0.000  0.086  0.346
tot    0.000  0.000  0.000  0.000  0.000  0.000  0.621  0.000  0.207  0.828
 
band     9 # energy    6.56828519 # occ.  1.00000000
 
ion      s     py     pz     px    dxy    dyz    dz2    dxz  x2-y2    tot
    1  0.000  0.000  0.000  0.004  0.000  0.000  0.119  0.000  0.356  0.478
    2  0.000  0.000  0.000  0.004  0.000  0.000  0.086  0.000  0.257  0.347
tot    0.000  0.000  0.000  0.008  0.000  0.000  0.204  0.000  0.613  0.825
 
band    10 # energy    9.75130722 # occ.  1.00000000
 
ion      s     py     pz     px    dxy    dyz    dz2    dxz  x2-y2    tot
    1  0.000  0.000  0.000  0.000  0.416  0.000  0.000  0.235  0.000  0.651
    2  0.000  0.001  0.000  0.000  0.204  0.000  0.000  0.115  0.000  0.320
tot    0.000  0.001  0.000  0.000  0.620  0.000  0.000  0.350  0.000  0.971
 
band    11 # energy    9.75130722 # occ.  1.00000000
 
ion      s     py     pz     px    dxy    dyz    dz2    dxz  x2-y2    tot
    1  0.000  0.000  0.000  0.000  0.235  0.000  0.000  0.416  0.000  0.651
    2  0.000  0.000  0.001  0.000  0.115  0.000  0.000  0.204  0.000  0.320
tot    0.000  0.000  0.001  0.000  0.350  0.000  0.000  0.620  0.000  0.971
 
band    12 # energy    9.80887334 # occ.  1.00000000
 
ion      s     py     pz     px    dxy    dyz    dz2    dxz  x2-y2    tot
    1  0.000  0.000  0.000  0.000  0.000  0.651  0.000  0.000  0.000  0.651
    2  0.000  0.000  0.000  0.000  0.000  0.321  0.000  0.000  0.000  0.321
tot    0.000  0.000  0.000  0.000  0.000  0.973  0.000  0.000  0.000  0.973
 
band    13 # energy   11.74963003 # occ.  0.00000000
 
ion      s     py     pz     px    dxy    dyz    dz2    dxz  x2-y2    tot
    1  0.000  0.000  0.000  0.000  0.000  0.000  0.311  0.000  0.104  0.415
    2  0.000  0.000  0.000  0.000  0.000  0.000  0.402  0.000  0.134  0.536
tot    0.000  0.000  0.000  0.000  0.000  0.000  0.714  0.000  0.238  0.951
 
band    14 # energy   11.89161920 # occ.  0.00000000
 
ion      s     py     pz     px    dxy    dyz    dz2    dxz  x2-y2    tot
    1  0.000  0.000  0.000  0.000  0.000  0.000  0.106  0.000  0.317  0.422
    2  0.000  0.000  0.000  0.000  0.000  0.000  0.134  0.000  0.402  0.536
tot    0.000  0.000  0.000  0.000  0.000  0.000  0.240  0.000  0.719  0.958
 
band    15 # energy   13.03254464 # occ.  0.00000000
 
ion      s     py     pz     px    dxy    dyz    dz2    dxz  x2-y2    tot
    1  0.000  0.002  0.005  0.000  0.076  0.000  0.000  0.243  0.000  0.326
    2  0.000  0.001  0.004  0.000  0.153  0.000  0.000  0.492  0.000  0.650
tot    0.000  0.003  0.009  0.000  0.229  0.000  0.000  0.735  0.000  0.976
 
band    16 # energy   13.03254464 # occ.  0.00000000
 
ion      s     py     pz     px    dxy    dyz    dz2    dxz  x2-y2    tot
    1  0.000  0.005  0.002  0.000  0.243  0.000  0.000  0.076  0.000  0.326
    2  0.000  0.004  0.001  0.000  0.492  0.000  0.000  0.153  0.000  0.650
tot    0.000  0.009  0.003  0.000  0.735  0.000  0.000  0.229  0.000  0.976
 
band    17 # energy   13.16613906 # occ.  0.00000000
 
ion      s     py     pz     px    dxy    dyz    dz2    dxz  x2-y2    tot
    1  0.000  0.000  0.000  0.000  0.000  0.328  0.000  0.000  0.000  0.328
    2  0.000  0.000  0.000  0.000  0.000  0.655  0.000  0.000  0.000  0.655
tot    0.000  0.000  0.000  0.000  0.000  0.984  0.000  0.000  0.000  0.984
 
band    18 # energy   17.12793078 # occ.  0.00000000
 
ion      s     py     pz     px    dxy    dyz    dz2    dxz  x2-y2    tot
    1 12.454  0.000  0.000  0.000  0.000  0.000  0.000  0.000  0.000 12.454
    2  0.000  0.000  0.000  0.000  0.000  0.000  0.000  0.000  0.000  0.000
tot   12.454  0.000  0.000  0.000  0.000  0.000  0.000  0.000  0.000 12.454
 
band    19 # energy   18.68213872 # occ.  0.00000000
 
ion      s     py     pz     px    dxy    dyz    dz2    dxz  x2-y2    tot
    1  0.000  0.000  0.000  0.000  0.000  0.000  0.000  0.000  0.000  0.000
    2 12.473  0.000  0.000  0.000  0.000  0.000  0.000  0.000  0.000 12.473
tot   12.473  0.000  0.000  0.000  0.000  0.000  0.000  0.000  0.000 12.473
 
band    20 # energy   20.31320296 # occ.  0.00000000
 
ion      s     py     pz     px    dxy    dyz    dz2    dxz  x2-y2    tot
    1  0.017  0.000  0.000  0.355  0.000  0.000  0.007  0.000  0.021  0.400
    2  0.013  0.000  0.000  0.327  0.000  0.000  0.008  0.000  0.023  0.372
tot    0.030  0.000  0.000  0.683  0.000  0.000  0.015  0.000  0.044  0.772
 
band    21 # energy   21.38686357 # occ.  0.00000000
 
ion      s     py     pz     px    dxy    dyz    dz2    dxz  x2-y2    tot
    1  0.000  0.013  0.383  0.000  0.000  0.000  0.000  0.014  0.000  0.411
    2  0.000  0.012  0.355  0.000  0.001  0.000  0.000  0.016  0.000  0.383
tot    0.000  0.025  0.738  0.000  0.001  0.000  0.000  0.029  0.000  0.794
 
band    22 # energy   21.38686357 # occ.  0.00000000
 
ion      s     py     pz     px    dxy    dyz    dz2    dxz  x2-y2    tot
    1  0.000  0.383  0.013  0.000  0.014  0.000  0.000  0.000  0.000  0.411
    2  0.000  0.355  0.012  0.000  0.016  0.000  0.000  0.001  0.000  0.383
tot    0.000  0.738  0.025  0.000  0.029  0.000  0.000  0.001  0.000  0.794
 
band    23 # energy   27.70851745 # occ.  0.00000000
 
ion      s     py     pz     px    dxy    dyz    dz2    dxz  x2-y2    tot
    1  0.000  0.000  0.000  0.000  0.000  0.000  0.315  0.000  0.105  0.420
    2  0.000  0.000  0.000  0.000  0.000  0.000  0.301  0.000  0.100  0.401
tot    0.000  0.000  0.000  0.000  0.000  0.000  0.616  0.000  0.205  0.821
 
band    24 # energy   28.14922718 # occ.  0.00000000
 
ion      s     py     pz     px    dxy    dyz    dz2    dxz  x2-y2    tot
    1  0.006  0.000  0.000  0.012  0.000  0.000  0.096  0.000  0.289  0.403
    2  0.006  0.000  0.000  0.011  0.000  0.000  0.093  0.000  0.278  0.388
tot    0.012  0.000  0.000  0.023  0.000  0.000  0.189  0.000  0.567  0.791
 
band    25 # energy   32.28484222 # occ.  0.00000000
 
ion      s     py     pz     px    dxy    dyz    dz2    dxz  x2-y2    tot
    1  0.000  0.000  0.000  0.000  0.000  0.000  0.026  0.000  0.009  0.034
    2  0.000  0.000  0.000  0.000  0.000  0.000  0.032  0.000  0.011  0.042
tot    0.000  0.000  0.000  0.000  0.000  0.000  0.057  0.000  0.019  0.076
 
band    26 # energy   32.83727171 # occ.  0.00000000
 
ion      s     py     pz     px    dxy    dyz    dz2    dxz  x2-y2    tot
    1  0.000  0.000  0.001  0.000  0.001  0.000  0.000  0.016  0.000  0.018
    2  0.000  0.000  0.000  0.000  0.001  0.000  0.000  0.016  0.000  0.017
tot    0.000  0.000  0.001  0.000  0.002  0.000  0.000  0.032  0.000  0.035
 
band    27 # energy   32.83727171 # occ.  0.00000000
 
ion      s     py     pz     px    dxy    dyz    dz2    dxz  x2-y2    tot
    1  0.000  0.001  0.000  0.000  0.016  0.000  0.000  0.001  0.000  0.018
    2  0.000  0.000  0.000  0.000  0.016  0.000  0.000  0.001  0.000  0.017
tot    0.000  0.001  0.000  0.000  0.032  0.000  0.000  0.002  0.000  0.035
 
band    28 # energy   34.11843363 # occ.  0.00000000
 
ion      s     py     pz     px    dxy    dyz    dz2    dxz  x2-y2    tot
    1  0.423  0.000  0.000  0.043  0.000  0.000  0.001  0.000  0.002  0.469
    2  0.423  0.000  0.000  0.041  0.000  0.000  0.001  0.000  0.002  0.467
tot    0.846  0.000  0.000  0.084  0.000  0.000  0.001  0.000  0.004  0.936
 
band    29 # energy   39.03155797 # occ.  0.00000000
 
ion      s     py     pz     px    dxy    dyz    dz2    dxz  x2-y2    tot
    1  0.002  0.000  0.000  0.116  0.000  0.000  0.044  0.000  0.132  0.294
    2  0.002  0.000  0.000  0.114  0.000  0.000  0.048  0.000  0.145  0.309
tot    0.004  0.000  0.000  0.229  0.000  0.000  0.092  0.000  0.276  0.602
 
band    30 # energy   40.85502125 # occ.  0.00000000
 
ion      s     py     pz     px    dxy    dyz    dz2    dxz  x2-y2    tot
    1  0.000  0.000  0.000  0.000  0.000  0.000  0.166  0.000  0.055  0.222
    2  0.000  0.000  0.000  0.000  0.000  0.000  0.179  0.000  0.060  0.239
tot    0.000  0.000  0.000  0.000  0.000  0.000  0.345  0.000  0.115  0.460
 
band    31 # energy   42.81660391 # occ.  0.00000000
 
ion      s     py     pz     px    dxy    dyz    dz2    dxz  x2-y2    tot
    1  0.000  0.002  0.374  0.000  0.002  0.000  0.000  0.367  0.000  0.746
    2  0.000  0.002  0.358  0.000  0.002  0.000  0.000  0.341  0.000  0.704
tot    0.000  0.005  0.733  0.000  0.005  0.000  0.000  0.709  0.000  1.450
 
band    32 # energy   42.81660391 # occ.  0.00000000
 
ion      s     py     pz     px    dxy    dyz    dz2    dxz  x2-y2    tot
    1  0.000  0.374  0.002  0.000  0.367  0.000  0.000  0.002  0.000  0.746
    2  0.000  0.358  0.002  0.000  0.341  0.000  0.000  0.002  0.000  0.704
tot    0.000  0.733  0.005  0.000  0.709  0.000  0.000  0.005  0.000  1.450
 
band    33 # energy   44.39328036 # occ.  0.00000000
 
ion      s     py     pz     px    dxy    dyz    dz2    dxz  x2-y2    tot
    1  0.000  0.000  0.000  0.000  0.000  0.690  0.000  0.000  0.000  0.690
    2  0.000  0.000  0.000  0.000  0.000  0.638  0.000  0.000  0.000  0.638
tot    0.000  0.000  0.000  0.000  0.000  1.328  0.000  0.000  0.000  1.328
 
band    34 # energy   45.60093056 # occ.  0.00000000
 
ion      s     py     pz     px    dxy    dyz    dz2    dxz  x2-y2    tot
    1  0.000  0.000  0.000  0.000  0.000  0.019  0.000  0.000  0.000  0.019
    2  0.000  0.000  0.000  0.000  0.000  0.029  0.000  0.000  0.000  0.029
tot    0.000  0.000  0.000  0.000  0.000  0.048  0.000  0.000  0.000  0.048
 
band    35 # energy   46.05632615 # occ.  0.00000000
 
ion      s     py     pz     px    dxy    dyz    dz2    dxz  x2-y2    tot
    1  0.019  0.000  0.000  0.646  0.000  0.000  0.022  0.000  0.065  0.752
    2  0.017  0.000  0.000  0.614  0.000  0.000  0.022  0.000  0.065  0.718