 DBCSR| CPU Multiplication driver                                           BLAS (U)
 DBCSR| Multrec recursion limit                                              512 (U)
 DBCSR| Multiplication stack size                                           1000 (D)
 DBCSR| Maximum elements for images                                    UNLIMITED (U)
 DBCSR| Multiplicative factor virtual images                                   1 (U)
 DBCSR| Use multiplication densification                                       T (D)
 DBCSR| Multiplication size stacks                                             3 (U)
 DBCSR| Use memory pool for CPU allocation                                     F (U)
 DBCSR| Number of 3D layers                                               SINGLE (U)
 DBCSR| Use MPI memory allocation                                              F (U)
 DBCSR| Use RMA algorithm                                                      F (U)
 DBCSR| Use Communication thread                                               T (U)
 DBCSR| Communication thread load                                             45 (D)
 DBCSR| MPI: My process id                                                     0
 DBCSR| MPI: Number of processes                                               8
 DBCSR| OMP: Current number of threads                                        12
 DBCSR| OMP: Max number of threads                                            12
 DBCSR| Split modifier for TAS multiplication algorithm                  1.0E+00 (U)


  **** **** ******  **  PROGRAM STARTED AT               2025-08-03 21:03:11.454
 ***** ** ***  *** **   PROGRAM STARTED ON                          i04r10c03s04
 **    ****   ******    PROGRAM STARTED BY                               di38fab
 ***** **    ** ** **   PROGRAM PROCESS ID                               3767873
  **** **  *******  **  PROGRAM STARTED IN /hppfs/scratch/04/di38fab/09_GTH/Delt
                                           a_Set/Tl/TZVP-MOLOPT-PBE-GTH/8x8x8

 CP2K| version string:                 CP2K version 2025.1 (Development Version)
 CP2K| source code revision number:                                  git:3130539
 CP2K| cp2kflags: omp libint fftw3 libxc parallel scalapack max_contr=4         
 CP2K| is freely available from                            https://www.cp2k.org/
 CP2K| Program compiled at                         Tue Jun  3 16:14:32 CEST 2025
 CP2K| Program compiled on                                               login01
 CP2K| Program compiled for                                        Supermuc-foss
 CP2K| Data directory path                  /hppfs/work/pn36zo/di38fab/cp2k/data
 CP2K| Input file name                                                    GW.inp

 GLOBAL| Force Environment number                                              1
 GLOBAL| Basis set file name            /hppfs/scratch/04/di38fab/09_GTH/BASIS_A
 GLOBAL| Potential file name            /hppfs/work/pn36zo/di38fab/cp2k/data/GTH
 GLOBAL| MM Potential file name                                     MM_POTENTIAL
 GLOBAL| Coordinate file name                                             Tl.cif
 GLOBAL| Method name                                                        CP2K
 GLOBAL| Project name                                                       WSe2
 GLOBAL| Run type                                                         ENERGY
 GLOBAL| FFT library                                                       FFTW3
 GLOBAL| Diagonalization library                                       ScaLAPACK
 GLOBAL| Cholesky decomposition library                                ScaLAPACK
 GLOBAL| DGEMM library                                                      BLAS
 GLOBAL| Orthonormality check for eigenvectors                          DISABLED
 GLOBAL| Matrix multiplication library                                 ScaLAPACK
 GLOBAL| All-to-all communication in single precision                          F
 GLOBAL| FFTs using library dependent lengths                                  F
 GLOBAL| Grid backend                                                       AUTO
 GLOBAL| Global print level                                               MEDIUM
 GLOBAL| MPI I/O enabled                                                       T
 GLOBAL| Total number of message passing processes                             8
 GLOBAL| Number of threads for this process                                   12
 GLOBAL| This output is from process                                           0
 GLOBAL| OpenMP stack size per thread (OMP_STACKSIZE)                    default
 GLOBAL| CPU model name             Intel(R) Xeon(R) Platinum 8174 CPU @ 3.10GHz

 MEMORY| system memory details [Kb]
 MEMORY|                        rank 0           min           max       average
 MEMORY| MemTotal             98436664      98436664      98436708      98436686
 MEMORY| MemFree              84515636      84515636      84681232      84598434
 MEMORY| Buffers                     0             0             0             0
 MEMORY| Cached                2363884       2346028       2363884       2354956
 MEMORY| Slab                  1280504       1274084       1280504       1277294
 MEMORY| SReclaimable           277824        274908        277824        276366
 MEMORY| MemLikelyFree        87157344      87157344      87302168      87229756


 *** Fundamental physical constants (SI units) ***

 *** Literature: B. J. Mohr and B. N. Taylor,
 ***             CODATA recommended values of the fundamental physical
 ***             constants: 2006, Web Version 5.1
 ***             http://physics.nist.gov/constants

 Speed of light in vacuum [m/s]                             2.99792458000000E+08
 Magnetic constant or permeability of vacuum [N/A**2]       1.25663706143592E-06
 Electric constant or permittivity of vacuum [F/m]          8.85418781762039E-12
 Planck constant (h) [J*s]                                  6.62606896000000E-34
 Planck constant (h-bar) [J*s]                              1.05457162825177E-34
 Elementary charge [C]                                      1.60217648700000E-19
 Electron mass [kg]                                         9.10938215000000E-31
 Electron g factor [ ]                                     -2.00231930436220E+00
 Proton mass [kg]                                           1.67262163700000E-27
 Fine-structure constant                                    7.29735253760000E-03
 Rydberg constant [1/m]                                     1.09737315685270E+07
 Avogadro constant [1/mol]                                  6.02214179000000E+23
 Boltzmann constant [J/K]                                   1.38065040000000E-23
 Atomic mass unit [kg]                                      1.66053878200000E-27
 Bohr radius [m]                                            5.29177208590000E-11

 *** Conversion factors ***

 [u] -> [a.u.]                                              1.82288848426455E+03
 [Angstrom] -> [Bohr] = [a.u.]                              1.88972613288564E+00
 [a.u.] = [Bohr] -> [Angstrom]                              5.29177208590000E-01
 [a.u.] -> [s]                                              2.41888432650478E-17
 [a.u.] -> [fs]                                             2.41888432650478E-02
 [a.u.] -> [J]                                              4.35974393937059E-18
 [a.u.] -> [N]                                              8.23872205491840E-08
 [a.u.] -> [K]                                              3.15774647902944E+05
 [a.u.] -> [kJ/mol]                                         2.62549961709828E+03
 [a.u.] -> [kcal/mol]                                       6.27509468713739E+02
 [a.u.] -> [Pa]                                             2.94210107994716E+13
 [a.u.] -> [bar]                                            2.94210107994716E+08
 [a.u.] -> [atm]                                            2.90362800883016E+08
 [a.u.] -> [eV]                                             2.72113838565563E+01
 [a.u.] -> [Hz]                                             6.57968392072181E+15
 [a.u.] -> [1/cm] (wave numbers)                            2.19474631370540E+05
 [a.u./Bohr**2] -> [1/cm]                                   5.14048714338585E+03
 

 CELL_TOP| Volume [angstrom^3]:                                        63.061676
 CELL_TOP| Vector a [angstrom     3.593     0.000     0.000   |a| =     3.592550
 CELL_TOP| Vector b [angstrom     1.796     3.111     0.000   |b| =     3.592550
 CELL_TOP| Vector c [angstrom     0.000     0.000     5.642   |c| =     5.641950
 CELL_TOP| Angle (b,c), alpha [degree]:                                90.000000
 CELL_TOP| Angle (a,c), beta  [degree]:                                90.000000
 CELL_TOP| Angle (a,b), gamma [degree]:                                60.000000
 CELL_TOP| Numerically orthorhombic:                                          NO
 CELL_TOP| Periodicity                                                       XYZ

 CELL_CIF| Volume [angstrom^3]:                                        63.061676
 CELL_CIF| Vector a [angstrom     3.593     0.000     0.000   |a| =     3.592550
 CELL_CIF| Vector b [angstrom     1.796     3.111     0.000   |b| =     3.592550
 CELL_CIF| Vector c [angstrom     0.000     0.000     5.642   |c| =     5.641950
 CELL_CIF| Angle (b,c), alpha [degree]:                                90.000000
 CELL_CIF| Angle (a,c), beta  [degree]:                                90.000000
 CELL_CIF| Angle (a,b), gamma [degree]:                                60.000000
 CELL_CIF| Numerically orthorhombic:                                          NO
 CELL_CIF| Periodicity                                                       XYZ

 GENERATE|  Preliminary Number of Bonds generated:                             0
 GENERATE|  Achieved consistency in connectivity generation.

 CELL| Volume [angstrom^3]:                                            63.061676
 CELL| Vector a [angstrom]:       3.593     0.000     0.000   |a| =     3.592550
 CELL| Vector b [angstrom]:       1.796     3.111     0.000   |b| =     3.592550
 CELL| Vector c [angstrom]:       0.000     0.000     5.642   |c| =     5.641950
 CELL| Angle (b,c), alpha [degree]:                                    90.000000
 CELL| Angle (a,c), beta  [degree]:                                    90.000000
 CELL| Angle (a,b), gamma [degree]:                                    60.000000
 CELL| Numerically orthorhombic:                                              NO
 CELL| Periodicity                                                           XYZ

 CELL_REF| Volume [angstrom^3]:                                        63.061676
 CELL_REF| Vector a [angstrom     3.593     0.000     0.000   |a| =     3.592550
 CELL_REF| Vector b [angstrom     1.796     3.111     0.000   |b| =     3.592550
 CELL_REF| Vector c [angstrom     0.000     0.000     5.642   |c| =     5.641950
 CELL_REF| Angle (b,c), alpha [degree]:                                90.000000
 CELL_REF| Angle (a,c), beta  [degree]:                                90.000000
 CELL_REF| Angle (a,b), gamma [degree]:                                60.000000
 CELL_REF| Numerically orthorhombic:                                          NO
 CELL_REF| Periodicity                                                       XYZ

 *** WARNING in cryssym.F:180 :: Symmetry library SPGLIB not available ***


 *******************************************************************************
                                    Kpoints
 *******************************************************************************
 BRILLOUIN| K-point scheme                                        Monkhorst-Pack
 BRILLOUIN| K-Point grid                                             8    8    8
 BRILLOUIN| Accuracy in Symmetry determination                      0.100000E-05
 BRILLOUIN| K-Point point group symmetrization                               OFF
 BRILLOUIN| Wavefunction type                                            COMPLEX
 BRILLOUIN| List of Kpoints [2 Pi/Bohr]                                      256
 BRILLOUIN| Number           Weight            X              Y              Z
 BRILLOUIN|     1           0.00391       -0.43750       -0.43750       -0.43750
 BRILLOUIN|     2           0.00391       -0.43750       -0.43750       -0.31250
 BRILLOUIN|     3           0.00391       -0.43750       -0.43750       -0.18750
 BRILLOUIN|     4           0.00391       -0.43750       -0.43750       -0.06250
 BRILLOUIN|     5           0.00391       -0.43750       -0.43750        0.06250
 BRILLOUIN|     6           0.00391       -0.43750       -0.43750        0.18750
 BRILLOUIN|     7           0.00391       -0.43750       -0.43750        0.31250
 BRILLOUIN|     8           0.00391       -0.43750       -0.43750        0.43750
 BRILLOUIN|     9           0.00391       -0.43750       -0.31250       -0.43750
 BRILLOUIN|    10           0.00391       -0.43750       -0.31250       -0.31250
 BRILLOUIN|    11           0.00391       -0.43750       -0.31250       -0.18750
 BRILLOUIN|    12           0.00391       -0.43750       -0.31250       -0.06250
 BRILLOUIN|    13           0.00391       -0.43750       -0.31250        0.06250
 BRILLOUIN|    14           0.00391       -0.43750       -0.31250        0.18750
 BRILLOUIN|    15           0.00391       -0.43750       -0.31250        0.31250
 BRILLOUIN|    16           0.00391       -0.43750       -0.31250        0.43750
 BRILLOUIN|    17           0.00391       -0.43750       -0.18750       -0.43750
 BRILLOUIN|    18           0.00391       -0.43750       -0.18750       -0.31250
 BRILLOUIN|    19           0.00391       -0.43750       -0.18750       -0.18750
 BRILLOUIN|    20           0.00391       -0.43750       -0.18750       -0.06250
 BRILLOUIN|    21           0.00391       -0.43750       -0.18750        0.06250
 BRILLOUIN|    22           0.00391       -0.43750       -0.18750        0.18750
 BRILLOUIN|    23           0.00391       -0.43750       -0.18750        0.31250
 BRILLOUIN|    24           0.00391       -0.43750       -0.18750        0.43750
 BRILLOUIN|    25           0.00391       -0.43750       -0.06250       -0.43750
 BRILLOUIN|    26           0.00391       -0.43750       -0.06250       -0.31250
 BRILLOUIN|    27           0.00391       -0.43750       -0.06250       -0.18750
 BRILLOUIN|    28           0.00391       -0.43750       -0.06250       -0.06250
 BRILLOUIN|    29           0.00391       -0.43750       -0.06250        0.06250
 BRILLOUIN|    30           0.00391       -0.43750       -0.06250        0.18750
 BRILLOUIN|    31           0.00391       -0.43750       -0.06250        0.31250
 BRILLOUIN|    32           0.00391       -0.43750       -0.06250        0.43750
 BRILLOUIN|    33           0.00391       -0.43750        0.06250       -0.43750
 BRILLOUIN|    34           0.00391       -0.43750        0.06250       -0.31250
 BRILLOUIN|    35           0.00391       -0.43750        0.06250       -0.18750
 BRILLOUIN|    36           0.00391       -0.43750        0.06250       -0.06250
 BRILLOUIN|    37           0.00391       -0.43750        0.06250        0.06250
 BRILLOUIN|    38           0.00391       -0.43750        0.06250        0.18750
 BRILLOUIN|    39           0.00391       -0.43750        0.06250        0.31250
 BRILLOUIN|    40           0.00391       -0.43750        0.06250        0.43750
 BRILLOUIN|    41           0.00391       -0.43750        0.18750       -0.43750
 BRILLOUIN|    42           0.00391       -0.43750        0.18750       -0.31250
 BRILLOUIN|    43           0.00391       -0.43750        0.18750       -0.18750
 BRILLOUIN|    44           0.00391       -0.43750        0.18750       -0.06250
 BRILLOUIN|    45           0.00391       -0.43750        0.18750        0.06250
 BRILLOUIN|    46           0.00391       -0.43750        0.18750        0.18750
 BRILLOUIN|    47           0.00391       -0.43750        0.18750        0.31250
 BRILLOUIN|    48           0.00391       -0.43750        0.18750        0.43750
 BRILLOUIN|    49           0.00391       -0.43750        0.31250       -0.43750
 BRILLOUIN|    50           0.00391       -0.43750        0.31250       -0.31250
 BRILLOUIN|    51           0.00391       -0.43750        0.31250       -0.18750
 BRILLOUIN|    52           0.00391       -0.43750        0.31250       -0.06250
 BRILLOUIN|    53           0.00391       -0.43750        0.31250        0.06250
 BRILLOUIN|    54           0.00391       -0.43750        0.31250        0.18750
 BRILLOUIN|    55           0.00391       -0.43750        0.31250        0.31250
 BRILLOUIN|    56           0.00391       -0.43750        0.31250        0.43750
 BRILLOUIN|    57           0.00391       -0.43750        0.43750       -0.43750
 BRILLOUIN|    58           0.00391       -0.43750        0.43750       -0.31250
 BRILLOUIN|    59           0.00391       -0.43750        0.43750       -0.18750
 BRILLOUIN|    60           0.00391       -0.43750        0.43750       -0.06250
 BRILLOUIN|    61           0.00391       -0.43750        0.43750        0.06250
 BRILLOUIN|    62           0.00391       -0.43750        0.43750        0.18750
 BRILLOUIN|    63           0.00391       -0.43750        0.43750        0.31250
 BRILLOUIN|    64           0.00391       -0.43750        0.43750        0.43750
 BRILLOUIN|    65           0.00391       -0.31250       -0.43750       -0.43750
 BRILLOUIN|    66           0.00391       -0.31250       -0.43750       -0.31250
 BRILLOUIN|    67           0.00391       -0.31250       -0.43750       -0.18750
 BRILLOUIN|    68           0.00391       -0.31250       -0.43750       -0.06250
 BRILLOUIN|    69           0.00391       -0.31250       -0.43750        0.06250
 BRILLOUIN|    70           0.00391       -0.31250       -0.43750        0.18750
 BRILLOUIN|    71           0.00391       -0.31250       -0.43750        0.31250
 BRILLOUIN|    72           0.00391       -0.31250       -0.43750        0.43750
 BRILLOUIN|    73           0.00391       -0.31250       -0.31250       -0.43750
 BRILLOUIN|    74           0.00391       -0.31250       -0.31250       -0.31250
 BRILLOUIN|    75           0.00391       -0.31250       -0.31250       -0.18750
 BRILLOUIN|    76           0.00391       -0.31250       -0.31250       -0.06250
 BRILLOUIN|    77           0.00391       -0.31250       -0.31250        0.06250
 BRILLOUIN|    78           0.00391       -0.31250       -0.31250        0.18750
 BRILLOUIN|    79           0.00391       -0.31250       -0.31250        0.31250
 BRILLOUIN|    80           0.00391       -0.31250       -0.31250        0.43750
 BRILLOUIN|    81           0.00391       -0.31250       -0.18750       -0.43750
 BRILLOUIN|    82           0.00391       -0.31250       -0.18750       -0.31250
 BRILLOUIN|    83           0.00391       -0.31250       -0.18750       -0.18750
 BRILLOUIN|    84           0.00391       -0.31250       -0.18750       -0.06250
 BRILLOUIN|    85           0.00391       -0.31250       -0.18750        0.06250
 BRILLOUIN|    86           0.00391       -0.31250       -0.18750        0.18750
 BRILLOUIN|    87           0.00391       -0.31250       -0.18750        0.31250
 BRILLOUIN|    88           0.00391       -0.31250       -0.18750        0.43750
 BRILLOUIN|    89           0.00391       -0.31250       -0.06250       -0.43750
 BRILLOUIN|    90           0.00391       -0.31250       -0.06250       -0.31250
 BRILLOUIN|    91           0.00391       -0.31250       -0.06250       -0.18750
 BRILLOUIN|    92           0.00391       -0.31250       -0.06250       -0.06250
 BRILLOUIN|    93           0.00391       -0.31250       -0.06250        0.06250
 BRILLOUIN|    94           0.00391       -0.31250       -0.06250        0.18750
 BRILLOUIN|    95           0.00391       -0.31250       -0.06250        0.31250
 BRILLOUIN|    96           0.00391       -0.31250       -0.06250        0.43750
 BRILLOUIN|    97           0.00391       -0.31250        0.06250       -0.43750
 BRILLOUIN|    98           0.00391       -0.31250        0.06250       -0.31250
 BRILLOUIN|    99           0.00391       -0.31250        0.06250       -0.18750
 BRILLOUIN|   100           0.00391       -0.31250        0.06250       -0.06250
 BRILLOUIN|   101           0.00391       -0.31250        0.06250        0.06250
 BRILLOUIN|   102           0.00391       -0.31250        0.06250        0.18750
 BRILLOUIN|   103           0.00391       -0.31250        0.06250        0.31250
 BRILLOUIN|   104           0.00391       -0.31250        0.06250        0.43750
 BRILLOUIN|   105           0.00391       -0.31250        0.18750       -0.43750
 BRILLOUIN|   106           0.00391       -0.31250        0.18750       -0.31250
 BRILLOUIN|   107           0.00391       -0.31250        0.18750       -0.18750
 BRILLOUIN|   108           0.00391       -0.31250        0.18750       -0.06250
 BRILLOUIN|   109           0.00391       -0.31250        0.18750        0.06250
 BRILLOUIN|   110           0.00391       -0.31250        0.18750        0.18750
 BRILLOUIN|   111           0.00391       -0.31250        0.18750        0.31250
 BRILLOUIN|   112           0.00391       -0.31250        0.18750        0.43750
 BRILLOUIN|   113           0.00391       -0.31250        0.31250       -0.43750
 BRILLOUIN|   114           0.00391       -0.31250        0.31250       -0.31250
 BRILLOUIN|   115           0.00391       -0.31250        0.31250       -0.18750
 BRILLOUIN|   116           0.00391       -0.31250        0.31250       -0.06250
 BRILLOUIN|   117           0.00391       -0.31250        0.31250        0.06250
 BRILLOUIN|   118           0.00391       -0.31250        0.31250        0.18750
 BRILLOUIN|   119           0.00391       -0.31250        0.31250        0.31250
 BRILLOUIN|   120           0.00391       -0.31250        0.31250        0.43750
 BRILLOUIN|   121           0.00391       -0.31250        0.43750       -0.43750
 BRILLOUIN|   122           0.00391       -0.31250        0.43750       -0.31250
 BRILLOUIN|   123           0.00391       -0.31250        0.43750       -0.18750
 BRILLOUIN|   124           0.00391       -0.31250        0.43750       -0.06250
 BRILLOUIN|   125           0.00391       -0.31250        0.43750        0.06250
 BRILLOUIN|   126           0.00391       -0.31250        0.43750        0.18750
 BRILLOUIN|   127           0.00391       -0.31250        0.43750        0.31250
 BRILLOUIN|   128           0.00391       -0.31250        0.43750        0.43750
 BRILLOUIN|   129           0.00391       -0.18750       -0.43750       -0.43750
 BRILLOUIN|   130           0.00391       -0.18750       -0.43750       -0.31250
 BRILLOUIN|   131           0.00391       -0.18750       -0.43750       -0.18750
 BRILLOUIN|   132           0.00391       -0.18750       -0.43750       -0.06250
 BRILLOUIN|   133           0.00391       -0.18750       -0.43750        0.06250
 BRILLOUIN|   134           0.00391       -0.18750       -0.43750        0.18750
 BRILLOUIN|   135           0.00391       -0.18750       -0.43750        0.31250
 BRILLOUIN|   136           0.00391       -0.18750       -0.43750        0.43750
 BRILLOUIN|   137           0.00391       -0.18750       -0.31250       -0.43750
 BRILLOUIN|   138           0.00391       -0.18750       -0.31250       -0.31250
 BRILLOUIN|   139           0.00391       -0.18750       -0.31250       -0.18750
 BRILLOUIN|   140           0.00391       -0.18750       -0.31250       -0.06250
 BRILLOUIN|   141           0.00391       -0.18750       -0.31250        0.06250
 BRILLOUIN|   142           0.00391       -0.18750       -0.31250        0.18750
 BRILLOUIN|   143           0.00391       -0.18750       -0.31250        0.31250
 BRILLOUIN|   144           0.00391       -0.18750       -0.31250        0.43750
 BRILLOUIN|   145           0.00391       -0.18750       -0.18750       -0.43750
 BRILLOUIN|   146           0.00391       -0.18750       -0.18750       -0.31250
 BRILLOUIN|   147           0.00391       -0.18750       -0.18750       -0.18750
 BRILLOUIN|   148           0.00391       -0.18750       -0.18750       -0.06250
 BRILLOUIN|   149           0.00391       -0.18750       -0.18750        0.06250
 BRILLOUIN|   150           0.00391       -0.18750       -0.18750        0.18750
 BRILLOUIN|   151           0.00391       -0.18750       -0.18750        0.31250
 BRILLOUIN|   152           0.00391       -0.18750       -0.18750        0.43750
 BRILLOUIN|   153           0.00391       -0.18750       -0.06250       -0.43750
 BRILLOUIN|   154           0.00391       -0.18750       -0.06250       -0.31250
 BRILLOUIN|   155           0.00391       -0.18750       -0.06250       -0.18750
 BRILLOUIN|   156           0.00391       -0.18750       -0.06250       -0.06250
 BRILLOUIN|   157           0.00391       -0.18750       -0.06250        0.06250
 BRILLOUIN|   158           0.00391       -0.18750       -0.06250        0.18750
 BRILLOUIN|   159           0.00391       -0.18750       -0.06250        0.31250
 BRILLOUIN|   160           0.00391       -0.18750       -0.06250        0.43750
 BRILLOUIN|   161           0.00391       -0.18750        0.06250       -0.43750
 BRILLOUIN|   162           0.00391       -0.18750        0.06250       -0.31250
 BRILLOUIN|   163           0.00391       -0.18750        0.06250       -0.18750
 BRILLOUIN|   164           0.00391       -0.18750        0.06250       -0.06250
 BRILLOUIN|   165           0.00391       -0.18750        0.06250        0.06250
 BRILLOUIN|   166           0.00391       -0.18750        0.06250        0.18750
 BRILLOUIN|   167           0.00391       -0.18750        0.06250        0.31250
 BRILLOUIN|   168           0.00391       -0.18750        0.06250        0.43750
 BRILLOUIN|   169           0.00391       -0.18750        0.18750       -0.43750
 BRILLOUIN|   170           0.00391       -0.18750        0.18750       -0.31250
 BRILLOUIN|   171           0.00391       -0.18750        0.18750       -0.18750
 BRILLOUIN|   172           0.00391       -0.18750        0.18750       -0.06250
 BRILLOUIN|   173           0.00391       -0.18750        0.18750        0.06250
 BRILLOUIN|   174           0.00391       -0.18750        0.18750        0.18750
 BRILLOUIN|   175           0.00391       -0.18750        0.18750        0.31250
 BRILLOUIN|   176           0.00391       -0.18750        0.18750        0.43750
 BRILLOUIN|   177           0.00391       -0.18750        0.31250       -0.43750
 BRILLOUIN|   178           0.00391       -0.18750        0.31250       -0.31250
 BRILLOUIN|   179           0.00391       -0.18750        0.31250       -0.18750
 BRILLOUIN|   180           0.00391       -0.18750        0.31250       -0.06250
 BRILLOUIN|   181           0.00391       -0.18750        0.31250        0.06250
 BRILLOUIN|   182           0.00391       -0.18750        0.31250        0.18750
 BRILLOUIN|   183           0.00391       -0.18750        0.31250        0.31250
 BRILLOUIN|   184           0.00391       -0.18750        0.31250        0.43750
 BRILLOUIN|   185           0.00391       -0.18750        0.43750       -0.43750
 BRILLOUIN|   186           0.00391       -0.18750        0.43750       -0.31250
 BRILLOUIN|   187           0.00391       -0.18750        0.43750       -0.18750
 BRILLOUIN|   188           0.00391       -0.18750        0.43750       -0.06250
 BRILLOUIN|   189           0.00391       -0.18750        0.43750        0.06250
 BRILLOUIN|   190           0.00391       -0.18750        0.43750        0.18750
 BRILLOUIN|   191           0.00391       -0.18750        0.43750        0.31250
 BRILLOUIN|   192           0.00391       -0.18750        0.43750        0.43750
 BRILLOUIN|   193           0.00391       -0.06250       -0.43750       -0.43750
 BRILLOUIN|   194           0.00391       -0.06250       -0.43750       -0.31250
 BRILLOUIN|   195           0.00391       -0.06250       -0.43750       -0.18750
 BRILLOUIN|   196           0.00391       -0.06250       -0.43750       -0.06250
 BRILLOUIN|   197           0.00391       -0.06250       -0.43750        0.06250
 BRILLOUIN|   198           0.00391       -0.06250       -0.43750        0.18750
 BRILLOUIN|   199           0.00391       -0.06250       -0.43750        0.31250
 BRILLOUIN|   200           0.00391       -0.06250       -0.43750        0.43750
 BRILLOUIN|   201           0.00391       -0.06250       -0.31250       -0.43750
 BRILLOUIN|   202           0.00391       -0.06250       -0.31250       -0.31250
 BRILLOUIN|   203           0.00391       -0.06250       -0.31250       -0.18750
 BRILLOUIN|   204           0.00391       -0.06250       -0.31250       -0.06250
 BRILLOUIN|   205           0.00391       -0.06250       -0.31250        0.06250
 BRILLOUIN|   206           0.00391       -0.06250       -0.31250        0.18750
 BRILLOUIN|   207           0.00391       -0.06250       -0.31250        0.31250
 BRILLOUIN|   208           0.00391       -0.06250       -0.31250        0.43750
 BRILLOUIN|   209           0.00391       -0.06250       -0.18750       -0.43750
 BRILLOUIN|   210           0.00391       -0.06250       -0.18750       -0.31250
 BRILLOUIN|   211           0.00391       -0.06250       -0.18750       -0.18750
 BRILLOUIN|   212           0.00391       -0.06250       -0.18750       -0.06250
 BRILLOUIN|   213           0.00391       -0.06250       -0.18750        0.06250
 BRILLOUIN|   214           0.00391       -0.06250       -0.18750        0.18750
 BRILLOUIN|   215           0.00391       -0.06250       -0.18750        0.31250
 BRILLOUIN|   216           0.00391       -0.06250       -0.18750        0.43750
 BRILLOUIN|   217           0.00391       -0.06250       -0.06250       -0.43750
 BRILLOUIN|   218           0.00391       -0.06250       -0.06250       -0.31250
 BRILLOUIN|   219           0.00391       -0.06250       -0.06250       -0.18750
 BRILLOUIN|   220           0.00391       -0.06250       -0.06250       -0.06250
 BRILLOUIN|   221           0.00391       -0.06250       -0.06250        0.06250
 BRILLOUIN|   222           0.00391       -0.06250       -0.06250        0.18750
 BRILLOUIN|   223           0.00391       -0.06250       -0.06250        0.31250
 BRILLOUIN|   224           0.00391       -0.06250       -0.06250        0.43750
 BRILLOUIN|   225           0.00391       -0.06250        0.06250       -0.43750
 BRILLOUIN|   226           0.00391       -0.06250        0.06250       -0.31250
 BRILLOUIN|   227           0.00391       -0.06250        0.06250       -0.18750
 BRILLOUIN|   228           0.00391       -0.06250        0.06250       -0.06250
 BRILLOUIN|   229           0.00391       -0.06250        0.06250        0.06250
 BRILLOUIN|   230           0.00391       -0.06250        0.06250        0.18750
 BRILLOUIN|   231           0.00391       -0.06250        0.06250        0.31250
 BRILLOUIN|   232           0.00391       -0.06250        0.06250        0.43750
 BRILLOUIN|   233           0.00391       -0.06250        0.18750       -0.43750
 BRILLOUIN|   234           0.00391       -0.06250        0.18750       -0.31250
 BRILLOUIN|   235           0.00391       -0.06250        0.18750       -0.18750
 BRILLOUIN|   236           0.00391       -0.06250        0.18750       -0.06250
 BRILLOUIN|   237           0.00391       -0.06250        0.18750        0.06250
 BRILLOUIN|   238           0.00391       -0.06250        0.18750        0.18750
 BRILLOUIN|   239           0.00391       -0.06250        0.18750        0.31250
 BRILLOUIN|   240           0.00391       -0.06250        0.18750        0.43750
 BRILLOUIN|   241           0.00391       -0.06250        0.31250       -0.43750
 BRILLOUIN|   242           0.00391       -0.06250        0.31250       -0.31250
 BRILLOUIN|   243           0.00391       -0.06250        0.31250       -0.18750
 BRILLOUIN|   244           0.00391       -0.06250        0.31250       -0.06250
 BRILLOUIN|   245           0.00391       -0.06250        0.31250        0.06250
 BRILLOUIN|   246           0.00391       -0.06250        0.31250        0.18750
 BRILLOUIN|   247           0.00391       -0.06250        0.31250        0.31250
 BRILLOUIN|   248           0.00391       -0.06250        0.31250        0.43750
 BRILLOUIN|   249           0.00391       -0.06250        0.43750       -0.43750
 BRILLOUIN|   250           0.00391       -0.06250        0.43750       -0.31250
 BRILLOUIN|   251           0.00391       -0.06250        0.43750       -0.18750
 BRILLOUIN|   252           0.00391       -0.06250        0.43750       -0.06250
 BRILLOUIN|   253           0.00391       -0.06250        0.43750        0.06250
 BRILLOUIN|   254           0.00391       -0.06250        0.43750        0.18750
 BRILLOUIN|   255           0.00391       -0.06250        0.43750        0.31250
 BRILLOUIN|   256           0.00391       -0.06250        0.43750        0.43750
 *******************************************************************************

 *******************************************************************************
 *******************************************************************************
 **                                                                           **
 **     #####                         ##              ##                      **
 **    ##   ##            ##          ##              ##                      **
 **   ##     ##                       ##            ######                    **
 **   ##     ##  ##   ##  ##   #####  ##  ##   ####   ##    #####    #####    **
 **   ##     ##  ##   ##  ##  ##      ## ##   ##      ##   ##   ##  ##   ##   **
 **   ##  ## ##  ##   ##  ##  ##      ####     ###    ##   ######   ######    **
 **    ##  ###   ##   ##  ##  ##      ## ##      ##   ##   ##       ##        **
 **     #######   #####   ##   #####  ##  ##  ####    ##    #####   ##        **
 **           ##                                                    ##        **
 **                                                                           **
 **                                                ... make the atoms dance   **
 **                                                                           **
 **            Copyright (C) by CP2K developers group (2000-2025)             **
 **                      J. Chem. Phys. 152, 194103 (2020)                    **
 **                                                                           **
 *******************************************************************************

 DFT| Spin restricted Kohn-Sham (RKS) calculation                            RKS
 DFT| Multiplicity                                                             1
 DFT| Number of spin states                                                    1
 DFT| Charge                                                                   0
 DFT| Self-interaction correction (SIC)                                       NO
 DFT| Cutoffs: density                                              1.000000E-10
 DFT|          gradient                                             1.000000E-10
 DFT|          tau                                                  1.000000E-10
 DFT|          cutoff_smoothing_range                               0.000000E+00
 DFT| XC density smoothing                                                  NONE
 DFT| XC derivatives                                                          PW

 FUNCTIONAL| PBE:
 FUNCTIONAL| J.P.Perdew, K.Burke, M.Ernzerhof, Phys. Rev. Letter, vol. 77, n 18,
 FUNCTIONAL|  pp. 3865-3868, (1996) {spin unpolarized}                          


 QS| Method:                                                                 GPW
 QS| Density plane wave grid type                        NON-SPHERICAL FULLSPACE
 QS| Number of grid levels:                                                    4
 QS| Density cutoff [a.u.]:                                                500.0
 QS| Multi grid cutoff [a.u.]: 1) grid level                               500.0
 QS|                           2) grid level                               166.7
 QS|                           3) grid level                                55.6
 QS|                           4) grid level                                18.5
 QS| Grid level progression factor:                                          3.0
 QS| Relative density cutoff [a.u.]:                                        50.0
 QS| Interaction thresholds: eps_pgf_orb:                                1.0E-16
 QS|                         eps_filter_matrix:                          0.0E+00
 QS|                         eps_core_charge:                            1.0E-18
 QS|                         eps_rho_gspace:                             1.0E-16
 QS|                         eps_rho_rspace:                             1.0E-16
 QS|                         eps_gvg_rspace:                             1.0E-08
 QS|                         eps_ppl:                                    1.0E-02
 QS|                         eps_ppnl:                                   1.0E-10


 ATOMIC KIND INFORMATION

  1. Atomic kind: Tl                                    Number of atoms:       2

     Orbital Basis Set                                   TZVP-MOLOPT-GGA-GTH-q13

       Number of orbital shell sets:                                           1
       Number of orbital shells:                                              10
       Number of primitive Cartesian functions:                                6
       Number of Cartesian basis functions:                                   40
       Number of spherical basis functions:                                   34
       Norm type:                                                              2

       Normalised Cartesian orbitals:

                        Set   Shell   Orbital            Exponent    Coefficient

                          1       1    2s                2.490697      -0.161422
                                                         2.234155       0.156375
                                                         0.847552       0.069547
                                                         0.339070       0.007195
                                                         0.134144      -0.091911
                                                         0.046384      -0.038045

                          1       2    3s                2.490697      -0.226071
                                                         2.234155      -0.141403
                                                         0.847552       1.111918
                                                         0.339070      -0.495052
                                                         0.134144      -0.140414
                                                         0.046384       0.090957

                          1       3    4s                2.490697       0.028012
                                                         2.234155       0.276881
                                                         0.847552      -0.694788
                                                         0.339070       0.231302
                                                         0.134144      -0.229596
                                                         0.046384       0.101834

                          1       4    3px               2.490697      -0.413826
                                                         2.234155       0.507948
                                                         0.847552      -0.152466
                                                         0.339070       0.032001
                                                         0.134144       0.057967
                                                         0.046384       0.017069
                          1       4    3py               2.490697      -0.413826
                                                         2.234155       0.507948
                                                         0.847552      -0.152466
                                                         0.339070       0.032001
                                                         0.134144       0.057967
                                                         0.046384       0.017069
                          1       4    3pz               2.490697      -0.413826
                                                         2.234155       0.507948
                                                         0.847552      -0.152466
                                                         0.339070       0.032001
                                                         0.134144       0.057967
                                                         0.046384       0.017069

                          1       5    4px               2.490697      -1.098699
                                                         2.234155       1.606565
                                                         0.847552      -0.755519
                                                         0.339070       0.329810
                                                         0.134144       0.079557
                                                         0.046384      -0.032233
                          1       5    4py               2.490697      -1.098699
                                                         2.234155       1.606565
                                                         0.847552      -0.755519
                                                         0.339070       0.329810
                                                         0.134144       0.079557
                                                         0.046384      -0.032233
                          1       5    4pz               2.490697      -1.098699
                                                         2.234155       1.606565
                                                         0.847552      -0.755519
                                                         0.339070       0.329810
                                                         0.134144       0.079557
                                                         0.046384      -0.032233

                          1       6    5px               2.490697      -3.015282
                                                         2.234155       2.603889
                                                         0.847552       0.203332
                                                         0.339070       0.504370
                                                         0.134144      -0.142738
                                                         0.046384       0.020536
                          1       6    5py               2.490697      -3.015282
                                                         2.234155       2.603889
                                                         0.847552       0.203332
                                                         0.339070       0.504370
                                                         0.134144      -0.142738
                                                         0.046384       0.020536
                          1       6    5pz               2.490697      -3.015282
                                                         2.234155       2.603889
                                                         0.847552       0.203332
                                                         0.339070       0.504370
                                                         0.134144      -0.142738
                                                         0.046384       0.020536

                          1       7    4dx2              2.490697      -5.019073
                                                         2.234155       6.372340
                                                         0.847552       0.767296
                                                         0.339070       0.035249
                                                         0.134144      -0.004609
                                                         0.046384      -0.001778
                          1       7    4dxy              2.490697      -8.693289
                                                         2.234155      11.037216
                                                         0.847552       1.328996
                                                         0.339070       0.061054
                                                         0.134144      -0.007983
                                                         0.046384      -0.003079
                          1       7    4dxz              2.490697      -8.693289
                                                         2.234155      11.037216
                                                         0.847552       1.328996
                                                         0.339070       0.061054
                                                         0.134144      -0.007983
                                                         0.046384      -0.003079
                          1       7    4dy2              2.490697      -5.019073
                                                         2.234155       6.372340
                                                         0.847552       0.767296
                                                         0.339070       0.035249
                                                         0.134144      -0.004609
                                                         0.046384      -0.001778
                          1       7    4dyz              2.490697      -8.693289
                                                         2.234155      11.037216
                                                         0.847552       1.328996
                                                         0.339070       0.061054
                                                         0.134144      -0.007983
                                                         0.046384      -0.003079
                          1       7    4dz2              2.490697      -5.019073
                                                         2.234155       6.372340
                                                         0.847552       0.767296
                                                         0.339070       0.035249
                                                         0.134144      -0.004609
                                                         0.046384      -0.001778

                          1       8    5dx2              2.490697      -0.904941
                                                         2.234155       0.932287
                                                         0.847552      -0.187104
                                                         0.339070       0.095731
                                                         0.134144       0.017123
                                                         0.046384       0.004182
                          1       8    5dxy              2.490697      -1.567404
                                                         2.234155       1.614769
                                                         0.847552      -0.324074
                                                         0.339070       0.165811
                                                         0.134144       0.029658
                                                         0.046384       0.007244
                          1       8    5dxz              2.490697      -1.567404
                                                         2.234155       1.614769
                                                         0.847552      -0.324074
                                                         0.339070       0.165811
                                                         0.134144       0.029658
                                                         0.046384       0.007244
                          1       8    5dy2              2.490697      -0.904941
                                                         2.234155       0.932287
                                                         0.847552      -0.187104
                                                         0.339070       0.095731
                                                         0.134144       0.017123
                                                         0.046384       0.004182
                          1       8    5dyz              2.490697      -1.567404
                                                         2.234155       1.614769
                                                         0.847552      -0.324074
                                                         0.339070       0.165811
                                                         0.134144       0.029658
                                                         0.046384       0.007244
                          1       8    5dz2              2.490697      -0.904941
                                                         2.234155       0.932287
                                                         0.847552      -0.187104
                                                         0.339070       0.095731
                                                         0.134144       0.017123
                                                         0.046384       0.004182

                          1       9    6dx2              2.490697      -0.136744
                                                         2.234155       0.354584
                                                         0.847552       0.496103
                                                         0.339070      -0.222207
                                                         0.134144      -0.013122
                                                         0.046384       0.006845
                          1       9    6dxy              2.490697      -0.236848
                                                         2.234155       0.614158
                                                         0.847552       0.859276
                                                         0.339070      -0.384874
                                                         0.134144      -0.022728
                                                         0.046384       0.011856
                          1       9    6dxz              2.490697      -0.236848
                                                         2.234155       0.614158
                                                         0.847552       0.859276
                                                         0.339070      -0.384874
                                                         0.134144      -0.022728
                                                         0.046384       0.011856
                          1       9    6dy2              2.490697      -0.136744
                                                         2.234155       0.354584
                                                         0.847552       0.496103
                                                         0.339070      -0.222207
                                                         0.134144      -0.013122
                                                         0.046384       0.006845
                          1       9    6dyz              2.490697      -0.236848
                                                         2.234155       0.614158
                                                         0.847552       0.859276
                                                         0.339070      -0.384874
                                                         0.134144      -0.022728
                                                         0.046384       0.011856
                          1       9    6dz2              2.490697      -0.136744
                                                         2.234155       0.354584
                                                         0.847552       0.496103
                                                         0.339070      -0.222207
                                                         0.134144      -0.013122
                                                         0.046384       0.006845

                          1      10    5fx3              2.490697       0.399900
                                                         2.234155      -0.451869
                                                         0.847552       0.085000
                                                         0.339070       0.087820
                                                         0.134144       0.004116
                                                         0.046384       0.000352
                          1      10    5fx2y             2.490697       0.894203
                                                         2.234155      -1.010409
                                                         0.847552       0.190066
                                                         0.339070       0.196372
                                                         0.134144       0.009205
                                                         0.046384       0.000788
                          1      10    5fx2z             2.490697       0.894203
                                                         2.234155      -1.010409
                                                         0.847552       0.190066
                                                         0.339070       0.196372
                                                         0.134144       0.009205
                                                         0.046384       0.000788
                          1      10    5fxy2             2.490697       0.894203
                                                         2.234155      -1.010409
                                                         0.847552       0.190066
                                                         0.339070       0.196372
                                                         0.134144       0.009205
                                                         0.046384       0.000788
                          1      10    5fxyz             2.490697       1.548806
                                                         2.234155      -1.750080
                                                         0.847552       0.329204
                                                         0.339070       0.340125
                                                         0.134144       0.015943
                                                         0.046384       0.001365
                          1      10    5fxz2             2.490697       0.894203
                                                         2.234155      -1.010409
                                                         0.847552       0.190066
                                                         0.339070       0.196372
                                                         0.134144       0.009205
                                                         0.046384       0.000788
                          1      10    5fy3              2.490697       0.399900
                                                         2.234155      -0.451869
                                                         0.847552       0.085000
                                                         0.339070       0.087820
                                                         0.134144       0.004116
                                                         0.046384       0.000352
                          1      10    5fy2z             2.490697       0.894203
                                                         2.234155      -1.010409
                                                         0.847552       0.190066
                                                         0.339070       0.196372
                                                         0.134144       0.009205
                                                         0.046384       0.000788
                          1      10    5fyz2             2.490697       0.894203
                                                         2.234155      -1.010409
                                                         0.847552       0.190066
                                                         0.339070       0.196372
                                                         0.134144       0.009205
                                                         0.046384       0.000788
                          1      10    5fz3              2.490697       0.399900
                                                         2.234155      -0.451869
                                                         0.847552       0.085000
                                                         0.339070       0.087820
                                                         0.134144       0.004116
                                                         0.046384       0.000352

       Atomic covalent radius [Angstrom]:                                  1.480

       Atomic van der Waals radius [Angstrom]:                             1.960

     GTH Potential information for                                   GTH-PBE-q13

       Description:                       Goedecker-Teter-Hutter pseudopotential
                                           Goedecker et al., PRB 54, 1703 (1996)
                                          Hartwigsen et al., PRB 58, 3641 (1998)
                                                      Krack, TCA 114, 145 (2005)

       Gaussian exponent of the core charge distribution:               1.652893
       Electronic configuration (s p d ...):                           2   1  10

       Parameters of the local part of the GTH pseudopotential:

                          rloc        C1          C2          C3          C4
                        0.550000   12.290585

       Parameters of the non-local part of the GTH (SOC) pseudopotential:

                   l      r(l)      h(i,j,l)
                                    k(i,j,l)
                   0    0.512803    7.190170   -2.863011
                                   -2.863011    3.696131
                   1    0.577115    4.760946   -3.673325    0.000000
                                   -3.673325    4.346337    0.000000
                                    0.000000    0.000000    0.000000
                                    1.352978   -2.289012    0.680678
                                   -2.289012    3.841620   -1.610777
                                    0.680678   -1.610777    1.144788
                   2    0.393230  -11.012687    6.421592
                                    6.421592   -7.281401
                                   -0.115593    0.306710
                                    0.306710   -0.347777


 MOLECULE KIND INFORMATION


 All atoms are their own molecule, skipping detailed information


 TOTAL NUMBERS AND MAXIMUM NUMBERS

  Total number of            - Atomic kinds:                                   1
                             - Atoms:                                          2
                             - Shell sets:                                     2
                             - Shells:                                        20
                             - Primitive Cartesian functions:                 12
                             - Cartesian basis functions:                     80
                             - Spherical basis functions:                     68

  Maximum angular momentum of- Orbital basis functions:                        3
                             - Local part of the GTH pseudopotential:          0
                             - Non-local part of the GTH pseudopotential:      5


 MODULE QUICKSTEP: ATOMIC COORDINATES IN ANGSTROM

   Atom Kind Element         X             Y             Z       Z(eff)     Mass
      1    1 Tl   81      0.000000      0.000000      0.000000  13.0000 204.3833
      2    1 Tl   81      1.796257      1.037069      2.820975  13.0000 204.3833



 SCF PARAMETERS         Density guess:                                    ATOMIC
                        --------------------------------------------------------
                        max_scf:                                             500
                        max_scf_history:                                       0
                        max_diis:                                              4
                        --------------------------------------------------------
                        eps_scf:                                        1.00E-09
                        eps_scf_history:                                0.00E+00
                        eps_diis:                                       1.00E-01
                        eps_eigval:                                     1.00E-05
                        --------------------------------------------------------
                        level_shift [a.u.]:                             0.000000
                        added MOs                                        55    0
                        --------------------------------------------------------
                        Mixing method:                            BROYDEN_MIXING
                                                charge density mixing in g-space
                        --------------------------------------------------------
                        Smear method:                                FERMI_DIRAC
                        Electronic temperature [K]:                        300.0
                        Electronic temperature [a.u.]:                  9.50E-04
                        Accuracy threshold:                             1.00E-10
                        --------------------------------------------------------
                        No outer SCF

 PW_GRID| Information for grid number                                          1
 PW_GRID| Grid distributed over                                     8 processors
 PW_GRID| Real space group dimensions                                     8    1
 PW_GRID| the grid is blocked:                                                NO
 PW_GRID| Cutoff [a.u.]                                                    500.0
 PW_GRID| spherical cutoff:                                                   NO
 PW_GRID|   Bounds   1            -36      35                Points:          72
 PW_GRID|   Bounds   2            -36      35                Points:          72
 PW_GRID|   Bounds   3            -54      53                Points:         108
 PW_GRID| Volume element (a.u.^3)  0.7601E-03     Volume (a.u.^3)       425.5613
 PW_GRID| Grid span                                                    FULLSPACE
 PW_GRID|   Distribution                         Average         Max         Min
 PW_GRID|   G-Vectors                            69984.0       69984       69984
 PW_GRID|   G-Rays                                 972.0         972         972
 PW_GRID|   Real Space Points                    69984.0       69984       69984

 PW_GRID| Information for grid number                                          2
 PW_GRID| Number of the reference grid                                         1
 PW_GRID| Grid distributed over                                     8 processors
 PW_GRID| Real space group dimensions                                     8    1
 PW_GRID| the grid is blocked:                                                NO
 PW_GRID| Cutoff [a.u.]                                                    166.7
 PW_GRID| spherical cutoff:                                                   NO
 PW_GRID|   Bounds   1            -20      19                Points:          40
 PW_GRID|   Bounds   2            -20      19                Points:          40
 PW_GRID|   Bounds   3            -32      31                Points:          64
 PW_GRID| Volume element (a.u.^3)  0.4156E-02     Volume (a.u.^3)       425.5613
 PW_GRID| Grid span                                                    FULLSPACE
 PW_GRID|   Distribution                         Average         Max         Min
 PW_GRID|   G-Vectors                            12800.0       13000       12640
 PW_GRID|   G-Rays                                 320.0         325         316
 PW_GRID|   Real Space Points                    12800.0       12800       12800

 PW_GRID| Information for grid number                                          3
 PW_GRID| Number of the reference grid                                         1
 PW_GRID| Grid distributed over                                     8 processors
 PW_GRID| Real space group dimensions                                     8    1
 PW_GRID| the grid is blocked:                                                NO
 PW_GRID| Cutoff [a.u.]                                                     55.6
 PW_GRID| spherical cutoff:                                                   NO
 PW_GRID|   Bounds   1            -12      11                Points:          24
 PW_GRID|   Bounds   2            -12      11                Points:          24
 PW_GRID|   Bounds   3            -18      17                Points:          36
 PW_GRID| Volume element (a.u.^3)  0.2052E-01     Volume (a.u.^3)       425.5613
 PW_GRID| Grid span                                                    FULLSPACE
 PW_GRID|   Distribution                         Average         Max         Min
 PW_GRID|   G-Vectors                             2592.0        2640        2520
 PW_GRID|   G-Rays                                 108.0         110         105
 PW_GRID|   Real Space Points                     2592.0        2592        2592

 PW_GRID| Information for grid number                                          4
 PW_GRID| Number of the reference grid                                         1
 PW_GRID| Grid distributed over                                     8 processors
 PW_GRID| Real space group dimensions                                     8    1
 PW_GRID| the grid is blocked:                                                NO
 PW_GRID| Cutoff [a.u.]                                                     18.5
 PW_GRID| spherical cutoff:                                                   NO
 PW_GRID|   Bounds   1             -7       7                Points:          15
 PW_GRID|   Bounds   2             -7       7                Points:          15
 PW_GRID|   Bounds   3            -12      11                Points:          24
 PW_GRID| Volume element (a.u.^3)  0.7881E-01     Volume (a.u.^3)       425.5613
 PW_GRID| Grid span                                                    FULLSPACE
 PW_GRID|   Distribution                         Average         Max         Min
 PW_GRID|   G-Vectors                              675.0         690         660
 PW_GRID|   G-Rays                                  45.0          46          44
 PW_GRID|   Real Space Points                      675.0         720         360

 POISSON| Solver                                                        PERIODIC
 POISSON| Periodicity                                                        XYZ

 RS_GRID| Information for grid number                                          1
 RS_GRID|   Bounds   1            -36      35                Points:          72
 RS_GRID|   Bounds   2            -36      35                Points:          72
 RS_GRID|   Bounds   3            -54      53                Points:         108
 RS_GRID| Real space fully replicated
 RS_GRID| Group size                                                           1

 RS_GRID| Information for grid number                                          2
 RS_GRID|   Bounds   1            -20      19                Points:          40
 RS_GRID|   Bounds   2            -20      19                Points:          40
 RS_GRID|   Bounds   3            -32      31                Points:          64
 RS_GRID| Real space fully replicated
 RS_GRID| Group size                                                           1

 RS_GRID| Information for grid number                                          3
 RS_GRID|   Bounds   1            -12      11                Points:          24
 RS_GRID|   Bounds   2            -12      11                Points:          24
 RS_GRID|   Bounds   3            -18      17                Points:          36
 RS_GRID| Real space fully replicated
 RS_GRID| Group size                                                           1

 RS_GRID| Information for grid number                                          4
 RS_GRID|   Bounds   1             -7       7                Points:          15
 RS_GRID|   Bounds   2             -7       7                Points:          15
 RS_GRID|   Bounds   3            -12      11                Points:          24
 RS_GRID| Real space fully replicated
 RS_GRID| Group size                                                           1

 Number of electrons:                                                         26
 Number of occupied orbitals:                                                 13
 Number of molecular orbitals:                                                68

 Number of orbital functions:                                                 68
 Number of independent orbital functions:                                     68

 Extrapolation method: initial_guess

 Atomic guess: The first density matrix is obtained in terms of atomic orbitals
               and electronic configurations assigned to each atomic kind

 Guess for atomic kind: Tl

 Electronic structure
    Total number of core electrons                                         68.00
    Total number of valence electrons                                      13.00
    Total number of electrons                                              81.00
    Multiplicity                                                   not specified
    S   [  2.00  2.00  2.00  2.00  2.00] 2.00
    P   [  6.00  6.00  6.00  6.00] 1.00
    D   [ 10.00 10.00]10.00
    F   [ 14.00]


 *******************************************************************************
                  Iteration          Convergence                     Energy [au]
 *******************************************************************************
                          1        0.832839                     -49.536533278642
                          2        0.478175                     -49.581708198475
                          3        0.497670E-01                 -49.605424076020
                          4        0.156957E-02                 -49.605954408942
                          5        0.404129E-05                 -49.605954718820
                          6        0.274070E-07                 -49.605954718836

 Energy components [Hartree]           Total Energy ::          -49.605954718836
                                        Band Energy ::           -6.112402352533
                                     Kinetic Energy ::           31.403940521648
                                   Potential Energy ::          -81.009895240484
                                      Virial (-V/T) ::            2.579609243134
                                        Core Energy ::          -88.664174325716
                                          XC Energy ::           -6.433101743666
                                     Coulomb Energy ::           45.491321350545
                       Total Pseudopotential Energy ::         -120.162578652964
                       Local Pseudopotential Energy ::          -99.339639075555
                    Nonlocal Pseudopotential Energy ::          -20.822939577409
                                        Confinement ::            0.944638055998

 Orbital energies  State     L     Occupation   Energy[a.u.]          Energy[eV]

                       1     0          2.000      -0.330021           -8.980323

                       1     1          1.000      -0.057009           -1.551282

                       1     2         10.000      -0.539535          -14.681500


 Total Electron Density at R=0:                                         0.000014
 Re-scaling the density matrix to get the right number of electrons
                  # Electrons              Trace(P)               Scaling factor
                           26                26.000                        1.000


 SCF WAVEFUNCTION OPTIMIZATION

  Step     Update method      Time    Convergence         Total energy    Change
  ------------------------------------------------------------------------------
     1 NoMix/Diag. 0.10E+00   15.8     1.66763843       -99.8819962735 -9.99E+01
     2 Broy./Diag. 0.10E+00   16.8     0.00441149      -100.0700114283 -1.88E-01
     3 Broy./Diag. 0.10E+00   16.8     0.07236357       -99.9569815169  1.13E-01
     4 Broy./Diag. 0.10E+00   16.8     0.00182744       -99.7857411819  1.71E-01
     5 Broy./Diag. 0.10E+00   16.9     0.01402432       -99.8087240975 -2.30E-02
     6 Broy./Diag. 0.10E+00   16.9     0.00056739       -99.8211531376 -1.24E-02
     7 Broy./Diag. 0.10E+00   16.9     0.00476394       -99.8199983576  1.15E-03
     8 Broy./Diag. 0.10E+00   16.9     0.00003861       -99.8183351020  1.66E-03
     9 Broy./Diag. 0.10E+00   16.9     0.00060919       -99.8179483927  3.87E-04
    10 Broy./Diag. 0.10E+00   16.9     0.00001461       -99.8179299981  1.84E-05
    11 Broy./Diag. 0.10E+00   16.9     0.00008629       -99.8179955828 -6.56E-05
    12 Broy./Diag. 0.10E+00   16.9     0.00000755       -99.8179979176 -2.33E-06
    13 Broy./Diag. 0.10E+00   16.9     0.00006515       -99.8180111668 -1.32E-05
    14 Broy./Diag. 0.10E+00   16.9     0.00000118       -99.8180125645 -1.40E-06
    15 Broy./Diag. 0.10E+00   16.8     0.00000320       -99.8180163428 -3.78E-06
    16 Broy./Diag. 0.10E+00   16.9     0.00000063       -99.8180161465  1.96E-07
    17 Broy./Diag. 0.10E+00   16.9     0.00000042       -99.8180107598  5.39E-06
    18 Broy./Diag. 0.10E+00   16.9     0.00000281       -99.8180085257  2.23E-06
    19 Broy./Diag. 0.10E+00   16.9     0.00000035       -99.8180071969  1.33E-06
    20 Broy./Diag. 0.10E+00   16.8     0.00000065       -99.8180069105  2.86E-07
    21 Broy./Diag. 0.10E+00   16.8     0.00000015       -99.8180066534  2.57E-07
    22 Broy./Diag. 0.10E+00   16.8     0.00000006       -99.8180066902 -3.68E-08
    23 Broy./Diag. 0.10E+00   16.8     0.00000028       -99.8180067928 -1.03E-07
    24 Broy./Diag. 0.10E+00   16.8     0.00000007       -99.8180068677 -7.49E-08
    25 Broy./Diag. 0.10E+00   16.9     0.00000028       -99.8180068895 -2.18E-08
    26 Broy./Diag. 0.10E+00   16.8     5.3853E-09       -99.8180068589  3.06E-08
    27 Broy./Diag. 0.10E+00   16.8     0.00000002       -99.8180070152 -1.56E-07
    28 Broy./Diag. 0.10E+00   16.8     0.00000005       -99.8180071294 -1.14E-07
    29 Broy./Diag. 0.10E+00   16.8     0.00000002       -99.8180071362 -6.77E-09
    30 Broy./Diag. 0.10E+00   16.9     0.00000007       -99.8180070834  5.28E-08
    31 Broy./Diag. 0.10E+00   16.8     4.3666E-09       -99.8180070661  1.73E-08
    32 Broy./Diag. 0.10E+00   16.8     0.00000001       -99.8180070613  4.85E-09
    33 Broy./Diag. 0.10E+00   16.8     2.7042E-09       -99.8180070560  5.24E-09
    34 Broy./Diag. 0.10E+00   16.9     1.3376E-09       -99.8180070584 -2.42E-09
    35 Broy./Diag. 0.10E+00   16.8     3.8317E-09       -99.8180070619 -3.50E-09
    36 Broy./Diag. 0.10E+00   16.8     3.3595E-10       -99.8180070646 -2.64E-09

  *** SCF run converged in    36 steps ***


  Electronic density on regular grids:        -26.0000000000        0.0000000000
  Core density on regular grids:               26.0000000000        0.0000000000
  Total charge density on r-space grids:        0.0000000000
  Total charge density g-space grids:           0.0000000000

  Overlap energy of the core charge distribution:               0.00000000000000
  Self energy of the core charge distribution:               -173.36007203558330
  Core Hamiltonian energy:                                     50.98342992071903
  Hartree energy:                                              35.82511741236377
  Exchange-correlation energy:                                -13.26638158161060
  Electronic entropic energy:                                  -0.00010078046246
  Fermi energy:                                                 0.23098673677516

  Total energy:                                               -99.81800706457378

 !-----------------------------------------------------------------------------!
                     Mulliken Population Analysis

 #  Atom  Element  Kind  Atomic population                           Net charge
       1     Tl       1         13.000000                              0.000000
       2     Tl       1         13.000000                             -0.000000
 # Total charge                             26.000000                  0.000000

 !-----------------------------------------------------------------------------!

 !-----------------------------------------------------------------------------!
                           Hirshfeld Charges

  #Atom  Element  Kind  Ref Charge     Population                    Net charge
      1       Tl     1      13.000         13.000                         0.000
      2       Tl     1      13.000         13.000                         0.000

  Total Charge                                                            0.000
 !-----------------------------------------------------------------------------!
  
 -------------------------------------------------------------------------------
 -                                                                             -
 -                          BANDSTRUCTURE CALCULATION                          -
 -                                                                             -
 -------------------------------------------------------------------------------
  
 Number of occupied molecular orbitals (MOs) = Number of occupied bands       13
 Number of unoccupied (= virtual) MOs = Number of unoccupied bands            55
 Number of Gaussian basis functions for MOs                                   68
 Number of cells considered in the DFT calculation                          2230
 Number of cells for G, , W,                                               343
 Number of special k-points for the bandstructure                              4
 Number of k-points for the bandstructure                                    660

 SOC requested, SOC energy window:                                       40.0 eV

 
 SCF valence band maximum (eV):                                            8.748
 SCF conduction band minimum (eV):                                         4.777
 SCF indirect band gap (eV):                                              -3.972
 SCF direct band gap (eV):                                                 0.023
 
 SCF+SOC valence band maximum (eV):                                        8.478
 SCF+SOC conduction band minimum (eV):                                     4.550
 SCF+SOC indirect band gap (eV):                                          -3.928
 SCF+SOC direct band gap (eV):                                             0.155

 ENERGY| Total FORCE_EVAL ( QS ) energy [hartree]            -99.818007064573777

 -------------------------------------------------------------------------------
 -                                                                             -
 -                                DBCSR STATISTICS                             -
 -                                                                             -
[...]
 -                                GRID STATISTICS                              -
 -                                                                             -
 -------------------------------------------------------------------------------
 LP    KERNEL             BACKEND                              COUNT     PERCENT
 6     collocate general  CPU                                 713804      50.68%
 6     integrate general  CPU                                 694512      49.31%
 0     collocate general  CPU                                      4       0.00%
 0     integrate general  CPU                                      2       0.00%
 -------------------------------------------------------------------------------

 MEMORY| Estimated peak process memory [MiB]                                1200

 -------------------------------------------------------------------------------
 ----                             MULTIGRID INFO                            ----
 -------------------------------------------------------------------------------
 count for grid        1:          19340          cutoff [a.u.]          500.00
 count for grid        2:          61814          cutoff [a.u.]          166.67
 count for grid        3:          38676          cutoff [a.u.]           55.56
 count for grid        4:          27350          cutoff [a.u.]           18.52
 total gridlevel count  :         147180

 -------------------------------------------------------------------------------
 -                                                                             -
 -                         MESSAGE PASSING PERFORMANCE                         -
 -                                                                             -
 -------------------------------------------------------------------------------

 ROUTINE             CALLS      AVE VOLUME [Bytes]
 MP_Group                5
 MP_Bcast           332897                  13652.
 MP_Allreduce       244353                     32.
 MP_Sync                 4
 MP_Alltoall           653                3092809.
 MP_SendRecv          1050                 177361.
 MP_ISendRecv         1015                 174866.
 MP_Wait            229111
 MP_comm_split           3
 MP_ISend           241920                   1068.
 MP_IRecv           387072                    670.
 -------------------------------------------------------------------------------


 -------------------------------------------------------------------------------
 -                                                                             -
 -                           R E F E R E N C E S                               -
 -                                                                             -
 -------------------------------------------------------------------------------
 
 CP2K version 2025.1 (Development Version), the CP2K developers group (2025).
 CP2K is freely available from https://www.cp2k.org/ .
 
 T. D. Kuehne, M. Iannuzzi, M. Del Ben, V. V. Rybkin, P. Seewald, F. Stein, T. 
 Laino, R. Z. Khaliullin, O. Schuett, F. Schiffmann, D. Golze, J. Wilhelm, S. 
 Chulkov, M. H. Bani-Hashemian, V. Weber, U. Borstnik, M. Taillefumier, A. S. 
 Jakobovits, A. Lazzaro, H. Pabst, T. Mueller, R. Schade, M. Guidon, S. 
 Andermatt, N. Holmberg, G. K. Schenter, A. Hehn, A. Bussy, F. Belleflamme, G. 
 Tabacchi, A. Gloess, M. Lass, I. Bethune, C. J. Mundy, C. Plessl, M. Watkins, 
 J. VandeVondele, M. Krack, J. Hutter.
 J. Chem. Phys. 152, 194103 (2020).
 CP2K: An electronic structure and molecular dynamics software package - 
 Quickstep: Efficient and accurate electronic structure calculations.
 https://doi.org/10.1063/5.0007045

 O. Schuett, P. Messmer, J. Hutter, J. VandeVondele.
 Electronic Structure Calculations on Graphics Processing Units, 173-190 (2016).
 GPU-Accelerated Sparse Matrix-Matrix Multiplication for Linear Scaling Density 
 Functional Theory.
 https://doi.org/10.1002/9781118670712.ch8

 J. Hutter, M. Iannuzzi, F. Schiffmann, J. VandeVondele.
 WIREs Comput Mol Sci. 4, 15-25 (2014).
 CP2K: atomistic simulations of condensed matter systems.
 https://doi.org/10.1002/wcms.1159

 U. Borstnik, J. VandeVondele, V. Weber, J. Hutter.
 Parallel Comput. 40, 47-58 (2014).
 Sparse matrix multiplication: The distributed block-compressed sparse row 
 library.
 https://doi.org/10.1016/j.parco.2014.03.012

 J. VandeVondele, J. Hutter.
 J. Chem. Phys. 127, 114105 (2007).
 Gaussian basis sets for accurate calculations on molecular systems in gas and 
 condensed phases.
 https://doi.org/10.1063/1.2770708

 J. VandeVondele, M. Krack, F. Mohamed, M. Parrinello, T. Chassaing, J. Hutter.
 Comput. Phys. Commun. 167, 103-128 (2005).
 QUICKSTEP: Fast and accurate density functional calculations using a mixed 
 Gaussian and plane waves approach.
 https://doi.org/10.1016/j.cpc.2004.12.014

 M. Krack.
 Theor. Chem. Acc. 114, 145-152 (2005).
 Pseudopotentials for H to Kr optimized for gradient-corrected 
 exchange-correlation functionals.
 https://doi.org/10.1007/s00214-005-0655-y

 M. Frigo, S. G. Johnson.
 Proc. IEEE 93, 216-231 (2005).
 The design and implementation of FFTW3.
 https://doi.org/10.1109/JPROC.2004.840301

 C. Hartwigsen, S. Goedecker, J. Hutter.
 Phys. Rev. B 58, 3641-3662 (1998).
 Relativistic separable dual-space Gaussian pseudopotentials from H to Rn.
 https://doi.org/10.1103/PhysRevB.58.3641

 G. Lippert, J. Hutter, M. Parrinello.
 Mol. Phys. 92, 477-487 (1997).
 A hybrid Gaussian and plane wave density functional scheme.
 https://doi.org/10.1080/002689797170220

 S. Goedecker, M. Teter, J. Hutter.
 Phys. Rev. B 54, 1703-1710 (1996).
 Separable dual-space Gaussian pseudopotentials.
 https://doi.org/10.1103/PhysRevB.54.1703

 J. P. Perdew, K. Burke, M. Ernzerhof.
 Phys. Rev. Lett. 77, 3865-3868 (1996).
 Generalized gradient approximation made simple.
 https://doi.org/10.1103/PhysRevLett.77.3865


 -------------------------------------------------------------------------------
 -                                                                             -
 -                                T I M I N G                                  -
 -                                                                             -
 -------------------------------------------------------------------------------
 SUBROUTINE                       CALLS  ASD         SELF TIME        TOTAL TIME
                                MAXIMUM       AVERAGE  MAXIMUM  AVERAGE  MAXIMUM
 CP2K                                 1  1.0    0.019    0.023  698.684  698.684
 qs_energies                          1  2.0    0.012    0.017  697.485  697.488
 scf_env_do_scf                       1  3.0    0.000    0.000  609.645  609.645
 scf_env_do_scf_inner_loop           36  4.0    0.069    0.075  609.644  609.645
 mp_alltoall_i22                 157748  8.9  480.404  589.980  480.404  589.980
 qs_scf_new_mos_kp                   36  5.0    0.000    0.000  559.014  566.353
 do_general_diag_kp                  36  6.0    0.206    0.279  559.013  566.353
 dbcsr_desymmetrize_deep          91390  7.6    1.412    1.898  360.409  441.004
 rskp_transform                   21732  7.2   72.443  389.173   72.443  389.173
 dbcsr_complete_redistribute      66358  8.3    2.282    2.852  147.619  176.521
 kpoint_density_transform            36  7.0    0.117    0.149  164.054  164.577
 copy_fm_to_dbcsr                 18432  8.0    0.108    0.127  132.678  161.253
 transform_dmat                    9216  8.0   28.663  156.162   28.663  156.162
 qs_energies_properties               1  3.0    0.000    0.000   82.799   82.801
 post_scf_bandstructure               1  4.0    0.000    0.000   82.799   82.801
 rsmat_to_kp                       3300  7.0    0.053    0.068   63.145   63.160
 qs_ks_update_qs_env                 36  5.0    0.000    0.000   11.938   43.952
 soc                                  1  5.0    0.001    0.001   42.628   42.628
 H_KS_spinor_kp                       1  6.0    0.011    0.014   41.035   42.114
 rebuild_ks_matrix                   36  6.0    0.000    0.000    9.131   41.145
 qs_ks_build_kohn_sham_matrix        36  7.0    0.131    0.136    9.130   41.144
 sum_up_and_integrate                36  8.0    0.000    0.001    7.800   39.737
 integrate_v_rspace                  36  9.0    0.085    0.451    7.798   39.735
 grid_integrate_task_list            36 10.0    7.367   39.015    7.367   39.015
 transfer_rs2pw                     150  8.0    0.002    0.002   28.252   34.800
 transfer_rs2pw_500                  39  8.9    0.073    0.079   28.192   34.731
 mp_sendrecv_dv                    1050 10.0   28.160   34.712   28.160   34.712
 qs_rho_update_rho_low               37  5.0    0.000    0.000   33.003   33.051
 calculate_rho_elec                  37  6.0    0.034    0.088   33.002   33.050
 density_rs2pw                       37  7.0    0.002    0.002   26.739   32.869
 grid_collocate_task_list            37  7.0    6.227   32.449    6.227   32.449
 create_and_init_bs_env               1  5.0    0.000    0.000   31.981   31.981
 compute_cfm_mo_coeff_kp_and_ei       1  6.0    0.007    0.008   31.978   31.978
 copy_dbcsr_to_fm                 47926  7.0    0.480    0.565   24.067   24.400
 cp_cfm_heevd                      4284  7.8    0.006    0.007   14.976   15.031
 cp_cfm_heevd_base                 4284  8.8   14.970   15.025   14.970   15.025
 cp_cfm_geeig_canon                1812  7.0    0.017    0.019    8.982    9.028
 dos_pdos_ldos                        1  5.0    0.006    0.007    8.190    8.194
 SOC_ev                             660  6.0    0.014    0.015    7.710    7.720
 cp_dbcsr_alloc_block_from_nbl    38036  6.4    1.288    6.453    1.433    7.045
 mp_alltoall_d11v                473244  9.5    5.664    6.099    5.664    6.099
 dbcsr_finalize                  244970  8.4    0.808    0.923    5.426    5.736
 cp_fm_start_copy_general         55296  7.3    0.898    1.262    5.525    5.584
 V_SOC_xyz_from_pseudopotential       1  6.0    0.067    0.069    1.592    5.362
 mp_sum_iv                         1340  8.9    4.113    5.270    4.113    5.270
 alloc_cfm_double_array_1d            1  7.0    0.002    0.002    3.786    4.865
 create_cfm_double                  660  8.0    0.006    0.007    3.784    4.863
 hybrid_alltoall_any              91390  8.6    0.372    0.449    3.870    4.144
 mp_cart_sub                      95854  9.0    4.060    4.101    4.060    4.101
 dbcsr_dot                       160561  8.0    0.756    1.407    3.358    3.520
 write_kpoints_restart               36  5.0    0.020    0.026    3.355    3.356
 dbcsr_merge_all                  73048 10.3    1.770    2.050    3.057    3.314
 mp_sum_d                        161267  9.0    2.526    2.942    2.526    2.942
 mp_alltoall_i11v                290464  9.1    2.729    2.824    2.729    2.824
 evaluate_core_matrix_traces         36  6.0    0.000    0.000    2.807    2.807
 calculate_ptrace_kp                 72  7.0    0.124    0.137    2.807    2.807
 mp_allgather_i                  110592  8.3    2.596    2.753    2.596    2.753
 qs_energies_init_hamiltonians        1  3.0    0.000    0.000    2.706    2.706
 mp_cart_create                   47932  9.0    2.397    2.494    2.397    2.494
 self_consistency_check              36  5.0    0.115    0.125    2.114    2.227
 build_core_hamiltonian_matrix        1  4.0    0.008    0.008    0.524    2.177
 qs_env_update_s_mstruct              1  4.0    0.000    0.000    1.778    2.106
 calculate_rho_core                   1  5.0    0.001    0.003    1.669    2.083
 cp_sm_mix                        80280  6.0    0.258    0.604    1.862    2.014
 dbcsr_create_new                439420  7.9    1.435    1.575    1.750    1.936
 dbcsr_copy                      187912  6.7    1.002    1.169    1.540    1.914
 dbcsr_work_create               164438  8.9    0.928    1.085    1.563    1.908
 init_scf_run                         1  3.0    0.000    0.000    1.598    1.754
 scf_env_initial_rho_setup            1  4.0    0.000    0.000    1.598    1.754
 build_core_ppnl                      2  6.0    0.443    1.683    0.443    1.683
 mp_max_d                         80282  7.0    1.411    1.645    1.411    1.645
 dbcsr_iterator_start            679631  8.8    1.306    1.365    1.486    1.602
 cp_cfm_gemm                       8736  8.4    1.545    1.568    1.545    1.568
 mp_bcast_iv                     221340  8.3    1.349    1.544    1.349    1.544
 dbcsr_data_new                 1802721  9.7    1.053    1.349    1.053    1.349
 cp_fm_write_unformatted           4460  6.0    0.892    1.171    0.907    1.238
 dbcsr_work_destroy_all          164438  9.9    0.747    0.796    1.121    1.195
 parallel_gemm_cfm                 3300  7.0    0.003    0.004    1.052    1.076
 parallel_gemm_cfm_gemm            3300  8.0    0.003    0.004    1.048    1.072
 copy_dbcsr_to_fm_bc              47926  8.0    0.472    0.490    1.048    1.070
 tree_to_linear_d                 66358 11.3    1.020    1.048    1.020    1.048
 create_qs_kind_set                   1  2.0    0.000    0.000    1.026    1.026
 read_qs_kind                         1  3.0    0.625    0.631    1.026    1.026
 dbcsr_data_release             2665132 10.1    0.911    1.013    0.911    1.013
 dbcsr_iterator_stop             679631  8.8    0.819    0.853    0.962    1.000
 dbcsr_add_d                       6690  7.0    0.007    0.007    0.432    0.954
 dbcsr_add_anytype                 6690  8.0    0.023    0.086    0.425    0.947
 copy_fm_to_dbcsr_bc              18432  9.0    0.241    0.281    0.819    0.939
 kpoint_set_mo_occupation            36  7.0    0.830    0.834    0.886    0.929
 dbcsr_destroy                   272170  7.9    0.426    0.468    0.793    0.882
 mixing_allocate                      1  3.0    0.013    0.013    0.202    0.873
 fft_wrap_pw1pw2                    653 10.0    0.005    0.006    0.801    0.857
 calculate_first_density_matrix       1  5.0    0.001    0.002    0.683    0.839
 calculate_atomic_block_dm            1  6.0    0.001    0.001    0.678    0.835
 dbcsr_set                       292827  7.4    0.259    0.275    0.439    0.833
 fft_wrap_pw1pw2_500                434 11.3    0.050    0.051    0.735    0.790
 fft3d_ps                           653 12.0    0.230    0.236    0.660    0.718
 dbcsr_reserve_blocks             56468  8.5    0.206    0.652    0.231    0.700
 dbcsr_zero                      292827  8.4    0.179    0.558    0.179    0.558
 quick_finalize                   91390  9.6    0.236    0.321    0.387    0.535
 qs_vxc_create                       36  8.0    0.001    0.001    0.497    0.497
 xc_vxc_pw_create                    36  9.0    0.021    0.021    0.496    0.497
 build_overlap_matrix_low             1  5.0    0.024    0.065    0.116    0.488
 build_kinetic_matrix_low             1  5.0    0.023    0.064    0.115    0.486
 mp_bcast_im                     110592  8.3    0.412    0.474    0.412    0.474
 cp_fm_finish_copy_general        23040  7.8    0.365    0.407    0.399    0.470
 calculate_ecore_overlap              1  4.0    0.000    0.000    0.377    0.465
 add_to_DOS_PDOS                   1320  6.5    0.457    0.461    0.457    0.461
 parser_read_line                136811  4.0    0.044    0.047    0.455    0.459
 dbcsr_copy_into_existing         20662  9.6    0.155    0.333    0.270    0.455
 mp_alltoall_z22v                   653 14.0    0.377    0.441    0.377    0.441
 qs_env_rebuild_rho                   1  5.0    0.000    0.000    0.100    0.434
 qs_rho_rebuild                       1  6.0    0.006    0.006    0.100    0.434
 gspace_mixing                       35  5.0    0.018    0.018    0.430    0.430
 parser_read_line_low               155  5.2    0.048    0.206    0.411    0.416
 qs_scf_ensure_work_matrices          1  3.0    0.000    0.000    0.335    0.413
 mp_waitall_1                    229111  8.4    0.209    0.410    0.209    0.410
 mp_comm_free                    144477  9.0    0.338    0.403    0.338    0.403
 potential_pw2rs                     36 10.0    0.002    0.002    0.346    0.402
 kpoint_density_matrices             36  7.0    0.018    0.020    0.343    0.394
 broadcast_input_information        155  6.2    0.098    0.102    0.363    0.392
 parallel_gemm_fm                  4608  8.0    0.004    0.004    0.317    0.368
 parallel_gemm_fm_gemm             4608  9.0    0.004    0.004    0.313    0.364
 cp_fm_gemm                        4608 10.0    0.309    0.359    0.309    0.359
 broyden_mixing                      35  6.0    0.343    0.351    0.354    0.355
 compute_proj_mo_on_kind            660  6.0    0.015    0.016    0.294    0.323
 xc_pw_derive                       216 11.0    0.001    0.001    0.314    0.315
 add_cfm_submat                    5280  7.0    0.045    0.049    0.284    0.297
 yz_to_x                            293 12.8    0.017    0.018    0.225    0.284
 xc_rho_set_and_dset_create          36 10.0    0.013    0.014    0.266    0.269
 dbcsr_scale_anytype               6691  9.0    0.048    0.061    0.243    0.268
 dbcsr_iterator_seek             679631  9.8    0.180    0.249    0.180    0.249
 dbcsr_make_index_exist          439420  8.9    0.202    0.235    0.202    0.235
 build_core_ppl                       1  5.0    0.045    0.229    0.045    0.229
 dbcsr_sort_indices              214216 10.9    0.114    0.212    0.114    0.212
 xc_pw_divergence                    36 10.0    0.000    0.000    0.206    0.209
 x_to_yz                            360 13.2    0.031    0.033    0.200    0.207
 transfer_pw2rs                     145 11.0    0.001    0.001    0.185    0.185
 mp_bcast_i_src                     620  7.2    0.153    0.184    0.153    0.184
 dbcsr_reserve_all_blocks         18432 10.0    0.027    0.036    0.129    0.161
 cp_fm_to_fm_submat               10560  8.0    0.148    0.151    0.148    0.151
 merge_index                      73048 11.3    0.131    0.149    0.131    0.149
 transfer_pw2rs_500                  37 11.9    0.076    0.078    0.139    0.143
 mp_isend_dv                      55296  8.3    0.125    0.135    0.125    0.135
 mp_bcast_am_src                    155  7.2    0.098    0.102    0.111    0.123
 mp_irecv_iv                     221184  8.3    0.014    0.112    0.014    0.112
 dbcsr_switch_data_area           91390 10.6    0.083    0.085    0.108    0.110
 write_SOC_eigenvalues              148  6.0    0.014    0.109    0.014    0.109
 mp_sum_dm3                          36  8.0    0.055    0.100    0.055    0.100
 dbcsr_data_copy_aa2              66358 11.1    0.041    0.096    0.041    0.096
 xc_functional_eval                  36 11.0    0.000    0.000    0.088    0.090
 pbe_lda_eval                        36 12.0    0.088    0.090    0.088    0.090
 scf_post_calculation_gpw             1  3.0    0.000    0.000    0.082    0.087
 write_available_results              1  4.0    0.000    0.000    0.082    0.087
 write_mo_free_results                1  5.0    0.001    0.001    0.082    0.087
 cp_fm_cleanup_copy_general       39168  7.1    0.053    0.056    0.081    0.086
 mp_isend_iv                     124416  8.3    0.021    0.078    0.021    0.078
 cp_cfm_scale_and_add_fm          15168  7.7    0.072    0.076    0.072    0.076
 -------------------------------------------------------------------------------

 The number of warnings for this run is : 1
 
 -------------------------------------------------------------------------------
  **** **** ******  **  PROGRAM ENDED AT                 2025-08-03 21:14:50.447
 ***** ** ***  *** **   PROGRAM RAN ON                              i04r10c03s04
 **    ****   ******    PROGRAM RAN BY                                   di38fab
 ***** **    ** ** **   PROGRAM PROCESS ID                               3767873
  **** **  *******  **  PROGRAM STOPPED IN /hppfs/scratch/04/di38fab/09_GTH/Delt
                                           a_Set/Tl/TZVP-MOLOPT-PBE-GTH/8x8x8
