 DBCSR| CPU Multiplication driver                                           BLAS (U)
 DBCSR| Multrec recursion limit                                              512 (U)
 DBCSR| Multiplication stack size                                           1000 (D)
 DBCSR| Maximum elements for images                                    UNLIMITED (U)
 DBCSR| Multiplicative factor virtual images                                   1 (U)
 DBCSR| Use multiplication densification                                       T (D)
 DBCSR| Multiplication size stacks                                             3 (U)
 DBCSR| Use memory pool for CPU allocation                                     F (U)
 DBCSR| Number of 3D layers                                               SINGLE (U)
 DBCSR| Use MPI memory allocation                                              F (U)
 DBCSR| Use RMA algorithm                                                      F (U)
 DBCSR| Use Communication thread                                               T (U)
 DBCSR| Communication thread load                                             45 (D)
 DBCSR| MPI: My process id                                                     0
 DBCSR| MPI: Number of processes                                               8
 DBCSR| OMP: Current number of threads                                        12
 DBCSR| OMP: Max number of threads                                            12
 DBCSR| Split modifier for TAS multiplication algorithm                  1.0E+00 (U)


  **** **** ******  **  PROGRAM STARTED AT               2025-08-04 03:50:52.223
 ***** ** ***  *** **   PROGRAM STARTED ON                          i03r09c05s04
 **    ****   ******    PROGRAM STARTED BY                               di38fab
 ***** **    ** ** **   PROGRAM PROCESS ID                               1015786
  **** **  *******  **  PROGRAM STARTED IN /hppfs/scratch/04/di38fab/09_GTH/Delt
                                           a_Set/B/TZV2P-MOLOPT-PBE-GTH/8x8x8

 CP2K| version string:                 CP2K version 2025.1 (Development Version)
 CP2K| source code revision number:                                  git:3130539
 CP2K| cp2kflags: omp libint fftw3 libxc parallel scalapack max_contr=4         
 CP2K| is freely available from                            https://www.cp2k.org/
 CP2K| Program compiled at                         Tue Jun  3 16:14:32 CEST 2025
 CP2K| Program compiled on                                               login01
 CP2K| Program compiled for                                        Supermuc-foss
 CP2K| Data directory path                  /hppfs/work/pn36zo/di38fab/cp2k/data
 CP2K| Input file name                                                    GW.inp

 GLOBAL| Force Environment number                                              1
 GLOBAL| Basis set file name            /hppfs/scratch/04/di38fab/09_GTH/BASIS_A
 GLOBAL| Potential file name            /hppfs/work/pn36zo/di38fab/cp2k/data/GTH
 GLOBAL| MM Potential file name                                     MM_POTENTIAL
 GLOBAL| Coordinate file name                                              B.cif
 GLOBAL| Method name                                                        CP2K
 GLOBAL| Project name                                                       WSe2
 GLOBAL| Run type                                                         ENERGY
 GLOBAL| FFT library                                                       FFTW3
 GLOBAL| Diagonalization library                                       ScaLAPACK
 GLOBAL| Cholesky decomposition library                                ScaLAPACK
 GLOBAL| DGEMM library                                                      BLAS
 GLOBAL| Orthonormality check for eigenvectors                          DISABLED
 GLOBAL| Matrix multiplication library                                 ScaLAPACK
 GLOBAL| All-to-all communication in single precision                          F
 GLOBAL| FFTs using library dependent lengths                                  F
 GLOBAL| Grid backend                                                       AUTO
 GLOBAL| Global print level                                               MEDIUM
 GLOBAL| MPI I/O enabled                                                       T
 GLOBAL| Total number of message passing processes                             8
 GLOBAL| Number of threads for this process                                   12
 GLOBAL| This output is from process                                           0
 GLOBAL| OpenMP stack size per thread (OMP_STACKSIZE)                    default
 GLOBAL| CPU model name             Intel(R) Xeon(R) Platinum 8174 CPU @ 3.10GHz

 MEMORY| system memory details [Kb]
 MEMORY|                        rank 0           min           max       average
 MEMORY| MemTotal             98436664      98436660      98436664      98436662
 MEMORY| MemFree              85215168      85071136      85215168      85143152
 MEMORY| Buffers                     0             0             0             0
 MEMORY| Cached                2353752       2353752       2355672       2354712
 MEMORY| Slab                  1202992       1202992       1231156       1217074
 MEMORY| SReclaimable           265528        265528        272928        269228
 MEMORY| MemLikelyFree        87834448      87699736      87834448      87767092


 *** Fundamental physical constants (SI units) ***

 *** Literature: B. J. Mohr and B. N. Taylor,
 ***             CODATA recommended values of the fundamental physical
 ***             constants: 2006, Web Version 5.1
 ***             http://physics.nist.gov/constants

 Speed of light in vacuum [m/s]                             2.99792458000000E+08
 Magnetic constant or permeability of vacuum [N/A**2]       1.25663706143592E-06
 Electric constant or permittivity of vacuum [F/m]          8.85418781762039E-12
 Planck constant (h) [J*s]                                  6.62606896000000E-34
 Planck constant (h-bar) [J*s]                              1.05457162825177E-34
 Elementary charge [C]                                      1.60217648700000E-19
 Electron mass [kg]                                         9.10938215000000E-31
 Electron g factor [ ]                                     -2.00231930436220E+00
 Proton mass [kg]                                           1.67262163700000E-27
 Fine-structure constant                                    7.29735253760000E-03
 Rydberg constant [1/m]                                     1.09737315685270E+07
 Avogadro constant [1/mol]                                  6.02214179000000E+23
 Boltzmann constant [J/K]                                   1.38065040000000E-23
 Atomic mass unit [kg]                                      1.66053878200000E-27
 Bohr radius [m]                                            5.29177208590000E-11

 *** Conversion factors ***

 [u] -> [a.u.]                                              1.82288848426455E+03
 [Angstrom] -> [Bohr] = [a.u.]                              1.88972613288564E+00
 [a.u.] = [Bohr] -> [Angstrom]                              5.29177208590000E-01
 [a.u.] -> [s]                                              2.41888432650478E-17
 [a.u.] -> [fs]                                             2.41888432650478E-02
 [a.u.] -> [J]                                              4.35974393937059E-18
 [a.u.] -> [N]                                              8.23872205491840E-08
 [a.u.] -> [K]                                              3.15774647902944E+05
 [a.u.] -> [kJ/mol]                                         2.62549961709828E+03
 [a.u.] -> [kcal/mol]                                       6.27509468713739E+02
 [a.u.] -> [Pa]                                             2.94210107994716E+13
 [a.u.] -> [bar]                                            2.94210107994716E+08
 [a.u.] -> [atm]                                            2.90362800883016E+08
 [a.u.] -> [eV]                                             2.72113838565563E+01
 [a.u.] -> [Hz]                                             6.57968392072181E+15
 [a.u.] -> [1/cm] (wave numbers)                            2.19474631370540E+05
 [a.u./Bohr**2] -> [1/cm]                                   5.14048714338585E+03
 

 CELL_TOP| Volume [angstrom^3]:                                        87.025411
 CELL_TOP| Vector a [angstrom     4.901     0.000     0.000   |a| =     4.900670
 CELL_TOP| Vector b [angstrom    -2.450     4.244     0.000   |b| =     4.900670
 CELL_TOP| Vector c [angstrom     2.450    -1.415     4.184   |c| =     5.050980
 CELL_TOP| Angle (b,c), alpha [degree]:                               119.020350
 CELL_TOP| Angle (a,c), beta  [degree]:                                60.979650
 CELL_TOP| Angle (a,b), gamma [degree]:                               120.000000
 CELL_TOP| Numerically orthorhombic:                                          NO
 CELL_TOP| Periodicity                                                       XYZ

 CELL_CIF| Volume [angstrom^3]:                                        87.025411
 CELL_CIF| Vector a [angstrom     4.901     0.000     0.000   |a| =     4.900670
 CELL_CIF| Vector b [angstrom    -2.450     4.244     0.000   |b| =     4.900670
 CELL_CIF| Vector c [angstrom     2.450    -1.415     4.184   |c| =     5.050980
 CELL_CIF| Angle (b,c), alpha [degree]:                               119.020350
 CELL_CIF| Angle (a,c), beta  [degree]:                                60.979650
 CELL_CIF| Angle (a,b), gamma [degree]:                               120.000000
 CELL_CIF| Numerically orthorhombic:                                          NO
 CELL_CIF| Periodicity                                                       XYZ

 GENERATE|  Preliminary Number of Bonds generated:                             0
 GENERATE|  Achieved consistency in connectivity generation.

 CELL| Volume [angstrom^3]:                                            87.025411
 CELL| Vector a [angstrom]:       4.901     0.000     0.000   |a| =     4.900670
 CELL| Vector b [angstrom]:      -2.450     4.244     0.000   |b| =     4.900670
 CELL| Vector c [angstrom]:       2.450    -1.415     4.184   |c| =     5.050980
 CELL| Angle (b,c), alpha [degree]:                                   119.020350
 CELL| Angle (a,c), beta  [degree]:                                    60.979650
 CELL| Angle (a,b), gamma [degree]:                                   120.000000
 CELL| Numerically orthorhombic:                                              NO
 CELL| Periodicity                                                           XYZ

 CELL_REF| Volume [angstrom^3]:                                        87.025411
 CELL_REF| Vector a [angstrom     4.901     0.000     0.000   |a| =     4.900670
 CELL_REF| Vector b [angstrom    -2.450     4.244     0.000   |b| =     4.900670
 CELL_REF| Vector c [angstrom     2.450    -1.415     4.184   |c| =     5.050980
 CELL_REF| Angle (b,c), alpha [degree]:                               119.020350
 CELL_REF| Angle (a,c), beta  [degree]:                                60.979650
 CELL_REF| Angle (a,b), gamma [degree]:                               120.000000
 CELL_REF| Numerically orthorhombic:                                          NO
 CELL_REF| Periodicity                                                       XYZ

 *** WARNING in cryssym.F:180 :: Symmetry library SPGLIB not available ***


 *******************************************************************************
                                    Kpoints
 *******************************************************************************
 BRILLOUIN| K-point scheme                                        Monkhorst-Pack
 BRILLOUIN| K-Point grid                                             8    8    8
 BRILLOUIN| Accuracy in Symmetry determination                      0.100000E-05
 BRILLOUIN| K-Point point group symmetrization                               OFF
 BRILLOUIN| Wavefunction type                                            COMPLEX
 BRILLOUIN| List of Kpoints [2 Pi/Bohr]                                      256
 BRILLOUIN| Number           Weight            X              Y              Z
 BRILLOUIN|     1           0.00391       -0.43750       -0.43750       -0.43750
 BRILLOUIN|     2           0.00391       -0.43750       -0.43750       -0.31250
 BRILLOUIN|     3           0.00391       -0.43750       -0.43750       -0.18750
 BRILLOUIN|     4           0.00391       -0.43750       -0.43750       -0.06250
 BRILLOUIN|     5           0.00391       -0.43750       -0.43750        0.06250
 BRILLOUIN|     6           0.00391       -0.43750       -0.43750        0.18750
 BRILLOUIN|     7           0.00391       -0.43750       -0.43750        0.31250
 BRILLOUIN|     8           0.00391       -0.43750       -0.43750        0.43750
 BRILLOUIN|     9           0.00391       -0.43750       -0.31250       -0.43750
 BRILLOUIN|    10           0.00391       -0.43750       -0.31250       -0.31250
 BRILLOUIN|    11           0.00391       -0.43750       -0.31250       -0.18750
 BRILLOUIN|    12           0.00391       -0.43750       -0.31250       -0.06250
 BRILLOUIN|    13           0.00391       -0.43750       -0.31250        0.06250
 BRILLOUIN|    14           0.00391       -0.43750       -0.31250        0.18750
 BRILLOUIN|    15           0.00391       -0.43750       -0.31250        0.31250
 BRILLOUIN|    16           0.00391       -0.43750       -0.31250        0.43750
 BRILLOUIN|    17           0.00391       -0.43750       -0.18750       -0.43750
 BRILLOUIN|    18           0.00391       -0.43750       -0.18750       -0.31250
 BRILLOUIN|    19           0.00391       -0.43750       -0.18750       -0.18750
 BRILLOUIN|    20           0.00391       -0.43750       -0.18750       -0.06250
 BRILLOUIN|    21           0.00391       -0.43750       -0.18750        0.06250
 BRILLOUIN|    22           0.00391       -0.43750       -0.18750        0.18750
 BRILLOUIN|    23           0.00391       -0.43750       -0.18750        0.31250
 BRILLOUIN|    24           0.00391       -0.43750       -0.18750        0.43750
 BRILLOUIN|    25           0.00391       -0.43750       -0.06250       -0.43750
 BRILLOUIN|    26           0.00391       -0.43750       -0.06250       -0.31250
 BRILLOUIN|    27           0.00391       -0.43750       -0.06250       -0.18750
 BRILLOUIN|    28           0.00391       -0.43750       -0.06250       -0.06250
 BRILLOUIN|    29           0.00391       -0.43750       -0.06250        0.06250
 BRILLOUIN|    30           0.00391       -0.43750       -0.06250        0.18750
 BRILLOUIN|    31           0.00391       -0.43750       -0.06250        0.31250
 BRILLOUIN|    32           0.00391       -0.43750       -0.06250        0.43750
 BRILLOUIN|    33           0.00391       -0.43750        0.06250       -0.43750
 BRILLOUIN|    34           0.00391       -0.43750        0.06250       -0.31250
 BRILLOUIN|    35           0.00391       -0.43750        0.06250       -0.18750
 BRILLOUIN|    36           0.00391       -0.43750        0.06250       -0.06250
 BRILLOUIN|    37           0.00391       -0.43750        0.06250        0.06250
 BRILLOUIN|    38           0.00391       -0.43750        0.06250        0.18750
 BRILLOUIN|    39           0.00391       -0.43750        0.06250        0.31250
 BRILLOUIN|    40           0.00391       -0.43750        0.06250        0.43750
 BRILLOUIN|    41           0.00391       -0.43750        0.18750       -0.43750
 BRILLOUIN|    42           0.00391       -0.43750        0.18750       -0.31250
 BRILLOUIN|    43           0.00391       -0.43750        0.18750       -0.18750
 BRILLOUIN|    44           0.00391       -0.43750        0.18750       -0.06250
 BRILLOUIN|    45           0.00391       -0.43750        0.18750        0.06250
 BRILLOUIN|    46           0.00391       -0.43750        0.18750        0.18750
 BRILLOUIN|    47           0.00391       -0.43750        0.18750        0.31250
 BRILLOUIN|    48           0.00391       -0.43750        0.18750        0.43750
 BRILLOUIN|    49           0.00391       -0.43750        0.31250       -0.43750
 BRILLOUIN|    50           0.00391       -0.43750        0.31250       -0.31250
 BRILLOUIN|    51           0.00391       -0.43750        0.31250       -0.18750
 BRILLOUIN|    52           0.00391       -0.43750        0.31250       -0.06250
 BRILLOUIN|    53           0.00391       -0.43750        0.31250        0.06250
 BRILLOUIN|    54           0.00391       -0.43750        0.31250        0.18750
 BRILLOUIN|    55           0.00391       -0.43750        0.31250        0.31250
 BRILLOUIN|    56           0.00391       -0.43750        0.31250        0.43750
 BRILLOUIN|    57           0.00391       -0.43750        0.43750       -0.43750
 BRILLOUIN|    58           0.00391       -0.43750        0.43750       -0.31250
 BRILLOUIN|    59           0.00391       -0.43750        0.43750       -0.18750
 BRILLOUIN|    60           0.00391       -0.43750        0.43750       -0.06250
 BRILLOUIN|    61           0.00391       -0.43750        0.43750        0.06250
 BRILLOUIN|    62           0.00391       -0.43750        0.43750        0.18750
 BRILLOUIN|    63           0.00391       -0.43750        0.43750        0.31250
 BRILLOUIN|    64           0.00391       -0.43750        0.43750        0.43750
 BRILLOUIN|    65           0.00391       -0.31250       -0.43750       -0.43750
 BRILLOUIN|    66           0.00391       -0.31250       -0.43750       -0.31250
 BRILLOUIN|    67           0.00391       -0.31250       -0.43750       -0.18750
 BRILLOUIN|    68           0.00391       -0.31250       -0.43750       -0.06250
 BRILLOUIN|    69           0.00391       -0.31250       -0.43750        0.06250
 BRILLOUIN|    70           0.00391       -0.31250       -0.43750        0.18750
 BRILLOUIN|    71           0.00391       -0.31250       -0.43750        0.31250
 BRILLOUIN|    72           0.00391       -0.31250       -0.43750        0.43750
 BRILLOUIN|    73           0.00391       -0.31250       -0.31250       -0.43750
 BRILLOUIN|    74           0.00391       -0.31250       -0.31250       -0.31250
 BRILLOUIN|    75           0.00391       -0.31250       -0.31250       -0.18750
 BRILLOUIN|    76           0.00391       -0.31250       -0.31250       -0.06250
 BRILLOUIN|    77           0.00391       -0.31250       -0.31250        0.06250
 BRILLOUIN|    78           0.00391       -0.31250       -0.31250        0.18750
 BRILLOUIN|    79           0.00391       -0.31250       -0.31250        0.31250
 BRILLOUIN|    80           0.00391       -0.31250       -0.31250        0.43750
 BRILLOUIN|    81           0.00391       -0.31250       -0.18750       -0.43750
 BRILLOUIN|    82           0.00391       -0.31250       -0.18750       -0.31250
 BRILLOUIN|    83           0.00391       -0.31250       -0.18750       -0.18750
 BRILLOUIN|    84           0.00391       -0.31250       -0.18750       -0.06250
 BRILLOUIN|    85           0.00391       -0.31250       -0.18750        0.06250
 BRILLOUIN|    86           0.00391       -0.31250       -0.18750        0.18750
 BRILLOUIN|    87           0.00391       -0.31250       -0.18750        0.31250
 BRILLOUIN|    88           0.00391       -0.31250       -0.18750        0.43750
 BRILLOUIN|    89           0.00391       -0.31250       -0.06250       -0.43750
 BRILLOUIN|    90           0.00391       -0.31250       -0.06250       -0.31250
 BRILLOUIN|    91           0.00391       -0.31250       -0.06250       -0.18750
 BRILLOUIN|    92           0.00391       -0.31250       -0.06250       -0.06250
 BRILLOUIN|    93           0.00391       -0.31250       -0.06250        0.06250
 BRILLOUIN|    94           0.00391       -0.31250       -0.06250        0.18750
 BRILLOUIN|    95           0.00391       -0.31250       -0.06250        0.31250
 BRILLOUIN|    96           0.00391       -0.31250       -0.06250        0.43750
 BRILLOUIN|    97           0.00391       -0.31250        0.06250       -0.43750
 BRILLOUIN|    98           0.00391       -0.31250        0.06250       -0.31250
 BRILLOUIN|    99           0.00391       -0.31250        0.06250       -0.18750
 BRILLOUIN|   100           0.00391       -0.31250        0.06250       -0.06250
 BRILLOUIN|   101           0.00391       -0.31250        0.06250        0.06250
 BRILLOUIN|   102           0.00391       -0.31250        0.06250        0.18750
 BRILLOUIN|   103           0.00391       -0.31250        0.06250        0.31250
 BRILLOUIN|   104           0.00391       -0.31250        0.06250        0.43750
 BRILLOUIN|   105           0.00391       -0.31250        0.18750       -0.43750
 BRILLOUIN|   106           0.00391       -0.31250        0.18750       -0.31250
 BRILLOUIN|   107           0.00391       -0.31250        0.18750       -0.18750
 BRILLOUIN|   108           0.00391       -0.31250        0.18750       -0.06250
 BRILLOUIN|   109           0.00391       -0.31250        0.18750        0.06250
 BRILLOUIN|   110           0.00391       -0.31250        0.18750        0.18750
 BRILLOUIN|   111           0.00391       -0.31250        0.18750        0.31250
 BRILLOUIN|   112           0.00391       -0.31250        0.18750        0.43750
 BRILLOUIN|   113           0.00391       -0.31250        0.31250       -0.43750
 BRILLOUIN|   114           0.00391       -0.31250        0.31250       -0.31250
 BRILLOUIN|   115           0.00391       -0.31250        0.31250       -0.18750
 BRILLOUIN|   116           0.00391       -0.31250        0.31250       -0.06250
 BRILLOUIN|   117           0.00391       -0.31250        0.31250        0.06250
 BRILLOUIN|   118           0.00391       -0.31250        0.31250        0.18750
 BRILLOUIN|   119           0.00391       -0.31250        0.31250        0.31250
 BRILLOUIN|   120           0.00391       -0.31250        0.31250        0.43750
 BRILLOUIN|   121           0.00391       -0.31250        0.43750       -0.43750
 BRILLOUIN|   122           0.00391       -0.31250        0.43750       -0.31250
 BRILLOUIN|   123           0.00391       -0.31250        0.43750       -0.18750
 BRILLOUIN|   124           0.00391       -0.31250        0.43750       -0.06250
 BRILLOUIN|   125           0.00391       -0.31250        0.43750        0.06250
 BRILLOUIN|   126           0.00391       -0.31250        0.43750        0.18750
 BRILLOUIN|   127           0.00391       -0.31250        0.43750        0.31250
 BRILLOUIN|   128           0.00391       -0.31250        0.43750        0.43750
 BRILLOUIN|   129           0.00391       -0.18750       -0.43750       -0.43750
 BRILLOUIN|   130           0.00391       -0.18750       -0.43750       -0.31250
 BRILLOUIN|   131           0.00391       -0.18750       -0.43750       -0.18750
 BRILLOUIN|   132           0.00391       -0.18750       -0.43750       -0.06250
 BRILLOUIN|   133           0.00391       -0.18750       -0.43750        0.06250
 BRILLOUIN|   134           0.00391       -0.18750       -0.43750        0.18750
 BRILLOUIN|   135           0.00391       -0.18750       -0.43750        0.31250
 BRILLOUIN|   136           0.00391       -0.18750       -0.43750        0.43750
 BRILLOUIN|   137           0.00391       -0.18750       -0.31250       -0.43750
 BRILLOUIN|   138           0.00391       -0.18750       -0.31250       -0.31250
 BRILLOUIN|   139           0.00391       -0.18750       -0.31250       -0.18750
 BRILLOUIN|   140           0.00391       -0.18750       -0.31250       -0.06250
 BRILLOUIN|   141           0.00391       -0.18750       -0.31250        0.06250
 BRILLOUIN|   142           0.00391       -0.18750       -0.31250        0.18750
 BRILLOUIN|   143           0.00391       -0.18750       -0.31250        0.31250
 BRILLOUIN|   144           0.00391       -0.18750       -0.31250        0.43750
 BRILLOUIN|   145           0.00391       -0.18750       -0.18750       -0.43750
 BRILLOUIN|   146           0.00391       -0.18750       -0.18750       -0.31250
 BRILLOUIN|   147           0.00391       -0.18750       -0.18750       -0.18750
 BRILLOUIN|   148           0.00391       -0.18750       -0.18750       -0.06250
 BRILLOUIN|   149           0.00391       -0.18750       -0.18750        0.06250
 BRILLOUIN|   150           0.00391       -0.18750       -0.18750        0.18750
 BRILLOUIN|   151           0.00391       -0.18750       -0.18750        0.31250
 BRILLOUIN|   152           0.00391       -0.18750       -0.18750        0.43750
 BRILLOUIN|   153           0.00391       -0.18750       -0.06250       -0.43750
 BRILLOUIN|   154           0.00391       -0.18750       -0.06250       -0.31250
 BRILLOUIN|   155           0.00391       -0.18750       -0.06250       -0.18750
 BRILLOUIN|   156           0.00391       -0.18750       -0.06250       -0.06250
 BRILLOUIN|   157           0.00391       -0.18750       -0.06250        0.06250
 BRILLOUIN|   158           0.00391       -0.18750       -0.06250        0.18750
 BRILLOUIN|   159           0.00391       -0.18750       -0.06250        0.31250
 BRILLOUIN|   160           0.00391       -0.18750       -0.06250        0.43750
 BRILLOUIN|   161           0.00391       -0.18750        0.06250       -0.43750
 BRILLOUIN|   162           0.00391       -0.18750        0.06250       -0.31250
 BRILLOUIN|   163           0.00391       -0.18750        0.06250       -0.18750
 BRILLOUIN|   164           0.00391       -0.18750        0.06250       -0.06250
 BRILLOUIN|   165           0.00391       -0.18750        0.06250        0.06250
 BRILLOUIN|   166           0.00391       -0.18750        0.06250        0.18750
 BRILLOUIN|   167           0.00391       -0.18750        0.06250        0.31250
 BRILLOUIN|   168           0.00391       -0.18750        0.06250        0.43750
 BRILLOUIN|   169           0.00391       -0.18750        0.18750       -0.43750
 BRILLOUIN|   170           0.00391       -0.18750        0.18750       -0.31250
 BRILLOUIN|   171           0.00391       -0.18750        0.18750       -0.18750
 BRILLOUIN|   172           0.00391       -0.18750        0.18750       -0.06250
 BRILLOUIN|   173           0.00391       -0.18750        0.18750        0.06250
 BRILLOUIN|   174           0.00391       -0.18750        0.18750        0.18750
 BRILLOUIN|   175           0.00391       -0.18750        0.18750        0.31250
 BRILLOUIN|   176           0.00391       -0.18750        0.18750        0.43750
 BRILLOUIN|   177           0.00391       -0.18750        0.31250       -0.43750
 BRILLOUIN|   178           0.00391       -0.18750        0.31250       -0.31250
 BRILLOUIN|   179           0.00391       -0.18750        0.31250       -0.18750
 BRILLOUIN|   180           0.00391       -0.18750        0.31250       -0.06250
 BRILLOUIN|   181           0.00391       -0.18750        0.31250        0.06250
 BRILLOUIN|   182           0.00391       -0.18750        0.31250        0.18750
 BRILLOUIN|   183           0.00391       -0.18750        0.31250        0.31250
 BRILLOUIN|   184           0.00391       -0.18750        0.31250        0.43750
 BRILLOUIN|   185           0.00391       -0.18750        0.43750       -0.43750
 BRILLOUIN|   186           0.00391       -0.18750        0.43750       -0.31250
 BRILLOUIN|   187           0.00391       -0.18750        0.43750       -0.18750
 BRILLOUIN|   188           0.00391       -0.18750        0.43750       -0.06250
 BRILLOUIN|   189           0.00391       -0.18750        0.43750        0.06250
 BRILLOUIN|   190           0.00391       -0.18750        0.43750        0.18750
 BRILLOUIN|   191           0.00391       -0.18750        0.43750        0.31250
 BRILLOUIN|   192           0.00391       -0.18750        0.43750        0.43750
 BRILLOUIN|   193           0.00391       -0.06250       -0.43750       -0.43750
 BRILLOUIN|   194           0.00391       -0.06250       -0.43750       -0.31250
 BRILLOUIN|   195           0.00391       -0.06250       -0.43750       -0.18750
 BRILLOUIN|   196           0.00391       -0.06250       -0.43750       -0.06250
 BRILLOUIN|   197           0.00391       -0.06250       -0.43750        0.06250
 BRILLOUIN|   198           0.00391       -0.06250       -0.43750        0.18750
 BRILLOUIN|   199           0.00391       -0.06250       -0.43750        0.31250
 BRILLOUIN|   200           0.00391       -0.06250       -0.43750        0.43750
 BRILLOUIN|   201           0.00391       -0.06250       -0.31250       -0.43750
 BRILLOUIN|   202           0.00391       -0.06250       -0.31250       -0.31250
 BRILLOUIN|   203           0.00391       -0.06250       -0.31250       -0.18750
 BRILLOUIN|   204           0.00391       -0.06250       -0.31250       -0.06250
 BRILLOUIN|   205           0.00391       -0.06250       -0.31250        0.06250
 BRILLOUIN|   206           0.00391       -0.06250       -0.31250        0.18750
 BRILLOUIN|   207           0.00391       -0.06250       -0.31250        0.31250
 BRILLOUIN|   208           0.00391       -0.06250       -0.31250        0.43750
 BRILLOUIN|   209           0.00391       -0.06250       -0.18750       -0.43750
 BRILLOUIN|   210           0.00391       -0.06250       -0.18750       -0.31250
 BRILLOUIN|   211           0.00391       -0.06250       -0.18750       -0.18750
 BRILLOUIN|   212           0.00391       -0.06250       -0.18750       -0.06250
 BRILLOUIN|   213           0.00391       -0.06250       -0.18750        0.06250
 BRILLOUIN|   214           0.00391       -0.06250       -0.18750        0.18750
 BRILLOUIN|   215           0.00391       -0.06250       -0.18750        0.31250
 BRILLOUIN|   216           0.00391       -0.06250       -0.18750        0.43750
 BRILLOUIN|   217           0.00391       -0.06250       -0.06250       -0.43750
 BRILLOUIN|   218           0.00391       -0.06250       -0.06250       -0.31250
 BRILLOUIN|   219           0.00391       -0.06250       -0.06250       -0.18750
 BRILLOUIN|   220           0.00391       -0.06250       -0.06250       -0.06250
 BRILLOUIN|   221           0.00391       -0.06250       -0.06250        0.06250
 BRILLOUIN|   222           0.00391       -0.06250       -0.06250        0.18750
 BRILLOUIN|   223           0.00391       -0.06250       -0.06250        0.31250
 BRILLOUIN|   224           0.00391       -0.06250       -0.06250        0.43750
 BRILLOUIN|   225           0.00391       -0.06250        0.06250       -0.43750
 BRILLOUIN|   226           0.00391       -0.06250        0.06250       -0.31250
 BRILLOUIN|   227           0.00391       -0.06250        0.06250       -0.18750
 BRILLOUIN|   228           0.00391       -0.06250        0.06250       -0.06250
 BRILLOUIN|   229           0.00391       -0.06250        0.06250        0.06250
 BRILLOUIN|   230           0.00391       -0.06250        0.06250        0.18750
 BRILLOUIN|   231           0.00391       -0.06250        0.06250        0.31250
 BRILLOUIN|   232           0.00391       -0.06250        0.06250        0.43750
 BRILLOUIN|   233           0.00391       -0.06250        0.18750       -0.43750
 BRILLOUIN|   234           0.00391       -0.06250        0.18750       -0.31250
 BRILLOUIN|   235           0.00391       -0.06250        0.18750       -0.18750
 BRILLOUIN|   236           0.00391       -0.06250        0.18750       -0.06250
 BRILLOUIN|   237           0.00391       -0.06250        0.18750        0.06250
 BRILLOUIN|   238           0.00391       -0.06250        0.18750        0.18750
 BRILLOUIN|   239           0.00391       -0.06250        0.18750        0.31250
 BRILLOUIN|   240           0.00391       -0.06250        0.18750        0.43750
 BRILLOUIN|   241           0.00391       -0.06250        0.31250       -0.43750
 BRILLOUIN|   242           0.00391       -0.06250        0.31250       -0.31250
 BRILLOUIN|   243           0.00391       -0.06250        0.31250       -0.18750
 BRILLOUIN|   244           0.00391       -0.06250        0.31250       -0.06250
 BRILLOUIN|   245           0.00391       -0.06250        0.31250        0.06250
 BRILLOUIN|   246           0.00391       -0.06250        0.31250        0.18750
 BRILLOUIN|   247           0.00391       -0.06250        0.31250        0.31250
 BRILLOUIN|   248           0.00391       -0.06250        0.31250        0.43750
 BRILLOUIN|   249           0.00391       -0.06250        0.43750       -0.43750
 BRILLOUIN|   250           0.00391       -0.06250        0.43750       -0.31250
 BRILLOUIN|   251           0.00391       -0.06250        0.43750       -0.18750
 BRILLOUIN|   252           0.00391       -0.06250        0.43750       -0.06250
 BRILLOUIN|   253           0.00391       -0.06250        0.43750        0.06250
 BRILLOUIN|   254           0.00391       -0.06250        0.43750        0.18750
 BRILLOUIN|   255           0.00391       -0.06250        0.43750        0.31250
 BRILLOUIN|   256           0.00391       -0.06250        0.43750        0.43750
 *******************************************************************************

 *******************************************************************************
 *******************************************************************************
 **                                                                           **
 **     #####                         ##              ##                      **
 **    ##   ##            ##          ##              ##                      **
 **   ##     ##                       ##            ######                    **
 **   ##     ##  ##   ##  ##   #####  ##  ##   ####   ##    #####    #####    **
 **   ##     ##  ##   ##  ##  ##      ## ##   ##      ##   ##   ##  ##   ##   **
 **   ##  ## ##  ##   ##  ##  ##      ####     ###    ##   ######   ######    **
 **    ##  ###   ##   ##  ##  ##      ## ##      ##   ##   ##       ##        **
 **     #######   #####   ##   #####  ##  ##  ####    ##    #####   ##        **
 **           ##                                                    ##        **
 **                                                                           **
 **                                                ... make the atoms dance   **
 **                                                                           **
 **            Copyright (C) by CP2K developers group (2000-2025)             **
 **                      J. Chem. Phys. 152, 194103 (2020)                    **
 **                                                                           **
 *******************************************************************************

 DFT| Spin restricted Kohn-Sham (RKS) calculation                            RKS
 DFT| Multiplicity                                                             1
 DFT| Number of spin states                                                    1
 DFT| Charge                                                                   0
 DFT| Self-interaction correction (SIC)                                       NO
 DFT| Cutoffs: density                                              1.000000E-10
 DFT|          gradient                                             1.000000E-10
 DFT|          tau                                                  1.000000E-10
 DFT|          cutoff_smoothing_range                               0.000000E+00
 DFT| XC density smoothing                                                  NONE
 DFT| XC derivatives                                                          PW

 FUNCTIONAL| PBE:
 FUNCTIONAL| J.P.Perdew, K.Burke, M.Ernzerhof, Phys. Rev. Letter, vol. 77, n 18,
 FUNCTIONAL|  pp. 3865-3868, (1996) {spin unpolarized}                          


 QS| Method:                                                                 GPW
 QS| Density plane wave grid type                        NON-SPHERICAL FULLSPACE
 QS| Number of grid levels:                                                    4
 QS| Density cutoff [a.u.]:                                                500.0
 QS| Multi grid cutoff [a.u.]: 1) grid level                               500.0
 QS|                           2) grid level                               166.7
 QS|                           3) grid level                                55.6
 QS|                           4) grid level                                18.5
 QS| Grid level progression factor:                                          3.0
 QS| Relative density cutoff [a.u.]:                                        50.0
 QS| Interaction thresholds: eps_pgf_orb:                                1.0E-16
 QS|                         eps_filter_matrix:                          0.0E+00
 QS|                         eps_core_charge:                            1.0E-18
 QS|                         eps_rho_gspace:                             1.0E-16
 QS|                         eps_rho_rspace:                             1.0E-16
 QS|                         eps_gvg_rspace:                             1.0E-08
 QS|                         eps_ppl:                                    1.0E-02
 QS|                         eps_ppnl:                                   1.0E-10


 ATOMIC KIND INFORMATION

  1. Atomic kind: B                                     Number of atoms:      12

     Orbital Basis Set                                   TZV2P-MOLOPT-GGA-GTH-q3

       Number of orbital shell sets:                                           1
       Number of orbital shells:                                               9
       Number of primitive Cartesian functions:                                5
       Number of Cartesian basis functions:                                   34
       Number of spherical basis functions:                                   29
       Norm type:                                                              2

       Normalised Cartesian orbitals:

                        Set   Shell   Orbital            Exponent    Coefficient

                          1       1    2s                3.575233      -0.251277
                                                         1.347699      -0.198106
                                                         0.614553       0.172878
                                                         0.253523       0.151700
                                                         0.085137       0.035450

                          1       2    3s                3.575233       0.549636
                                                         1.347699       0.196373
                                                         0.614553      -0.255207
                                                         0.253523      -0.051628
                                                         0.085137       0.138907

                          1       3    4s                3.575233      -2.548426
                                                         1.347699      -0.015252
                                                         0.614553       0.995642
                                                         0.253523      -0.496980
                                                         0.085137       0.095773

                          1       4    3px               3.575233      -0.379954
                                                         1.347699      -0.232253
                                                         0.614553      -0.197045
                                                         0.253523      -0.107441
                                                         0.085137      -0.025250
                          1       4    3py               3.575233      -0.379954
                                                         1.347699      -0.232253
                                                         0.614553      -0.197045
                                                         0.253523      -0.107441
                                                         0.085137      -0.025250
                          1       4    3pz               3.575233      -0.379954
                                                         1.347699      -0.232253
                                                         0.614553      -0.197045
                                                         0.253523      -0.107441
                                                         0.085137      -0.025250

                          1       5    4px               3.575233       0.795891
                                                         1.347699       0.510277
                                                         0.614553       0.370808
                                                         0.253523       0.096082
                                                         0.085137      -0.053145
                          1       5    4py               3.575233       0.795891
                                                         1.347699       0.510277
                                                         0.614553       0.370808
                                                         0.253523       0.096082
                                                         0.085137      -0.053145
                          1       5    4pz               3.575233       0.795891
                                                         1.347699       0.510277
                                                         0.614553       0.370808
                                                         0.253523       0.096082
                                                         0.085137      -0.053145

                          1       6    5px               3.575233       1.547907
                                                         1.347699       0.913267
                                                         0.614553       0.659546
                                                         0.253523      -0.229482
                                                         0.085137       0.016583
                          1       6    5py               3.575233       1.547907
                                                         1.347699       0.913267
                                                         0.614553       0.659546
                                                         0.253523      -0.229482
                                                         0.085137       0.016583
                          1       6    5pz               3.575233       1.547907
                                                         1.347699       0.913267
                                                         0.614553       0.659546
                                                         0.253523      -0.229482
                                                         0.085137       0.016583

                          1       7    4dx2              3.575233      -0.146757
                                                         1.347699       0.616788
                                                         0.614553       0.145475
                                                         0.253523       0.099150
                                                         0.085137       0.002211
                          1       7    4dxy              3.575233      -0.254191
                                                         1.347699       1.068308
                                                         0.614553       0.251971
                                                         0.253523       0.171733
                                                         0.085137       0.003829
                          1       7    4dxz              3.575233      -0.254191
                                                         1.347699       1.068308
                                                         0.614553       0.251971
                                                         0.253523       0.171733
                                                         0.085137       0.003829
                          1       7    4dy2              3.575233      -0.146757
                                                         1.347699       0.616788
                                                         0.614553       0.145475
                                                         0.253523       0.099150
                                                         0.085137       0.002211
                          1       7    4dyz              3.575233      -0.254191
                                                         1.347699       1.068308
                                                         0.614553       0.251971
                                                         0.253523       0.171733
                                                         0.085137       0.003829
                          1       7    4dz2              3.575233      -0.146757
                                                         1.347699       0.616788
                                                         0.614553       0.145475
                                                         0.253523       0.099150
                                                         0.085137       0.002211

                          1       8    5dx2              3.575233       0.057471
                                                         1.347699      -0.124074
                                                         0.614553      -0.027539
                                                         0.253523      -0.020198
                                                         0.085137       0.023873
                          1       8    5dxy              3.575233       0.099542
                                                         1.347699      -0.214903
                                                         0.614553      -0.047698
                                                         0.253523      -0.034983
                                                         0.085137       0.041350
                          1       8    5dxz              3.575233       0.099542
                                                         1.347699      -0.214903
                                                         0.614553      -0.047698
                                                         0.253523      -0.034983
                                                         0.085137       0.041350
                          1       8    5dy2              3.575233       0.057471
                                                         1.347699      -0.124074
                                                         0.614553      -0.027539
                                                         0.253523      -0.020198
                                                         0.085137       0.023873
                          1       8    5dyz              3.575233       0.099542
                                                         1.347699      -0.214903
                                                         0.614553      -0.047698
                                                         0.253523      -0.034983
                                                         0.085137       0.041350
                          1       8    5dz2              3.575233       0.057471
                                                         1.347699      -0.124074
                                                         0.614553      -0.027539
                                                         0.253523      -0.020198
                                                         0.085137       0.023873

                          1       9    5fx3              3.575233      -0.003906
                                                         1.347699       0.002299
                                                         0.614553       0.004234
                                                         0.253523       0.066847
                                                         0.085137      -0.000016
                          1       9    5fx2y             3.575233      -0.008735
                                                         1.347699       0.005140
                                                         0.614553       0.009469
                                                         0.253523       0.149473
                                                         0.085137      -0.000035
                          1       9    5fx2z             3.575233      -0.008735
                                                         1.347699       0.005140
                                                         0.614553       0.009469
                                                         0.253523       0.149473
                                                         0.085137      -0.000035
                          1       9    5fxy2             3.575233      -0.008735
                                                         1.347699       0.005140
                                                         0.614553       0.009469
                                                         0.253523       0.149473
                                                         0.085137      -0.000035
                          1       9    5fxyz             3.575233      -0.015130
                                                         1.347699       0.008903
                                                         0.614553       0.016400
                                                         0.253523       0.258896
                                                         0.085137      -0.000061
                          1       9    5fxz2             3.575233      -0.008735
                                                         1.347699       0.005140
                                                         0.614553       0.009469
                                                         0.253523       0.149473
                                                         0.085137      -0.000035
                          1       9    5fy3              3.575233      -0.003906
                                                         1.347699       0.002299
                                                         0.614553       0.004234
                                                         0.253523       0.066847
                                                         0.085137      -0.000016
                          1       9    5fy2z             3.575233      -0.008735
                                                         1.347699       0.005140
                                                         0.614553       0.009469
                                                         0.253523       0.149473
                                                         0.085137      -0.000035
                          1       9    5fyz2             3.575233      -0.008735
                                                         1.347699       0.005140
                                                         0.614553       0.009469
                                                         0.253523       0.149473
                                                         0.085137      -0.000035
                          1       9    5fz3              3.575233      -0.003906
                                                         1.347699       0.002299
                                                         0.614553       0.004234
                                                         0.253523       0.066847
                                                         0.085137      -0.000016

       Atomic covalent radius [Angstrom]:                                  0.820

       Atomic van der Waals radius [Angstrom]:                             1.920

     GTH Potential information for                                    GTH-PBE-q3

       Description:                       Goedecker-Teter-Hutter pseudopotential
                                           Goedecker et al., PRB 54, 1703 (1996)
                                          Hartwigsen et al., PRB 58, 3641 (1998)
                                                      Krack, TCA 114, 145 (2005)

       Gaussian exponent of the core charge distribution:               2.848129
       Electronic configuration (s p d ...):                               2   1

       Parameters of the local part of the GTH pseudopotential:

                          rloc        C1          C2          C3          C4
                        0.418991   -5.859462    0.903756

       Parameters of the non-local part of the GTH (SOC) pseudopotential:

                   l      r(l)      h(i,j,l)
                                    k(i,j,l)
                   0    0.371320    6.297280
                   1    0.364563    0.000000
                                    0.000855


 MOLECULE KIND INFORMATION


 All atoms are their own molecule, skipping detailed information


 TOTAL NUMBERS AND MAXIMUM NUMBERS

  Total number of            - Atomic kinds:                                   1
                             - Atoms:                                         12
                             - Shell sets:                                    12
                             - Shells:                                       108
                             - Primitive Cartesian functions:                 60
                             - Cartesian basis functions:                    408
                             - Spherical basis functions:                    348

  Maximum angular momentum of- Orbital basis functions:                        3
                             - Local part of the GTH pseudopotential:          2
                             - Non-local part of the GTH pseudopotential:      1


 MODULE QUICKSTEP: ATOMIC COORDINATES IN ANGSTROM

   Atom Kind Element         X             Y             Z       Z(eff)     Mass
      1    1 B     5      6.477998     -0.910671      2.822819   3.0000  10.8110
      2    1 B     5     -1.577330      3.740075      1.361305   3.0000  10.8110
      3    1 B     5      4.900644      1.821387      2.822819   3.0000  10.8110
      4    1 B     5      0.000024      1.008018      1.361305   3.0000  10.8110
      5    1 B     5      3.323290     -0.910671      2.822819   3.0000  10.8110
      6    1 B     5      1.577378      3.740075      1.361305   3.0000  10.8110
      7    1 B     5      3.453232      0.835678      0.304353   3.0000  10.8110
      8    1 B     5      1.447435      1.993726      3.879771   3.0000  10.8110
      9    1 B     5      2.450359      2.572706      0.304353   3.0000  10.8110
     10    1 B     5      2.450308      0.256699      3.879771   3.0000  10.8110
     11    1 B     5      1.447486      0.835678      0.304353   3.0000  10.8110
     12    1 B     5      3.453181      1.993726      3.879771   3.0000  10.8110



 SCF PARAMETERS         Density guess:                                    ATOMIC
                        --------------------------------------------------------
                        max_scf:                                             500
                        max_scf_history:                                       0
                        max_diis:                                              4
                        --------------------------------------------------------
                        eps_scf:                                        1.00E-09
                        eps_scf_history:                                0.00E+00
                        eps_diis:                                       1.00E-01
                        eps_eigval:                                     1.00E-05
                        --------------------------------------------------------
                        level_shift [a.u.]:                             0.000000
                        added MOs                                       330    0
                        --------------------------------------------------------
                        Mixing method:                            BROYDEN_MIXING
                                                charge density mixing in g-space
                        --------------------------------------------------------
                        No outer SCF

 PW_GRID| Information for grid number                                          1
 PW_GRID| Grid distributed over                                     8 processors
 PW_GRID| Real space group dimensions                                     8    1
 PW_GRID| the grid is blocked:                                                NO
 PW_GRID| Cutoff [a.u.]                                                    500.0
 PW_GRID| spherical cutoff:                                                   NO
 PW_GRID|   Bounds   1            -48      47                Points:          96
 PW_GRID|   Bounds   2            -48      47                Points:          96
 PW_GRID|   Bounds   3            -50      49                Points:         100
 PW_GRID| Volume element (a.u.^3)  0.6372E-03     Volume (a.u.^3)       587.2766
 PW_GRID| Grid span                                                    FULLSPACE
 PW_GRID|   Distribution                         Average         Max         Min
 PW_GRID|   G-Vectors                           115200.0      115200      115200
 PW_GRID|   G-Rays                                1200.0        1200        1200
 PW_GRID|   Real Space Points                   115200.0      115200      115200

 PW_GRID| Information for grid number                                          2
 PW_GRID| Number of the reference grid                                         1
 PW_GRID| Grid distributed over                                     8 processors
 PW_GRID| Real space group dimensions                                     8    1
 PW_GRID| the grid is blocked:                                                NO
 PW_GRID| Cutoff [a.u.]                                                    166.7
 PW_GRID| spherical cutoff:                                                   NO
 PW_GRID|   Bounds   1            -27      26                Points:          54
 PW_GRID|   Bounds   2            -27      26                Points:          54
 PW_GRID|   Bounds   3            -30      29                Points:          60
 PW_GRID| Volume element (a.u.^3)  0.3357E-02     Volume (a.u.^3)       587.2766
 PW_GRID| Grid span                                                    FULLSPACE
 PW_GRID|   Distribution                         Average         Max         Min
 PW_GRID|   G-Vectors                            21870.0       21924       21816
 PW_GRID|   G-Rays                                 405.0         406         404
 PW_GRID|   Real Space Points                    21870.0       22680       19440

 PW_GRID| Information for grid number                                          3
 PW_GRID| Number of the reference grid                                         1
 PW_GRID| Grid distributed over                                     8 processors
 PW_GRID| Real space group dimensions                                     8    1
 PW_GRID| the grid is blocked:                                                NO
 PW_GRID| Cutoff [a.u.]                                                     55.6
 PW_GRID| spherical cutoff:                                                   NO
 PW_GRID|   Bounds   1            -16      15                Points:          32
 PW_GRID|   Bounds   2            -16      15                Points:          32
 PW_GRID|   Bounds   3            -18      17                Points:          36
 PW_GRID| Volume element (a.u.^3)  0.1593E-01     Volume (a.u.^3)       587.2766
 PW_GRID| Grid span                                                    FULLSPACE
 PW_GRID|   Distribution                         Average         Max         Min
 PW_GRID|   G-Vectors                             4608.0        4640        4576
 PW_GRID|   G-Rays                                 144.0         145         143
 PW_GRID|   Real Space Points                     4608.0        4608        4608

 PW_GRID| Information for grid number                                          4
 PW_GRID| Number of the reference grid                                         1
 PW_GRID| Grid distributed over                                     8 processors
 PW_GRID| Real space group dimensions                                     8    1
 PW_GRID| the grid is blocked:                                                NO
 PW_GRID| Cutoff [a.u.]                                                     18.5
 PW_GRID| spherical cutoff:                                                   NO
 PW_GRID|   Bounds   1             -9       8                Points:          18
 PW_GRID|   Bounds   2             -9       8                Points:          18
 PW_GRID|   Bounds   3            -10       9                Points:          20
 PW_GRID| Volume element (a.u.^3)  0.9063E-01     Volume (a.u.^3)       587.2766
 PW_GRID| Grid span                                                    FULLSPACE
 PW_GRID|   Distribution                         Average         Max         Min
 PW_GRID|   G-Vectors                              810.0         864         792
 PW_GRID|   G-Rays                                  45.0          48          44
 PW_GRID|   Real Space Points                      810.0        1080         720

 POISSON| Solver                                                        PERIODIC
 POISSON| Periodicity                                                        XYZ

 RS_GRID| Information for grid number                                          1
 RS_GRID|   Bounds   1            -48      47                Points:          96
 RS_GRID|   Bounds   2            -48      47                Points:          96
 RS_GRID|   Bounds   3            -50      49                Points:         100
 RS_GRID| Real space fully replicated
 RS_GRID| Group size                                                           1

 RS_GRID| Information for grid number                                          2
 RS_GRID|   Bounds   1            -27      26                Points:          54
 RS_GRID|   Bounds   2            -27      26                Points:          54
 RS_GRID|   Bounds   3            -30      29                Points:          60
 RS_GRID| Real space fully replicated
 RS_GRID| Group size                                                           1

 RS_GRID| Information for grid number                                          3
 RS_GRID|   Bounds   1            -16      15                Points:          32
 RS_GRID|   Bounds   2            -16      15                Points:          32
 RS_GRID|   Bounds   3            -18      17                Points:          36
 RS_GRID| Real space fully replicated
 RS_GRID| Group size                                                           1

 RS_GRID| Information for grid number                                          4
 RS_GRID|   Bounds   1             -9       8                Points:          18
 RS_GRID|   Bounds   2             -9       8                Points:          18
 RS_GRID|   Bounds   3            -10       9                Points:          20
 RS_GRID| Real space fully replicated
 RS_GRID| Group size                                                           1

 Number of electrons:                                                         36
 Number of occupied orbitals:                                                 18
 Number of molecular orbitals:                                               348

 Number of orbital functions:                                                348
 Number of independent orbital functions:                                    348

 Extrapolation method: initial_guess

 Atomic guess: The first density matrix is obtained in terms of atomic orbitals
               and electronic configurations assigned to each atomic kind

 Guess for atomic kind: B

 Electronic structure
    Total number of core electrons                                          2.00
    Total number of valence electrons                                       3.00
    Total number of electrons                                               5.00
    Multiplicity                                                   not specified
    S   [  2.00] 2.00
    P      1.00


 *******************************************************************************
                  Iteration          Convergence                     Energy [au]
 *******************************************************************************
                          1        0.318465E-01                  -2.531540264260
                          2        0.101784E-01                  -2.532440779639
                          3        0.447090E-03                  -2.532615081054
                          4        0.937586E-06                  -2.532615380170

 Energy components [Hartree]           Total Energy ::           -2.532615380170
                                        Band Energy ::           -0.764856086396
                                     Kinetic Energy ::            1.372237023413
                                   Potential Energy ::           -3.904852403583
                                      Virial (-V/T) ::            2.845610734122
                                        Core Energy ::           -3.754234323912
                                          XC Energy ::           -0.784351887368
                                     Coulomb Energy ::            2.005970831110
                       Total Pseudopotential Energy ::           -5.156123935062
                       Local Pseudopotential Energy ::           -5.552504464016
                    Nonlocal Pseudopotential Energy ::            0.396380528954
                                        Confinement ::            0.296525877372

 Orbital energies  State     L     Occupation   Energy[a.u.]          Energy[eV]

                       1     0          2.000      -0.326344           -8.880279

                       1     1          1.000      -0.112168           -3.052236


 Total Electron Density at R=0:                                         0.000270
 Re-scaling the density matrix to get the right number of electrons
                  # Electrons              Trace(P)               Scaling factor
                           36                36.000                        1.000


 SCF WAVEFUNCTION OPTIMIZATION

  Step     Update method      Time    Convergence         Total energy    Change
  ------------------------------------------------------------------------------
     1 NoMix/Diag. 0.50E-01   27.4     1.66695808       -35.7413636164 -3.57E+01
     2 Broy./Diag. 0.50E-01   28.2     0.01259128       -31.3799238590  4.36E+00
     3 Broy./Diag. 0.50E-01   28.2     0.30057408       -33.0561719502 -1.68E+00
     4 Broy./Diag. 0.50E-01   28.1     0.01093556       -33.7024406068 -6.46E-01
     5 Broy./Diag. 0.50E-01   28.5     0.11245679       -33.9245065599 -2.22E-01
     6 Broy./Diag. 0.50E-01   27.9     0.00256468       -34.0078174050 -8.33E-02
     7 Broy./Diag. 0.50E-01   28.1     0.11990192       -34.0085375545 -7.20E-04
     8 Broy./Diag. 0.50E-01   28.0     0.00898137       -34.0075096266  1.03E-03
     9 Broy./Diag. 0.50E-01   28.1     0.01889045       -34.0012923713  6.22E-03
    10 Broy./Diag. 0.50E-01   28.2     0.01945254       -33.9984546757  2.84E-03
    11 Broy./Diag. 0.50E-01   28.1     0.00059578       -33.9987238551 -2.69E-04
    12 Broy./Diag. 0.50E-01   28.1     0.00875534       -33.9989339346 -2.10E-04
    13 Broy./Diag. 0.50E-01   28.0     0.00009506       -33.9988126812  1.21E-04
    14 Broy./Diag. 0.50E-01   28.0     0.00162509       -33.9991498516 -3.37E-04
    15 Broy./Diag. 0.50E-01   28.1     0.00006669       -33.9991764088 -2.66E-05
    16 Broy./Diag. 0.50E-01   28.1     0.00037652       -33.9991648015  1.16E-05
    17 Broy./Diag. 0.50E-01   28.2     0.00025509       -33.9991154687  4.93E-05
    18 Broy./Diag. 0.50E-01   28.2     0.00000787       -33.9991013555  1.41E-05
    19 Broy./Diag. 0.50E-01   28.2     0.00006737       -33.9991012909  6.46E-08
    20 Broy./Diag. 0.50E-01   28.2     0.00004158       -33.9991051588 -3.87E-06
    21 Broy./Diag. 0.50E-01   28.0     0.00001591       -33.9990995538  5.60E-06
    22 Broy./Diag. 0.50E-01   28.6     0.00000665       -33.9990926219  6.93E-06
    23 Broy./Diag. 0.50E-01   28.3     0.00000455       -33.9990885958  4.03E-06
    24 Broy./Diag. 0.50E-01   28.3     0.00000124       -33.9990856577  2.94E-06
    25 Broy./Diag. 0.50E-01   28.3     0.00000378       -33.9990824056  3.25E-06
    26 Broy./Diag. 0.50E-01   28.3     0.00000209       -33.9990810377  1.37E-06
    27 Broy./Diag. 0.50E-01   28.3     0.00000129       -33.9990809704  6.73E-08
    28 Broy./Diag. 0.50E-01   28.2     0.00000435       -33.9990795908  1.38E-06
    29 Broy./Diag. 0.50E-01   28.3     0.00000016       -33.9990791470  4.44E-07
    30 Broy./Diag. 0.50E-01   28.2     0.00000289       -33.9990793120 -1.65E-07
    31 Broy./Diag. 0.50E-01   28.3     0.00000003       -33.9990794268 -1.15E-07
    32 Broy./Diag. 0.50E-01   28.3     0.00000186       -33.9990792988  1.28E-07
    33 Broy./Diag. 0.50E-01   28.3     0.00000008       -33.9990792739  2.49E-08
    34 Broy./Diag. 0.50E-01   28.3     0.00000024       -33.9990793994 -1.26E-07
    35 Broy./Diag. 0.50E-01   28.5     0.00000005       -33.9990794062 -6.80E-09
    36 Broy./Diag. 0.50E-01   28.3     0.00000008       -33.9990793634  4.28E-08
    37 Broy./Diag. 0.50E-01   29.0     0.00000002       -33.9990793329  3.05E-08
    38 Broy./Diag. 0.50E-01   28.0     5.9497E-09       -33.9990793257  7.22E-09
    39 Broy./Diag. 0.50E-01   28.0     0.00000003       -33.9990793283 -2.56E-09
    40 Broy./Diag. 0.50E-01   27.9     0.00000001       -33.9990793249  3.35E-09
    41 Broy./Diag. 0.50E-01   27.9     4.0476E-09       -33.9990793201  4.85E-09
    42 Broy./Diag. 0.50E-01   28.4     0.00000002       -33.9990793193  7.55E-10
    43 Broy./Diag. 0.50E-01   28.2     9.2779E-09       -33.9990793186  7.44E-10
    44 Broy./Diag. 0.50E-01   28.1     3.3299E-09       -33.9990793153  3.25E-09
    45 Broy./Diag. 0.50E-01   28.2     2.3303E-09       -33.9990793152  8.78E-11
    46 Broy./Diag. 0.50E-01   28.2     5.0414E-09       -33.9990793168 -1.54E-09
    47 Broy./Diag. 0.50E-01   28.2     1.0270E-09       -33.9990793173 -5.09E-10
    48 Broy./Diag. 0.50E-01   28.1     1.3455E-09       -33.9990793175 -1.74E-10
    49 Broy./Diag. 0.50E-01   28.2     3.7800E-10       -33.9990793173  1.44E-10

  *** SCF run converged in    49 steps ***


  Electronic density on regular grids:        -36.0000000000        0.0000000000
  Core density on regular grids:               36.0000000000        0.0000000000
  Total charge density on r-space grids:        0.0000000000
  Total charge density g-space grids:           0.0000000000

  Overlap energy of the core charge distribution:               0.00000193750296
  Self energy of the core charge distribution:                -72.71326780434026
  Core Hamiltonian energy:                                     24.71759687301226
  Hartree energy:                                              27.21359983003357
  Exchange-correlation energy:                                -13.21701015352411

  Total energy:                                               -33.99907931731560

 !-----------------------------------------------------------------------------!
                     Mulliken Population Analysis

 #  Atom  Element  Kind  Atomic population                           Net charge
       1     B        1          2.912438                              0.087562
       2     B        1          2.912438                              0.087562
       3     B        1          2.912487                              0.087513
       4     B        1          2.912487                              0.087513
       5     B        1          2.912477                              0.087523
       6     B        1          2.912477                              0.087523
       7     B        1          3.087576                             -0.087576
       8     B        1          3.087576                             -0.087576
       9     B        1          3.087514                             -0.087514
      10     B        1          3.087514                             -0.087514
      11     B        1          3.087508                             -0.087508
      12     B        1          3.087508                             -0.087508
 # Total charge                             36.000000                  0.000000

 !-----------------------------------------------------------------------------!

 !-----------------------------------------------------------------------------!
                           Hirshfeld Charges

  #Atom  Element  Kind  Ref Charge     Population                    Net charge
      1       B      1       3.000          3.041                        -0.041
      2       B      1       3.000          3.041                        -0.041
      3       B      1       3.000          3.041                        -0.041
      4       B      1       3.000          3.041                        -0.041
      5       B      1       3.000          3.041                        -0.041
      6       B      1       3.000          3.041                        -0.041
      7       B      1       3.000          2.959                         0.041
      8       B      1       3.000          2.959                         0.041
      9       B      1       3.000          2.959                         0.041
     10       B      1       3.000          2.959                         0.041
     11       B      1       3.000          2.959                         0.041
     12       B      1       3.000          2.959                         0.041

  Total Charge                                                           -0.000
 !-----------------------------------------------------------------------------!

 KPOINTS| Band Structure Calculation
 KPOINTS| Number of k-point sets                                               1
 KPOINTS| Number of added MOs/bands                                           -1
 KPOINTS| Number of k-points in set    1                                     148
 KPOINTS| In units of b-vector [2pi/Bohr]
 KPOINTS| Special point     1 not specifi     0.000000     0.000000     0.000000
 KPOINTS| Special point     2 not specifi     0.371440     0.371440     0.000000
 KPOINTS| Special point     3 not specifi    -0.500000     0.500000     0.000000
 KPOINTS| Special point     4 not specifi     0.000000     0.000000     0.000000
 KPOINTS| Time for k-point line                                           11.556

 ENERGY| Total FORCE_EVAL ( QS ) energy [hartree]            -33.999079317315598

 -------------------------------------------------------------------------------
 -                                                                             -
 -                                DBCSR STATISTICS                             -
 -                                                                             -
 -------------------------------------------------------------------------------
 COUNTER                                    TOTAL       BLAS       SMM       ACC
 flops inhomo. stacks                           0       0.0%      0.0%      0.0%
 flops total                         0.000000E+00       0.0%      0.0%      0.0%
 flops max/rank                      0.000000E+00       0.0%      0.0%      0.0%
 matmuls inhomo. stacks                         0       0.0%      0.0%      0.0%
 matmuls total                                  0       0.0%      0.0%      0.0%
 number of processed stacks                     0       0.0%      0.0%      0.0%
 average stack size                                     0.0       0.0       0.0
 marketing flops                     0.000000E+00
 -------------------------------------------------------------------------------
 -                                                                             -
 -                      DBCSR MESSAGE PASSING PERFORMANCE                      -
 -                                                                             -
 -------------------------------------------------------------------------------
 ROUTINE             CALLS      AVE VOLUME [Bytes]
 MP_Bcast                1                     12.
 MP_Allreduce           19                     21.
 MP_Alltoall       1068552                  64287.
 -------------------------------------------------------------------------------

 -------------------------------------------------------------------------------
 -                                                                             -
 -                                DBM STATISTICS                               -
 -                                                                             -
 -------------------------------------------------------------------------------
    M  x    N  x    K                                          COUNT     PERCENT
 -------------------------------------------------------------------------------

 -------------------------------------------------------------------------------
 -                                                                             -
 -                                GRID STATISTICS                              -
 -                                                                             -
 -------------------------------------------------------------------------------
 LP    KERNEL             BACKEND                              COUNT     PERCENT
 6     collocate general  CPU                                6019050      50.50%
 6     integrate general  CPU                                5898669      49.49%
 0     collocate general  CPU                                     24       0.00%
 0     integrate general  CPU                                     12       0.00%
 -------------------------------------------------------------------------------

 MEMORY| Estimated peak process memory [MiB]                                1422

 -------------------------------------------------------------------------------
 ----                             MULTIGRID INFO                            ----
 -------------------------------------------------------------------------------
 count for grid        1:          48255          cutoff [a.u.]          500.00
 count for grid        2:          56304          cutoff [a.u.]          166.67
 count for grid        3:          62829          cutoff [a.u.]           55.56
 count for grid        4:         100041          cutoff [a.u.]           18.52
 total gridlevel count  :         267429

 -------------------------------------------------------------------------------
 -                                                                             -
 -                         MESSAGE PASSING PERFORMANCE                         -
 -                                                                             -
 -------------------------------------------------------------------------------

 ROUTINE             CALLS      AVE VOLUME [Bytes]
 MP_Group                6
 MP_Bcast           456256                   9528.
 MP_Allreduce       123330                    300.
 MP_Sync                 4
 MP_Alltoall           887                5101533.
 MP_SendRecv          1414                 293418.
 MP_ISendRecv         1379                 290357.
 MP_Wait            314359
 MP_comm_split           4
 MP_ISend           332092                  39216.
 MP_IRecv           530992                  20892.
 -------------------------------------------------------------------------------


 -------------------------------------------------------------------------------
 -                                                                             -
 -                           R E F E R E N C E S                               -
 -                                                                             -
 -------------------------------------------------------------------------------
 
 CP2K version 2025.1 (Development Version), the CP2K developers group (2025).
 CP2K is freely available from https://www.cp2k.org/ .
 
 T. D. Kuehne, M. Iannuzzi, M. Del Ben, V. V. Rybkin, P. Seewald, F. Stein, T. 
 Laino, R. Z. Khaliullin, O. Schuett, F. Schiffmann, D. Golze, J. Wilhelm, S. 
 Chulkov, M. H. Bani-Hashemian, V. Weber, U. Borstnik, M. Taillefumier, A. S. 
 Jakobovits, A. Lazzaro, H. Pabst, T. Mueller, R. Schade, M. Guidon, S. 
 Andermatt, N. Holmberg, G. K. Schenter, A. Hehn, A. Bussy, F. Belleflamme, G. 
 Tabacchi, A. Gloess, M. Lass, I. Bethune, C. J. Mundy, C. Plessl, M. Watkins, 
 J. VandeVondele, M. Krack, J. Hutter.
 J. Chem. Phys. 152, 194103 (2020).
 CP2K: An electronic structure and molecular dynamics software package - 
 Quickstep: Efficient and accurate electronic structure calculations.
 https://doi.org/10.1063/5.0007045

 O. Schuett, P. Messmer, J. Hutter, J. VandeVondele.
 Electronic Structure Calculations on Graphics Processing Units, 173-190 (2016).
 GPU-Accelerated Sparse Matrix-Matrix Multiplication for Linear Scaling Density 
 Functional Theory.
 https://doi.org/10.1002/9781118670712.ch8

 J. Hutter, M. Iannuzzi, F. Schiffmann, J. VandeVondele.
 WIREs Comput Mol Sci. 4, 15-25 (2014).
 CP2K: atomistic simulations of condensed matter systems.
 https://doi.org/10.1002/wcms.1159

 U. Borstnik, J. VandeVondele, V. Weber, J. Hutter.
 Parallel Comput. 40, 47-58 (2014).
 Sparse matrix multiplication: The distributed block-compressed sparse row 
 library.
 https://doi.org/10.1016/j.parco.2014.03.012

 J. VandeVondele, J. Hutter.
 J. Chem. Phys. 127, 114105 (2007).
 Gaussian basis sets for accurate calculations on molecular systems in gas and 
 condensed phases.
 https://doi.org/10.1063/1.2770708

 J. VandeVondele, M. Krack, F. Mohamed, M. Parrinello, T. Chassaing, J. Hutter.
 Comput. Phys. Commun. 167, 103-128 (2005).
 QUICKSTEP: Fast and accurate density functional calculations using a mixed 
 Gaussian and plane waves approach.
 https://doi.org/10.1016/j.cpc.2004.12.014

 M. Krack.
 Theor. Chem. Acc. 114, 145-152 (2005).
 Pseudopotentials for H to Kr optimized for gradient-corrected 
 exchange-correlation functionals.
 https://doi.org/10.1007/s00214-005-0655-y

 M. Frigo, S. G. Johnson.
 Proc. IEEE 93, 216-231 (2005).
 The design and implementation of FFTW3.
 https://doi.org/10.1109/JPROC.2004.840301

 C. Hartwigsen, S. Goedecker, J. Hutter.
 Phys. Rev. B 58, 3641-3662 (1998).
 Relativistic separable dual-space Gaussian pseudopotentials from H to Rn.
 https://doi.org/10.1103/PhysRevB.58.3641

 G. Lippert, J. Hutter, M. Parrinello.
 Mol. Phys. 92, 477-487 (1997).
 A hybrid Gaussian and plane wave density functional scheme.
 https://doi.org/10.1080/002689797170220

 S. Goedecker, M. Teter, J. Hutter.
 Phys. Rev. B 54, 1703-1710 (1996).
 Separable dual-space Gaussian pseudopotentials.
 https://doi.org/10.1103/PhysRevB.54.1703

 J. P. Perdew, K. Burke, M. Ernzerhof.
 Phys. Rev. Lett. 77, 3865-3868 (1996).
 Generalized gradient approximation made simple.
 https://doi.org/10.1103/PhysRevLett.77.3865


 -------------------------------------------------------------------------------
 -                                                                             -
 -                                T I M I N G                                  -
 -                                                                             -
 -------------------------------------------------------------------------------
 SUBROUTINE                       CALLS  ASD         SELF TIME        TOTAL TIME
                                MAXIMUM       AVERAGE  MAXIMUM  AVERAGE  MAXIMUM
 CP2K                                 1  1.0    0.014    0.017 1406.712 1406.712
 qs_energies                          1  2.0    0.020    0.134 1405.355 1405.421
 scf_env_do_scf                       1  3.0    0.000    0.000 1388.262 1388.272
 scf_env_do_scf_inner_loop           49  4.0    0.039    0.042 1388.262 1388.271
 do_general_diag_kp                  50  5.9    0.416    0.433 1275.960 1285.118
 qs_scf_new_mos_kp                   49  5.0    0.001    0.001 1264.666 1273.804
 rskp_transform                   25384  7.0  496.505  661.297  496.505  661.297
 mp_alltoall_i22                 182372  8.8  271.720  414.940  271.720  414.940
 kpoint_density_transform            49  7.0    0.165    0.174  370.389  370.721
 transform_dmat                   12544  8.0  236.515  317.315  236.515  317.315
 dbcsr_desymmetrize_deep         104026  7.5    4.480    4.978  209.913  307.627
 dbcsr_complete_redistribute      78346  8.3    9.525   11.711  126.757  172.385
 copy_fm_to_dbcsr                 25088  8.0    0.190    0.197   98.137  142.870
 cp_cfm_geeig                      1605  6.9    0.026    0.028  103.943  104.933
 qs_ks_update_qs_env                 49  5.0    0.000    0.000   57.077   73.828
 cp_cfm_heevd                      1605  7.9    0.004    0.005   72.075   72.763
 cp_cfm_heevd_base                 1605  8.9   72.071   72.758   72.071   72.758
 rebuild_ks_matrix                   49  6.0    0.000    0.000   54.226   70.977
 qs_ks_build_kohn_sham_matrix        49  7.0    0.072    0.073   54.226   70.976
 sum_up_and_integrate                49  8.0    0.001    0.001   52.422   69.143
 integrate_v_rspace                  49  9.0    0.298    0.384   52.419   69.140
 grid_integrate_task_list            49 10.0   51.531   68.196   51.531   68.196
 cp_fm_start_copy_general         75856  7.3   10.620   15.325   59.218   59.612
 qs_rho_update_rho_low               50  5.0    0.000    0.000   57.810   57.953
 calculate_rho_elec                  50  6.0    0.152    0.179   57.810   57.953
 grid_collocate_task_list            50  7.0   42.903   56.863   42.903   56.863
 copy_dbcsr_to_fm                 53258  6.9    0.722    0.768   50.533   53.155
 mp_allgather_i                  151712  8.3   44.464   46.848   44.464   46.848
 mp_alltoall_d11v                547116  9.4   22.828   23.884   22.828   23.884
 transfer_rs2pw                     202  8.0    0.003    0.003   15.022   22.859
 transfer_rs2pw_500                  52  8.9    0.180    0.182   14.902   22.745
 cp_cfm_triangular_multiply        4815  7.9   22.425   22.716   22.425   22.716
 mp_sendrecv_dv                    1414 10.0   14.800   22.636   14.800   22.636
 density_rs2pw                       50  7.0    0.002    0.002   14.749   22.309
 kpoint_density_matrices             49  7.0    0.193    0.202   17.191   17.348
 parallel_gemm_fm                  6272  8.0    0.008    0.008   16.667   16.828
 parallel_gemm_fm_gemm             6272  9.0    0.008    0.008   16.660   16.820
 cp_fm_gemm                        6272 10.0   16.652   16.812   16.652   16.812
 cp_fm_finish_copy_general        31508  7.8   11.450   13.808   11.551   13.902
 hybrid_alltoall_any             104026  8.5    0.491    0.531   12.558   13.540
 dbcsr_finalize                  196244  8.6    1.066    1.121    9.563   10.185
 dbcsr_merge_all                  78346 10.3    2.080    2.419    6.130    6.786
 dbcsr_create_new                348215  8.2    4.767    5.852    5.101    6.172
 write_kpoints_restart               49  5.0    0.011    0.016    6.052    6.158
 mp_alltoall_i11v                339064  9.0    4.840    6.001    4.840    6.001
 mp_cart_sub                     106518  8.9    4.886    4.920    4.886    4.920
 cp_cfm_cholesky_decompose         1605  7.9    4.438    4.511    4.438    4.511
 cp_cfm_triangular_invert          1605  7.9    4.437    4.510    4.437    4.510
 kpoint_set_mo_occupation            49  7.0    0.348    0.350    2.056    4.172
 mp_cart_create                   53265  8.9    3.548    3.865    3.548    3.865
 mp_sum_dm3                          49  8.0    1.708    3.822    1.708    3.822
 cp_fm_write_unformatted           2490  6.0    1.287    2.925    2.465    3.741
 copy_fm_to_dbcsr_bc              25088  9.0    0.698    0.908    2.545    3.586
 copy_dbcsr_to_fm_bc              53258  7.9    1.902    2.857    2.571    3.533
 qs_energies_init_hamiltonians        1  3.0    0.000    0.000    3.287    3.287
 mp_bcast_iv                     303578  8.3    2.622    3.036    2.622    3.036
 dbcsr_dot                        81341  8.0    1.702    2.158    2.947    3.033
 dbcsr_copy                      107258  7.1    0.714    0.791    2.518    2.960
 evaluate_core_matrix_traces         49  6.0    0.000    0.000    2.850    2.850
 calculate_ptrace_kp                 98  7.0    0.064    0.065    2.850    2.850
 mp_send_dv                        2490  7.0    1.080    2.849    1.080    2.849
 build_core_hamiltonian_matrix        1  4.0    0.003    0.003    2.185    2.833
 tree_to_linear_d                 78346 11.3    2.179    2.595    2.179    2.595
 self_consistency_check              49  5.0    0.061    0.063    2.313    2.492
 cp_dbcsr_alloc_block_from_nbl     6106  5.1    1.408    1.878    1.748    2.326
 dbcsr_work_create               182372  8.8    1.314    1.364    2.084    2.161
 cp_sm_mix                        40670  6.0    0.864    1.124    1.870    2.107
 dbcsr_copy_into_existing         25918  9.9    1.495    1.856    1.654    2.021
 dbcsr_data_copy_aa2              78346 11.3    1.471    1.981    1.471    1.981
 fft_wrap_pw1pw2                    887 10.0    0.009    0.010    1.626    1.671
 fft_wrap_pw1pw2_500                590 11.3    0.114    0.116    1.505    1.550
 dbcsr_iterator_start            617769  8.9    1.258    1.325    1.492    1.548
 dbcsr_work_destroy_all          182372  9.8    0.914    1.002    1.499    1.533
 mp_sum_d                         82155  9.0    1.129    1.529    1.129    1.529
 cp_cfm_scale_and_add_fm           6420  6.9    1.451    1.498    1.451    1.498
 dbcsr_set                       215631  7.8    0.241    0.249    1.222    1.489
 init_scf_run                         1  3.0    0.000    0.000    1.360    1.448
 scf_env_initial_rho_setup            1  4.0    0.000    0.000    1.360    1.448
 dbcsr_data_release             2788493 10.1    1.324    1.412    1.324    1.412
 dbcsr_data_new                 1962672  9.7    1.312    1.387    1.312    1.387
 fft3d_ps                           887 12.0    0.511    0.522    1.311    1.361
 mp_waitall_1                    314359  8.3    0.521    1.329    0.521    1.329
 qs_env_update_s_mstruct              1  4.0    0.000    0.000    0.980    1.301
 mp_max_d                         40672  7.0    0.911    1.292    0.911    1.292
 dbcsr_zero                      215631  8.8    0.981    1.246    0.981    1.246
 dbcsr_destroy                   266875  8.2    0.510    0.526    1.115    1.174
 qs_vxc_create                       49  8.0    0.001    0.001    1.080    1.082
 xc_vxc_pw_create                    49  9.0    0.045    0.045    1.079    1.081
 dbcsr_reserve_blocks             31194 10.0    0.808    0.994    0.864    1.053
 calculate_rho_core                   1  5.0    0.003    0.004    0.668    1.043
 create_qs_kind_set                   1  2.0    0.000    0.000    1.036    1.036
 read_qs_kind                         1  3.0    0.612    0.620    1.036    1.036
 gspace_mixing                       48  5.0    0.040    0.040    1.028    1.028
 build_core_ppnl                      1  5.0    0.801    1.023    0.801    1.023
 dbcsr_iterator_stop             617769  8.9    0.725    0.753    0.867    0.906
 mp_bcast_im                     151712  8.3    0.728    0.874    0.728    0.874
 broyden_mixing                      48  6.0    0.833    0.849    0.855    0.856
 dbcsr_reserve_all_blocks         25088 10.0    0.056    0.059    0.584    0.816
 quick_finalize                  104026  9.5    0.408    0.417    0.784    0.802
 mp_recv_dv                       12450  7.0    0.098    0.785    0.098    0.785
 cp_cfm_to_fm                      1605  6.9    0.736    0.764    0.736    0.764
 mp_alltoall_z22v                   887 14.0    0.700    0.760    0.700    0.760
 xc_pw_derive                       294 11.0    0.001    0.001    0.686    0.691
 mixing_allocate                      1  3.0    0.005    0.005    0.498    0.657
 mp_comm_free                    159819  8.9    0.601    0.642    0.601    0.642
 potential_pw2rs                     49 10.0    0.004    0.004    0.589    0.634
 build_core_ppl                       1  5.0    0.486    0.622    0.486    0.622
 xc_rho_set_and_dset_create          49 10.0    0.025    0.029    0.580    0.588
 cp_cfm_to_cfm_columns             1605  7.9    0.541    0.566    0.541    0.566
 mp_isend_dv                      75856  8.3    0.429    0.565    0.429    0.565
 parser_read_line                133957  4.0    0.044    0.046    0.489    0.493
 xc_pw_divergence                    49 10.0    0.001    0.001    0.448    0.454
 parser_read_line_low               153  5.2    0.052    0.231    0.446    0.451
 x_to_yz                            490 13.2    0.059    0.061    0.439    0.450
 dbcsr_sort_indices              213566 10.8    0.418    0.434    0.418    0.434
 broadcast_input_information        153  6.2    0.100    0.108    0.394    0.426
 yz_to_x                            397 12.8    0.033    0.035    0.352    0.407
 build_kinetic_matrix_low             1  5.0    0.054    0.086    0.296    0.406
 transfer_pw2rs                     197 11.0    0.001    0.001    0.389    0.390
 build_overlap_matrix_low             1  5.0    0.056    0.069    0.298    0.387
 cp_fm_to_fm_matrix                3136  8.0    0.321    0.328    0.321    0.328
 qs_env_rebuild_rho                   1  5.0    0.000    0.000    0.247    0.326
 qs_rho_rebuild                       1  6.0    0.003    0.003    0.247    0.326
 transfer_pw2rs_500                  50 11.9    0.148    0.153    0.288    0.299
 mp_sum_dv                          344  3.6    0.156    0.289    0.156    0.289
 calculate_first_density_matrix       1  5.0    0.001    0.001    0.172    0.260
 calculate_atomic_block_dm            1  6.0    0.001    0.001    0.164    0.253
 dbcsr_iterator_seek             617769  9.9    0.234    0.246    0.234    0.246
 merge_index                      78346 11.3    0.193    0.234    0.193    0.234
 dbcsr_make_index_exist          348215  9.2    0.216    0.228    0.216    0.228
 cp_fm_cleanup_copy_general       53904  7.0    0.141    0.167    0.184    0.210
 mp_bcast_i_src                     612  7.2    0.177    0.208    0.177    0.208
 xc_functional_eval                  49 11.0    0.000    0.001    0.195    0.199
 pbe_lda_eval                        49 12.0    0.194    0.198    0.194    0.198
 cp_fm_create                       472  4.1    0.180    0.183    0.180    0.183
 mp_irecv_iv                     303424  8.3    0.023    0.181    0.023    0.181
 calculate_ecore_overlap              1  4.0    0.000    0.000    0.102    0.157
 dbcsr_distribution_new           78348  8.6    0.098    0.148    0.098    0.148
 dbcsr_switch_data_area          104026 10.5    0.104    0.112    0.135    0.146
 -------------------------------------------------------------------------------

 The number of warnings for this run is : 1
 
 -------------------------------------------------------------------------------
  **** **** ******  **  PROGRAM ENDED AT                 2025-08-04 04:14:19.268
 ***** ** ***  *** **   PROGRAM RAN ON                              i03r09c05s04
 **    ****   ******    PROGRAM RAN BY                                   di38fab
 ***** **    ** ** **   PROGRAM PROCESS ID                               1015786
  **** **  *******  **  PROGRAM STOPPED IN /hppfs/scratch/04/di38fab/09_GTH/Delt
                                           a_Set/B/TZV2P-MOLOPT-PBE-GTH/8x8x8
