Cu                                      
   1.00000000000000     
     3.636890    0.000000    0.000000
     0.000000    3.636890    0.000000
     0.000000    0.000000    3.636890
   Cu
     4
Direct
  0.000000  0.000000  0.000000
  0.000000  0.500000  0.500000
  0.500000  0.000000  0.500000
  0.500000  0.500000  0.000000
 
   36   36   36
  846.76      807.93      701.41      552.74      393.05      249.35      139.10      68.551      33.337      20.837    
  15.724      12.189      9.9886      8.6846      7.8866      7.3607      7.0157      6.8255      6.7667      6.8255    
  7.0157      7.3607      7.8866      8.6846      9.9886      12.189      15.724      20.837      33.337      68.551    
  139.10      249.35      393.05      552.74      701.41      807.93      807.93      770.76      668.77      526.46    
  373.70      236.49      131.60      64.954      32.073      20.519      15.553      12.110      9.9711      8.7017    
  7.9224      7.4074      7.0693      6.8829      6.8255      6.8829      7.0693      7.4074      7.9224      8.7017    
  9.9711      12.110      15.553      20.519      32.073      64.954      131.60      236.49      373.70      526.46    
  668.77      770.76      701.41      668.77      579.26      454.44      320.80      201.51      111.44      55.462    
  28.842      19.671      15.072      11.899      9.9363      8.7666      8.0422      7.5602      7.2435      7.0693    
  7.0157      7.0693      7.2435      7.5602      8.0422      8.7666      9.9363      11.899      15.072      19.671    
  28.842      55.462      111.44      201.51      320.80      454.44      579.26      668.77      552.74      526.46    
  454.44      354.27      247.70      153.79      84.581      43.346      24.974      18.458      14.376      11.620    
  9.9237      8.9060      8.2681      7.8405      7.5602      7.4074      7.3607      7.4074      7.5602      7.8405    
  8.2681      8.9060      9.9237      11.620      14.376      18.458      24.974      43.346      84.581      153.79    
  247.70      354.27      454.44      526.46      393.05      373.70      320.80      247.70      170.91      104.86    
  58.203      32.292      21.690      17.002      13.595      11.351      9.9759      9.1449      8.6193      8.2681    
  8.0422      7.9224      7.8866      7.9224      8.0422      8.2681      8.6193      9.1449      9.9759      11.351    
  13.595      17.002      21.690      32.292      58.203      104.86      170.91      247.70      320.80      373.70    
  249.35      236.49      201.51      153.79      104.86      64.517      37.958      24.677      19.192      15.501    
  12.863      11.168      10.140      9.5245      9.1449      8.9060      8.7666      8.7017      8.6846      8.7017    
  8.7666      8.9060      9.1449      9.5245      10.140      11.168      12.863      15.501      19.192      24.677    
  37.958      64.517      104.86      153.79      201.51      236.49      139.10      131.60      111.44      84.581    
  58.203      37.958      26.006      20.432      16.890      14.155      12.296      11.149      10.491      10.140    
  9.9759      9.9237      9.9363      9.9711      9.9886      9.9711      9.9363      9.9237      9.9759      10.140    
  10.491      11.149      12.296      14.155      16.890      20.432      26.006      37.958      58.203      84.581    
  111.44      131.60      68.551      64.954      55.462      43.346      32.292      24.677      20.432      17.400    
  14.907      13.116      11.989      11.383      11.149      11.168      11.351      11.620      11.899      12.110    
  12.189      12.110      11.899      11.620      11.351      11.168      11.149      11.383      11.989      13.116    
  14.907      17.400      20.432      24.677      32.292      43.346      55.462      64.954      33.337      32.073    
  28.842      24.974      21.690      19.192      16.890      14.907      13.417      12.469      12.020      11.989    
  12.296      12.863      13.595      14.376      15.072      15.553      15.724      15.553      15.072      14.376    
  13.595      12.863      12.296      11.989      12.020      12.469      13.417      14.907      16.890      19.192    
  21.690      24.974      28.842      32.073      20.837      20.519      19.671      18.458      17.002      15.501    
  14.155      13.116      12.469      12.251      12.469      13.116      14.155      15.501      17.002      18.458    
  19.671      20.519      20.837      20.519      19.671      18.458      17.002      15.501      14.155      13.116    
  12.469      12.251      12.469      13.116      14.155      15.501      17.002      18.458      19.671      20.519    
  15.724      15.553      15.072      14.376      13.595      12.863      12.296      11.989      12.020      12.469    
  13.417      14.907      16.890      19.192      21.690      24.974      28.842      32.073      33.337      32.073    
  28.842      24.974      21.690      19.192      16.890      14.907      13.417      12.469      12.020      11.989    
  12.296      12.863      13.595      14.376      15.072      15.553      12.189      12.110      11.899      11.620    
  11.351      11.168      11.149      11.383      11.989      13.116      14.907      17.400      20.432      24.677    
  32.292      43.346      55.462      64.954      68.551      64.954      55.462      43.346      32.292      24.677    
  20.432      17.400      14.907      13.116      11.989      11.383      11.149      11.168      11.351      11.620    
  11.899      12.110      9.9886      9.9711      9.9363      9.9237      9.9759      10.140      10.491      11.149    
  12.296      14.155      16.890      20.432      26.006      37.958      58.203      84.581      111.44      131.60    
  139.10      131.60      111.44      84.581      58.203      37.958      26.006      20.432      16.890      14.155    
  12.296      11.149      10.491      10.140      9.9759      9.9237      9.9363      9.9711      8.6846      8.7017    
  8.7666      8.9060      9.1449      9.5245      10.140      11.168      12.863      15.501      19.192      24.677    
  37.958      64.517      104.86      153.79      201.51      236.49      249.35      236.49      201.51      153.79    
  104.86      64.517      37.958      24.677      19.192      15.501      12.863      11.168      10.140      9.5245    
  9.1449      8.9060      8.7666      8.7017      7.8866      7.9224      8.0422      8.2681      8.6193      9.1449    
  9.9759      11.351      13.595      17.002      21.690      32.292      58.203      104.86      170.91      247.70    
  320.80      373.70      393.05      373.70      320.80      247.70      170.91      104.86      58.203      32.292    
  21.690      17.002      13.595      11.351      9.9759      9.1449      8.6193      8.2681      8.0422      7.9224    
  7.3607      7.4074      7.5602      7.8405      8.2681      8.9060      9.9237      11.620      14.376      18.458    
  24.974      43.346      84.581      153.79      247.70      354.27      454.44      526.46      552.74      526.46    
  454.44      354.27      247.70      153.79      84.581      43.346      24.974      18.458      14.376      11.620    
  9.9237      8.9060      8.2681      7.8405      7.5602      7.4074      7.0157      7.0693      7.2435      7.5602    
  8.0422      8.7666      9.9363      11.899      15.072      19.671      28.842      55.462      111.44      201.51    
  320.80      454.44      579.26      668.77      701.41      668.77      579.26      454.44      320.80      201.51    
  111.44      55.462      28.842      19.671      15.072      11.899      9.9363      8.7666      8.0422      7.5602    
  7.2435      7.0693      6.8255      6.8829      7.0693      7.4074      7.9224      8.7017      9.9711      12.110    
  15.553      20.519      32.073      64.954      131.60      236.49      373.70      526.46      668.77      770.76    
  807.93      770.76      668.77      526.46      373.70      236.49      131.60      64.954      32.073      20.519    
  15.553      12.110      9.9711      8.7017      7.9224      7.4074      7.0693      6.8829      6.7667      6.8255    
  7.0157      7.3607      7.8866      8.6846      9.9886      12.189      15.724      20.837      33.337      68.551    
  139.10      249.35      393.05      552.74      701.41      807.93      846.76      807.93      701.41      552.74    
  393.05      249.35      139.10      68.551      33.337      20.837      15.724      12.189      9.9886      8.6846    
  7.8866      7.3607      7.0157      6.8255      6.8255      6.8829      7.0693      7.4074      7.9224      8.7017    
  9.9711      12.110      15.553      20.519      32.073      64.954      131.60      236.49      373.70      526.46    
  668.77      770.76      807.93      770.76      668.77      526.46      373.70      236.49      131.60      64.954    
  32.073      20.519      15.553      12.110      9.9711      8.7017      7.9224      7.4074      7.0693      6.8829    
  7.0157      7.0693      7.2435      7.5602      8.0422      8.7666      9.9363      11.899      15.072      19.671    
  28.842      55.462      111.44      201.51      320.80      454.44      579.26      668.77      701.41      668.77    
  579.26      454.44      320.80      201.51      111.44      55.462      28.842      19.671      15.072      11.899    
  9.9363      8.7666      8.0422      7.5602      7.2435      7.0693      7.3607      7.4074      7.5602      7.8405    
  8.2681      8.9060      9.9237      11.620      14.376      18.458      24.974      43.346      84.581      153.79    
  247.70      354.27      454.44      526.46      552.74      526.46      454.44      354.27      247.70      153.79    
  84.581      43.346      24.974      18.458      14.376      11.620      9.9237      8.9060      8.2681      7.8405    
  7.5602      7.4074      7.8866      7.9224      8.0422      8.2681      8.6193      9.1449      9.9759      11.351    
  13.595      17.002      21.690      32.292      58.203      104.86      170.91      247.70      320.80      373.70    
  393.05      373.70      320.80      247.70      170.91      104.86      58.203      32.292      21.690      17.002    
  13.595      11.351      9.9759      9.1449      8.6193      8.2681      8.0422      7.9224      8.6846      8.7017    
  8.7666      8.9060      9.1449      9.5245      10.140      11.168      12.863      15.501      19.192      24.677    
  37.958      64.517      104.86      153.79      201.51      236.49      249.35      236.49      201.51      153.79    
  104.86      64.517      37.958      24.677      19.192      15.501      12.863      11.168      10.140      9.5245    
  9.1449      8.9060      8.7666      8.7017      9.9886      9.9711      9.9363      9.9237      9.9759      10.140    
  10.491      11.149      12.296      14.155      16.890      20.432      26.006      37.958      58.203      84.581    
  111.44      131.60      139.10      131.60      111.44      84.581      58.203      37.958      26.006      20.432    
  16.890      14.155      12.296      11.149      10.491      10.140      9.9759      9.9237      9.9363      9.9711    
  12.189      12.110      11.899      11.620      11.351      11.168      11.149      11.383      11.989      13.116    
  14.907      17.400      20.432      24.677      32.292      43.346      55.462      64.954      68.551      64.954    
  55.462      43.346      32.292      24.677      20.432      17.400      14.907      13.116      11.989      11.383    
  11.149      11.168      11.351      11.620      11.899      12.110      15.724      15.553      15.072      14.376    
  13.595      12.863      12.296      11.989      12.020      12.469      13.417      14.907      16.890      19.192    
  21.690      24.974      28.842      32.073      33.337      32.073      28.842      24.974      21.690      19.192    
  16.890      14.907      13.417      12.469      12.020      11.989      12.296      12.863      13.595      14.376    
  15.072      15.553      20.837      20.519      19.671      18.458      17.002      15.501      14.155      13.116    
  12.469      12.251      12.469      13.116      14.155      15.501      17.002      18.458      19.671      20.519    
  20.837      20.519      19.671      18.458      17.002      15.501      14.155      13.116      12.469      12.251    
  12.469      13.116      14.155      15.501      17.002      18.458      19.671      20.519      33.337      32.073    
  28.842      24.974      21.690      19.192      16.890      14.907      13.417      12.469      12.020      11.989    
  12.296      12.863      13.595      14.376      15.072      15.553      15.724      15.553      15.072      14.376    
  13.595      12.863      12.296      11.989      12.020      12.469      13.417      14.907      16.890      19.192    
  21.690      24.974      28.842      32.073      68.551      64.954      55.462      43.346      32.292      24.677    
  20.432      17.400      14.907      13.116      11.989      11.383      11.149      11.168      11.351      11.620    
  11.899      12.110      12.189      12.110      11.899      11.620      11.351      11.168      11.149      11.383    
  11.989      13.116      14.907      17.400      20.432      24.677      32.292      43.346      55.462      64.954    
  139.10      131.60      111.44      84.581      58.203      37.958      26.006      20.432      16.890      14.155    
  12.296      11.149      10.491      10.140      9.9759      9.9237      9.9363      9.9711      9.9886      9.9711    
  9.9363      9.9237      9.9759      10.140      10.491      11.149      12.296      14.155      16.890      20.432    
  26.006      37.958      58.203      84.581      111.44      131.60      249.35      236.49      201.51      153.79    
  104.86      64.517      37.958      24.677      19.192      15.501      12.863      11.168      10.140      9.5245    
  9.1449      8.9060      8.7666      8.7017      8.6846      8.7017      8.7666      8.9060      9.1449      9.5245    
  10.140      11.168      12.863      15.501      19.192      24.677      37.958      64.517      104.86      153.79    
  201.51      236.49      393.05      373.70      320.80      247.70      170.91      104.86      58.203      32.292    
  21.690      17.002      13.595      11.351      9.9759      9.1449      8.6193      8.2681      8.0422      7.9224    
  7.8866      7.9224      8.0422      8.2681      8.6193      9.1449      9.9759      11.351      13.595      17.002    
  21.690      32.292      58.203      104.86      170.91      247.70      320.80      373.70      552.74      526.46    
  454.44      354.27      247.70      153.79      84.581      43.346      24.974      18.458      14.376      11.620    
  9.9237      8.9060      8.2681      7.8405      7.5602      7.4074      7.3607      7.4074      7.5602      7.8405    
  8.2681      8.9060      9.9237      11.620      14.376      18.458      24.974      43.346      84.581      153.79    
  247.70      354.27      454.44      526.46      701.41      668.77      579.26      454.44      320.80      201.51    
  111.44      55.462      28.842      19.671      15.072      11.899      9.9363      8.7666      8.0422      7.5602    
  7.2435      7.0693      7.0157      7.0693      7.2435      7.5602      8.0422      8.7666      9.9363      11.899    
  15.072      19.671      28.842      55.462      111.44      201.51      320.80      454.44      579.26      668.77    
  807.93      770.76      668.77      526.46      373.70      236.49      131.60      64.954      32.073      20.519    
  15.553      12.110      9.9711      8.7017      7.9224      7.4074      7.0693      6.8829      6.8255      6.8829    
  7.0693      7.4074      7.9224      8.7017      9.9711      12.110      15.553      20.519      32.073      64.954    
  131.60      236.49      373.70      526.46      668.77      770.76      807.93      770.76      668.77      526.46    
  373.70      236.49      131.60      64.954      32.073      20.519      15.553      12.110      9.9711      8.7017    
  7.9224      7.4074      7.0693      6.8829      6.8255      6.8829      7.0693      7.4074      7.9224      8.7017    
  9.9711      12.110      15.553      20.519      32.073      64.954      131.60      236.49      373.70      526.46    
  668.77      770.76      770.76      735.17      637.54      501.32      355.22      224.23      124.50      61.579    
  30.905      20.218      15.384      12.033      9.9537      8.7179      7.9569      7.4527      7.1216      6.9391    
  6.8829      6.9391      7.1216      7.4527      7.9569      8.7179      9.9537      12.033      15.384      20.218    
  30.905      61.579      124.50      224.23      355.22      501.32      637.54      735.17      668.77      637.54    
  551.85      432.43      304.70      190.94      105.42      52.687      27.925      19.406      14.913      11.826    
  9.9185      8.7799      8.0728      7.6014      7.2916      7.1216      7.0693      7.1216      7.2916      7.6014    
  8.0728      8.7799      9.9185      11.826      14.913      19.406      27.925      52.687      105.42      190.94    
  304.70      432.43      551.85      637.54      526.46      501.32      432.43      336.68      234.95      145.58    
  80.063      41.379      24.366      18.217      14.233      11.553      9.9049      8.9144      8.2921      7.8747    
  7.6014      7.4527      7.4074      7.4527      7.6014      7.8747      8.2921      8.9144      9.9049      11.553    
  14.233      18.217      24.366      41.379      80.063      145.58      234.95      336.68      432.43      501.32    
  373.70      355.22      304.70      234.95      161.85      99.221      55.271      31.125      21.330      16.789    
  13.471      11.290      9.9548      9.1464      8.6342      8.2921      8.0728      7.9569      7.9224      7.9569    
  8.0728      8.2921      8.6342      9.1464      9.9548      11.290      13.471      16.789      21.330      31.125    
  55.271      99.221      161.85      234.95      304.70      355.22      236.49      224.23      190.94      145.58    
  99.221      61.198      36.382      24.107      18.929      15.324      12.758      11.113      10.115      9.5158    
  9.1464      8.9144      8.7799      8.7179      8.7017      8.7179      8.7799      8.9144      9.1464      9.5158    
  10.115      11.113      12.758      15.324      18.929      24.107      36.382      61.198      99.221      145.58    
  190.94      224.23      131.60      124.50      105.42      80.063      55.271      36.382      25.336      20.139    
  16.677      14.014      12.208      11.095      10.456      10.115      9.9548      9.9049      9.9185      9.9537    
  9.9711      9.9537      9.9185      9.9049      9.9548      10.115      10.456      11.095      12.208      14.014    
  16.677      20.139      25.336      36.382      55.271      80.063      105.42      124.50      64.954      61.579    
  52.687      41.379      31.125      24.107      20.139      17.173      14.744      13.005      11.912      11.323    
  11.095      11.113      11.290      11.553      11.826      12.033      12.110      12.033      11.826      11.553    
  11.290      11.113      11.095      11.323      11.912      13.005      14.744      17.173      20.139      24.107    
  31.125      41.379      52.687      61.579      32.073      30.905      27.925      24.366      21.330      18.929    
  16.677      14.744      13.298      12.379      11.943      11.912      12.208      12.758      13.471      14.233    
  14.913      15.384      15.553      15.384      14.913      14.233      13.471      12.758      12.208      11.912    
  11.943      12.379      13.298      14.744      16.677      18.929      21.330      24.366      27.925      30.905    
  20.519      20.218      19.406      18.217      16.789      15.324      14.014      13.005      12.379      12.168    
  12.379      13.005      14.014      15.324      16.789      18.217      19.406      20.218      20.519      20.218    
  19.406      18.217      16.789      15.324      14.014      13.005      12.379      12.168      12.379      13.005    
  14.014      15.324      16.789      18.217      19.406      20.218      15.553      15.384      14.913      14.233    
  13.471      12.758      12.208      11.912      11.943      12.379      13.298      14.744      16.677      18.929    
  21.330      24.366      27.925      30.905      32.073      30.905      27.925      24.366      21.330      18.929    
  16.677      14.744      13.298      12.379      11.943      11.912      12.208      12.758      13.471      14.233    
  14.913      15.384      12.110      12.033      11.826      11.553      11.290      11.113      11.095      11.323    
  11.912      13.005      14.744      17.173      20.139      24.107      31.125      41.379      52.687      61.579    
  64.954      61.579      52.687      41.379      31.125      24.107      20.139      17.173      14.744      13.005    
  11.912      11.323      11.095      11.113      11.290      11.553      11.826      12.033      9.9711      9.9537    
  9.9185      9.9049      9.9548      10.115      10.456      11.095      12.208      14.014      16.677      20.139    
  25.336      36.382      55.271      80.063      105.42      124.50      131.60      124.50      105.42      80.063    
  55.271      36.382      25.336      20.139      16.677      14.014      12.208      11.095      10.456      10.115    
  9.9548      9.9049      9.9185      9.9537      8.7017      8.7179      8.7799      8.9144      9.1464      9.5158    
  10.115      11.113      12.758      15.324      18.929      24.107      36.382      61.198      99.221      145.58    
  190.94      224.23      236.49      224.23      190.94      145.58      99.221      61.198      36.382      24.107    
  18.929      15.324      12.758      11.113      10.115      9.5158      9.1464      8.9144      8.7799      8.7179    
  7.9224      7.9569      8.0728      8.2921      8.6342      9.1464      9.9548      11.290      13.471      16.789    
  21.330      31.125      55.271      99.221      161.85      234.95      304.70      355.22      373.70      355.22    
  304.70      234.95      161.85      99.221      55.271      31.125      21.330      16.789      13.471      11.290    
  9.9548      9.1464      8.6342      8.2921      8.0728      7.9569      7.4074      7.4527      7.6014      7.8747    
  8.2921      8.9144      9.9049      11.553      14.233      18.217      24.366      41.379      80.063      145.58    
  234.95      336.68      432.43      501.32      526.46      501.32      432.43      336.68      234.95      145.58    
  80.063      41.379      24.366      18.217      14.233      11.553      9.9049      8.9144      8.2921      7.8747    
  7.6014      7.4527      7.0693      7.1216      7.2916      7.6014      8.0728      8.7799      9.9185      11.826    
  14.913      19.406      27.925      52.687      105.42      190.94      304.70      432.43      551.85      637.54    
  668.77      637.54      551.85      432.43      304.70      190.94      105.42      52.687      27.925      19.406    
  14.913      11.826      9.9185      8.7799      8.0728      7.6014      7.2916      7.1216      6.8829      6.9391    
  7.1216      7.4527      7.9569      8.7179      9.9537      12.033      15.384      20.218      30.905      61.579    
  124.50      224.23      355.22      501.32      637.54      735.17      770.76      735.17      637.54      501.32    
  355.22      224.23      124.50      61.579      30.905      20.218      15.384      12.033      9.9537      8.7179    
  7.9569      7.4527      7.1216      6.9391      6.8255      6.8829      7.0693      7.4074      7.9224      8.7017    
  9.9711      12.110      15.553      20.519      32.073      64.954      131.60      236.49      373.70      526.46    
  668.77      770.76      807.93      770.76      668.77      526.46      373.70      236.49      131.60      64.954    
  32.073      20.519      15.553      12.110      9.9711      8.7017      7.9224      7.4074      7.0693      6.8829    
  6.8829      6.9391      7.1216      7.4527      7.9569      8.7179      9.9537      12.033      15.384      20.218    
  30.905      61.579      124.50      224.23      355.22      501.32      637.54      735.17      770.76      735.17    
  637.54      501.32      355.22      224.23      124.50      61.579      30.905      20.218      15.384      12.033    
  9.9537      8.7179      7.9569      7.4527      7.1216      6.9391      7.0693      7.1216      7.2916      7.6014    
  8.0728      8.7799      9.9185      11.826      14.913      19.406      27.925      52.687      105.42      190.94    
  304.70      432.43      551.85      637.54      668.77      637.54      551.85      432.43      304.70      190.94    
  105.42      52.687      27.925      19.406      14.913      11.826      9.9185      8.7799      8.0728      7.6014    
  7.2916      7.1216      7.4074      7.4527      7.6014      7.8747      8.2921      8.9144      9.9049      11.553    
  14.233      18.217      24.366      41.379      80.063      145.58      234.95      336.68      432.43      501.32    
  526.46      501.32      432.43      336.68      234.95      145.58      80.063      41.379      24.366      18.217    
  14.233      11.553      9.9049      8.9144      8.2921      7.8747      7.6014      7.4527      7.9224      7.9569    
  8.0728      8.2921      8.6342      9.1464      9.9548      11.290      13.471      16.789      21.330      31.125    
  55.271      99.221      161.85      234.95      304.70      355.22      373.70      355.22      304.70      234.95    
  161.85      99.221      55.271      31.125      21.330      16.789      13.471      11.290      9.9548      9.1464    
  8.6342      8.2921      8.0728      7.9569      8.7017      8.7179      8.7799      8.9144      9.1464      9.5158    
  10.115      11.113      12.758      15.324      18.929      24.107      36.382      61.198      99.221      145.58    
  190.94      224.23      236.49      224.23      190.94      145.58      99.221      61.198      36.382      24.107    
  18.929      15.324      12.758      11.113      10.115      9.5158      9.1464      8.9144      8.7799      8.7179    
  9.9711      9.9537      9.9185      9.9049      9.9548      10.115      10.456      11.095      12.208      14.014    
  16.677      20.139      25.336      36.382      55.271      80.063      105.42      124.50      131.60      124.50    
  105.42      80.063      55.271      36.382      25.336      20.139      16.677      14.014      12.208      11.095    
  10.456      10.115      9.9548      9.9049      9.9185      9.9537      12.110      12.033      11.826      11.553    
  11.290      11.113      11.095      11.323      11.912      13.005      14.744      17.173      20.139      24.107    
  31.125      41.379      52.687      61.579      64.954      61.579      52.687      41.379      31.125      24.107    
  20.139      17.173      14.744      13.005      11.912      11.323      11.095      11.113      11.290      11.553    
  11.826      12.033      15.553      15.384      14.913      14.233      13.471      12.758      12.208      11.912    
  11.943      12.379      13.298      14.744      16.677      18.929      21.330      24.366      27.925      30.905    
  32.073      30.905      27.925      24.366      21.330      18.929      16.677      14.744      13.298      12.379    
  11.943      11.912      12.208      12.758      13.471      14.233      14.913      15.384      20.519      20.218    
  19.406      18.217      16.789      15.324      14.014      13.005      12.379      12.168      12.379      13.005    
  14.014      15.324      16.789      18.217      19.406      20.218      20.519      20.218      19.406      18.217    
  16.789      15.324      14.014      13.005      12.379      12.168      12.379      13.005      14.014      15.324    
  16.789      18.217      19.406      20.218      32.073      30.905      27.925      24.366      21.330      18.929    
  16.677      14.744      13.298      12.379      11.943      11.912      12.208      12.758      13.471      14.233    
  14.913      15.384      15.553      15.384      14.913      14.233      13.471      12.758      12.208      11.912    
  11.943      12.379      13.298      14.744      16.677      18.929      21.330      24.366      27.925      30.905    
  64.954      61.579      52.687      41.379      31.125      24.107      20.139      17.173      14.744      13.005    
  11.912      11.323      11.095      11.113      11.290      11.553      11.826      12.033      12.110      12.033    
  11.826      11.553      11.290      11.113      11.095      11.323      11.912      13.005      14.744      17.173    
  20.139      24.107      31.125      41.379      52.687      61.579      131.60      124.50      105.42      80.063    
  55.271      36.382      25.336      20.139      16.677      14.014      12.208      11.095      10.456      10.115    
  9.9548      9.9049      9.9185      9.9537      9.9711      9.9537      9.9185      9.9049      9.9548      10.115    
  10.456      11.095      12.208      14.014      16.677      20.139      25.336      36.382      55.271      80.063    
  105.42      124.50      236.49      224.23      190.94      145.58      99.221      61.198      36.382      24.107    
  18.929      15.324      12.758      11.113      10.115      9.5158      9.1464      8.9144      8.7799      8.7179    
  8.7017      8.7179      8.7799      8.9144      9.1464      9.5158      10.115      11.113      12.758      15.324    
  18.929      24.107      36.382      61.198      99.221      145.58      190.94      224.23      373.70      355.22    