Cu                                      
   1.00000000000000     
     3.636890    0.000000    0.000000
     0.000000    3.636890    0.000000
     0.000000    0.000000    3.636890
   Cu
     4
Direct
  0.000000  0.000000  0.000000
  0.000000  0.500000  0.500000
  0.500000  0.000000  0.500000
  0.500000  0.500000  0.000000
 
   36   36   36
 0.84676404793E+03 0.80793292121E+03 0.70140600294E+03 0.55273929224E+03 0.39304733416E+03
 0.24935042241E+03 0.13909648764E+03 0.68550754335E+02 0.33337324078E+02 0.20837063639E+02
 0.15724484411E+02 0.12189139992E+02 0.99885921208E+01 0.86846482974E+01 0.78866462860E+01
 0.73607016572E+01 0.70157477163E+01 0.68254630298E+01 0.67667399768E+01 0.68254630298E+01
 0.70157477163E+01 0.73607016572E+01 0.78866462860E+01 0.86846482974E+01 0.99885921208E+01
 0.12189139992E+02 0.15724484411E+02 0.20837063639E+02 0.33337324078E+02 0.68550754335E+02
 0.13909648764E+03 0.24935042241E+03 0.39304733416E+03 0.55273929224E+03 0.70140600294E+03
 0.80793292121E+03 0.80793292121E+03 0.77075811770E+03 0.66877259064E+03 0.52646275444E+03
 0.37370157081E+03 0.23648822869E+03 0.13160305752E+03 0.64954021774E+02 0.32072940512E+02
 0.20518508374E+02 0.15552586744E+02 0.12110359855E+02 0.99711415676E+01 0.87017316450E+01
 0.79223970467E+01 0.74073646886E+01 0.70693085638E+01 0.68829363826E+01 0.68254630298E+01
 0.68829363826E+01 0.70693085638E+01 0.74073646886E+01 0.79223970467E+01 0.87017316450E+01
 0.99711415676E+01 0.12110359855E+02 0.15552586744E+02 0.20518508374E+02 0.32072940512E+02
 0.64954021774E+02 0.13160305752E+03 0.23648822869E+03 0.37370157081E+03 0.52646275444E+03
 0.66877259064E+03 0.77075811770E+03 0.70140600294E+03 0.66877259064E+03 0.57925557603E+03
 0.45444043989E+03 0.32080489153E+03 0.20151147667E+03 0.11144104437E+03 0.55462368117E+02
 0.28842122221E+02 0.19670623448E+02 0.15071682168E+02 0.11899417719E+02 0.99363099714E+01
 0.87666007092E+01 0.80422173508E+01 0.75602130333E+01 0.72434741124E+01 0.70693085638E+01
 0.70157477163E+01 0.70693085638E+01 0.72434741124E+01 0.75602130333E+01 0.80422173508E+01
 0.87666007092E+01 0.99363099714E+01 0.11899417719E+02 0.15071682168E+02 0.19670623448E+02
 0.28842122221E+02 0.55462368117E+02 0.11144104437E+03 0.20151147667E+03 0.32080489153E+03
 0.45444043989E+03 0.57925557603E+03 0.66877259064E+03 0.55273929224E+03 0.52646275444E+03
 0.45444043989E+03 0.35427321825E+03 0.24769565883E+03 0.15378686872E+03 0.84580795301E+02
 0.43345971799E+02 0.24974074760E+02 0.18458312383E+02 0.14376196984E+02 0.11620195953E+02
 0.99237433538E+01 0.89060381835E+01 0.82680695062E+01 0.78404821931E+01 0.75602130333E+01
 0.74073646886E+01 0.73607016572E+01 0.74073646886E+01 0.75602130333E+01 0.78404821931E+01
 0.82680695062E+01 0.89060381835E+01 0.99237433538E+01 0.11620195953E+02 0.14376196984E+02
 0.18458312383E+02 0.24974074760E+02 0.43345971799E+02 0.84580795301E+02 0.15378686872E+03
 0.24769565883E+03 0.35427321825E+03 0.45444043989E+03 0.52646275444E+03 0.39304733416E+03
 0.37370157081E+03 0.32080489153E+03 0.24769565883E+03 0.17090652156E+03 0.10485955061E+03
 0.58202954648E+02 0.32291909101E+02 0.21690092678E+02 0.17001640347E+02 0.13595103400E+02
 0.11350646471E+02 0.99759127794E+01 0.91449276801E+01 0.86192565153E+01 0.82680695062E+01
 0.80422173508E+01 0.79223970467E+01 0.78866462860E+01 0.79223970467E+01 0.80422173508E+01
 0.82680695062E+01 0.86192565153E+01 0.91449276801E+01 0.99759127794E+01 0.11350646471E+02
 0.13595103400E+02 0.17001640347E+02 0.21690092678E+02 0.32291909101E+02 0.58202954648E+02
 0.10485955061E+03 0.17090652156E+03 0.24769565883E+03 0.32080489153E+03 0.37370157081E+03
 0.24935042241E+03 0.23648822869E+03 0.20151147667E+03 0.15378686872E+03 0.10485955061E+03
 0.64517457463E+02 0.37958132663E+02 0.24676814596E+02 0.19192310040E+02 0.15501083716E+02
 0.12862613045E+02 0.11167689891E+02 0.10140290232E+02 0.95245166214E+01 0.91449276801E+01
 0.89060381835E+01 0.87666007092E+01 0.87017316450E+01 0.86846482974E+01 0.87017316450E+01
 0.87666007092E+01 0.89060381835E+01 0.91449276801E+01 0.95245166214E+01 0.10140290232E+02
 0.11167689891E+02 0.12862613045E+02 0.15501083716E+02 0.19192310040E+02 0.24676814596E+02
 0.37958132663E+02 0.64517457463E+02 0.10485955061E+03 0.15378686872E+03 0.20151147667E+03
 0.23648822869E+03 0.13909648764E+03 0.13160305752E+03 0.11144104437E+03 0.84580795301E+02
 0.58202954648E+02 0.37958132663E+02 0.26006153809E+02 0.20431991484E+02 0.16890489662E+02
 0.14155394952E+02 0.12296001813E+02 0.11148545668E+02 0.10490605567E+02 0.10140290232E+02
 0.99759127794E+01 0.99237433538E+01 0.99363099714E+01 0.99711415676E+01 0.99885921208E+01
 0.99711415676E+01 0.99363099714E+01 0.99237433538E+01 0.99759127794E+01 0.10140290232E+02
 0.10490605567E+02 0.11148545668E+02 0.12296001813E+02 0.14155394952E+02 0.16890489662E+02
 0.20431991484E+02 0.26006153809E+02 0.37958132663E+02 0.58202954648E+02 0.84580795301E+02
 0.11144104437E+03 0.13160305752E+03 0.68550754335E+02 0.64954021774E+02 0.55462368117E+02
 0.43345971799E+02 0.32291909101E+02 0.24676814596E+02 0.20431991484E+02 0.17399820747E+02
 0.14906713847E+02 0.13115870007E+02 0.11988684750E+02 0.11382883657E+02 0.11148545668E+02
 0.11167689891E+02 0.11350646471E+02 0.11620195953E+02 0.11899417719E+02 0.12110359855E+02
 0.12189139992E+02 0.12110359855E+02 0.11899417719E+02 0.11620195953E+02 0.11350646471E+02
 0.11167689891E+02 0.11148545668E+02 0.11382883657E+02 0.11988684750E+02 0.13115870007E+02
 0.14906713847E+02 0.17399820747E+02 0.20431991484E+02 0.24676814596E+02 0.32291909101E+02
 0.43345971799E+02 0.55462368117E+02 0.64954021774E+02 0.33337324078E+02 0.32072940512E+02
 0.28842122221E+02 0.24974074760E+02 0.21690092678E+02 0.19192310040E+02 0.16890489662E+02
 0.14906713847E+02 0.13417102605E+02 0.12469482857E+02 0.12019824813E+02 0.11988684750E+02
 0.12296001813E+02 0.12862613045E+02 0.13595103400E+02 0.14376196984E+02 0.15071682168E+02
 0.15552586744E+02 0.15724484411E+02 0.15552586744E+02 0.15071682168E+02 0.14376196984E+02
 0.13595103400E+02 0.12862613045E+02 0.12296001813E+02 0.11988684750E+02 0.12019824813E+02
 0.12469482857E+02 0.13417102605E+02 0.14906713847E+02 0.16890489662E+02 0.19192310040E+02
 0.21690092678E+02 0.24974074760E+02 0.28842122221E+02 0.32072940512E+02 0.20837063639E+02
 0.20518508374E+02 0.19670623448E+02 0.18458312383E+02 0.17001640347E+02 0.15501083716E+02
 0.14155394952E+02 0.13115870007E+02 0.12469482857E+02 0.12251424283E+02 0.12469482857E+02
 0.13115870007E+02 0.14155394952E+02 0.15501083716E+02 0.17001640347E+02 0.18458312383E+02
 0.19670623448E+02 0.20518508374E+02 0.20837063639E+02 0.20518508374E+02 0.19670623448E+02
 0.18458312383E+02 0.17001640347E+02 0.15501083716E+02 0.14155394952E+02 0.13115870007E+02
 0.12469482857E+02 0.12251424283E+02 0.12469482857E+02 0.13115870007E+02 0.14155394952E+02
 0.15501083716E+02 0.17001640347E+02 0.18458312383E+02 0.19670623448E+02 0.20518508374E+02
 0.15724484411E+02 0.15552586744E+02 0.15071682168E+02 0.14376196984E+02 0.13595103400E+02
 0.12862613045E+02 0.12296001813E+02 0.11988684750E+02 0.12019824813E+02 0.12469482857E+02
 0.13417102605E+02 0.14906713847E+02 0.16890489662E+02 0.19192310040E+02 0.21690092678E+02
 0.24974074760E+02 0.28842122221E+02 0.32072940512E+02 0.33337324078E+02 0.32072940512E+02
 0.28842122221E+02 0.24974074760E+02 0.21690092678E+02 0.19192310040E+02 0.16890489662E+02
 0.14906713847E+02 0.13417102605E+02 0.12469482857E+02 0.12019824813E+02 0.11988684750E+02
 0.12296001813E+02 0.12862613045E+02 0.13595103400E+02 0.14376196984E+02 0.15071682168E+02
 0.15552586744E+02 0.12189139992E+02 0.12110359855E+02 0.11899417719E+02 0.11620195953E+02
 0.11350646471E+02 0.11167689891E+02 0.11148545668E+02 0.11382883657E+02 0.11988684750E+02
 0.13115870007E+02 0.14906713847E+02 0.17399820747E+02 0.20431991484E+02 0.24676814596E+02
 0.32291909101E+02 0.43345971799E+02 0.55462368117E+02 0.64954021774E+02 0.68550754335E+02
 0.64954021774E+02 0.55462368117E+02 0.43345971799E+02 0.32291909101E+02 0.24676814596E+02
 0.20431991484E+02 0.17399820747E+02 0.14906713847E+02 0.13115870007E+02 0.11988684750E+02
 0.11382883657E+02 0.11148545668E+02 0.11167689891E+02 0.11350646471E+02 0.11620195953E+02
 0.11899417719E+02 0.12110359855E+02 0.99885921208E+01 0.99711415676E+01 0.99363099714E+01
 0.99237433538E+01 0.99759127794E+01 0.10140290232E+02 0.10490605567E+02 0.11148545668E+02
 0.12296001813E+02 0.14155394952E+02 0.16890489662E+02 0.20431991484E+02 0.26006153809E+02
 0.37958132663E+02 0.58202954648E+02 0.84580795301E+02 0.11144104437E+03 0.13160305752E+03
 0.13909648764E+03 0.13160305752E+03 0.11144104437E+03 0.84580795301E+02 0.58202954648E+02
 0.37958132663E+02 0.26006153809E+02 0.20431991484E+02 0.16890489662E+02 0.14155394952E+02
 0.12296001813E+02 0.11148545668E+02 0.10490605567E+02 0.10140290232E+02 0.99759127794E+01
 0.99237433538E+01 0.99363099714E+01 0.99711415676E+01 0.86846482974E+01 0.87017316450E+01
 0.87666007092E+01 0.89060381835E+01 0.91449276801E+01 0.95245166214E+01 0.10140290232E+02
 0.11167689891E+02 0.12862613045E+02 0.15501083716E+02 0.19192310040E+02 0.24676814596E+02
 0.37958132663E+02 0.64517457463E+02 0.10485955061E+03 0.15378686872E+03 0.20151147667E+03
 0.23648822869E+03 0.24935042241E+03 0.23648822869E+03 0.20151147667E+03 0.15378686872E+03
 0.10485955061E+03 0.64517457463E+02 0.37958132663E+02 0.24676814596E+02 0.19192310040E+02
 0.15501083716E+02 0.12862613045E+02 0.11167689891E+02 0.10140290232E+02 0.95245166214E+01
 0.91449276801E+01 0.89060381835E+01 0.87666007092E+01 0.87017316450E+01 0.78866462860E+01
 0.79223970467E+01 0.80422173508E+01 0.82680695062E+01 0.86192565153E+01 0.91449276801E+01
 0.99759127794E+01 0.11350646471E+02 0.13595103400E+02 0.17001640347E+02 0.21690092678E+02
 0.32291909101E+02 0.58202954648E+02 0.10485955061E+03 0.17090652156E+03 0.24769565883E+03
 0.32080489153E+03 0.37370157081E+03 0.39304733416E+03 0.37370157081E+03 0.32080489153E+03
 0.24769565883E+03 0.17090652156E+03 0.10485955061E+03 0.58202954648E+02 0.32291909101E+02
 0.21690092678E+02 0.17001640347E+02 0.13595103400E+02 0.11350646471E+02 0.99759127794E+01
 0.91449276801E+01 0.86192565153E+01 0.82680695062E+01 0.80422173508E+01 0.79223970467E+01
 0.73607016572E+01 0.74073646886E+01 0.75602130333E+01 0.78404821931E+01 0.82680695062E+01
 0.89060381835E+01 0.99237433538E+01 0.11620195953E+02 0.14376196984E+02 0.18458312383E+02
 0.24974074760E+02 0.43345971799E+02 0.84580795301E+02 0.15378686872E+03 0.24769565883E+03
 0.35427321825E+03 0.45444043989E+03 0.52646275444E+03 0.55273929224E+03 0.52646275444E+03
 0.45444043989E+03 0.35427321825E+03 0.24769565883E+03 0.15378686872E+03 0.84580795301E+02
 0.43345971799E+02 0.24974074760E+02 0.18458312383E+02 0.14376196984E+02 0.11620195953E+02
 0.99237433538E+01 0.89060381835E+01 0.82680695062E+01 0.78404821931E+01 0.75602130333E+01
 0.74073646886E+01 0.70157477163E+01 0.70693085638E+01 0.72434741124E+01 0.75602130333E+01
 0.80422173508E+01 0.87666007092E+01 0.99363099714E+01 0.11899417719E+02 0.15071682168E+02
 0.19670623448E+02 0.28842122221E+02 0.55462368117E+02 0.11144104437E+03 0.20151147667E+03
 0.32080489153E+03 0.45444043989E+03 0.57925557603E+03 0.66877259064E+03 0.70140600294E+03
 0.66877259064E+03 0.57925557603E+03 0.45444043989E+03 0.32080489153E+03 0.20151147667E+03
 0.11144104437E+03 0.55462368117E+02 0.28842122221E+02 0.19670623448E+02 0.15071682168E+02
 0.11899417719E+02 0.99363099714E+01 0.87666007092E+01 0.80422173508E+01 0.75602130333E+01
 0.72434741124E+01 0.70693085638E+01 0.68254630298E+01 0.68829363826E+01 0.70693085638E+01
 0.74073646886E+01 0.79223970467E+01 0.87017316450E+01 0.99711415676E+01 0.12110359855E+02
 0.15552586744E+02 0.20518508374E+02 0.32072940512E+02 0.64954021774E+02 0.13160305752E+03
 0.23648822869E+03 0.37370157081E+03 0.52646275444E+03 0.66877259064E+03 0.77075811770E+03
 0.80793292121E+03 0.77075811770E+03 0.66877259064E+03 0.52646275444E+03 0.37370157081E+03
 0.23648822869E+03 0.13160305752E+03 0.64954021774E+02 0.32072940512E+02 0.20518508374E+02
 0.15552586744E+02 0.12110359855E+02 0.99711415676E+01 0.87017316450E+01 0.79223970467E+01
 0.74073646886E+01 0.70693085638E+01 0.68829363826E+01 0.67667399768E+01 0.68254630298E+01
 0.70157477163E+01 0.73607016572E+01 0.78866462860E+01 0.86846482974E+01 0.99885921208E+01
 0.12189139992E+02 0.15724484411E+02 0.20837063639E+02 0.33337324078E+02 0.68550754335E+02
 0.13909648764E+03 0.24935042241E+03 0.39304733416E+03 0.55273929224E+03 0.70140600294E+03
 0.80793292121E+03 0.84676404793E+03 0.80793292121E+03 0.70140600294E+03 0.55273929224E+03
 0.39304733416E+03 0.24935042241E+03 0.13909648764E+03 0.68550754335E+02 0.33337324078E+02
 0.20837063639E+02 0.15724484411E+02 0.12189139992E+02 0.99885921208E+01 0.86846482974E+01
 0.78866462860E+01 0.73607016572E+01 0.70157477163E+01 0.68254630298E+01 0.68254630298E+01
 0.68829363826E+01 0.70693085638E+01 0.74073646886E+01 0.79223970467E+01 0.87017316450E+01
 0.99711415676E+01 0.12110359855E+02 0.15552586744E+02 0.20518508374E+02 0.32072940512E+02
 0.64954021774E+02 0.13160305752E+03 0.23648822869E+03 0.37370157081E+03 0.52646275444E+03
 0.66877259064E+03 0.77075811770E+03 0.80793292121E+03 0.77075811770E+03 0.66877259064E+03
 0.52646275444E+03 0.37370157081E+03 0.23648822869E+03 0.13160305752E+03 0.64954021774E+02
 0.32072940512E+02 0.20518508374E+02 0.15552586744E+02 0.12110359855E+02 0.99711415676E+01
 0.87017316450E+01 0.79223970467E+01 0.74073646886E+01 0.70693085638E+01 0.68829363826E+01
 0.70157477163E+01 0.70693085638E+01 0.72434741124E+01 0.75602130333E+01 0.80422173508E+01
 0.87666007092E+01 0.99363099714E+01 0.11899417719E+02 0.15071682168E+02 0.19670623448E+02
 0.28842122221E+02 0.55462368117E+02 0.11144104437E+03 0.20151147667E+03 0.32080489153E+03
 0.45444043989E+03 0.57925557603E+03 0.66877259064E+03 0.70140600294E+03 0.66877259064E+03
 0.57925557603E+03 0.45444043989E+03 0.32080489153E+03 0.20151147667E+03 0.11144104437E+03
 0.55462368117E+02 0.28842122221E+02 0.19670623448E+02 0.15071682168E+02 0.11899417719E+02
 0.99363099714E+01 0.87666007092E+01 0.80422173508E+01 0.75602130333E+01 0.72434741124E+01
 0.70693085638E+01 0.73607016572E+01 0.74073646886E+01 0.75602130333E+01 0.78404821931E+01
 0.82680695062E+01 0.89060381835E+01 0.99237433538E+01 0.11620195953E+02 0.14376196984E+02
 0.18458312383E+02 0.24974074760E+02 0.43345971799E+02 0.84580795301E+02 0.15378686872E+03
 0.24769565883E+03 0.35427321825E+03 0.45444043989E+03 0.52646275444E+03 0.55273929224E+03
 0.52646275444E+03 0.45444043989E+03 0.35427321825E+03 0.24769565883E+03 0.15378686872E+03
 0.84580795301E+02 0.43345971799E+02 0.24974074760E+02 0.18458312383E+02 0.14376196984E+02
 0.11620195953E+02 0.99237433538E+01 0.89060381835E+01 0.82680695062E+01 0.78404821931E+01
 0.75602130333E+01 0.74073646886E+01 0.78866462860E+01 0.79223970467E+01 0.80422173508E+01
 0.82680695062E+01 0.86192565153E+01 0.91449276801E+01 0.99759127794E+01 0.11350646471E+02
 0.13595103400E+02 0.17001640347E+02 0.21690092678E+02 0.32291909101E+02 0.58202954648E+02
 0.10485955061E+03 0.17090652156E+03 0.24769565883E+03 0.32080489153E+03 0.37370157081E+03
 0.39304733416E+03 0.37370157081E+03 0.32080489153E+03 0.24769565883E+03 0.17090652156E+03
 0.10485955061E+03 0.58202954648E+02 0.32291909101E+02 0.21690092678E+02 0.17001640347E+02
 0.13595103400E+02 0.11350646471E+02 0.99759127794E+01 0.91449276801E+01 0.86192565153E+01
 0.82680695062E+01 0.80422173508E+01 0.79223970467E+01 0.86846482974E+01 0.87017316450E+01
 0.87666007092E+01 0.89060381835E+01 0.91449276801E+01 0.95245166214E+01 0.10140290232E+02
 0.11167689891E+02 0.12862613045E+02 0.15501083716E+02 0.19192310040E+02 0.24676814596E+02
 0.37958132663E+02 0.64517457463E+02 0.10485955061E+03 0.15378686872E+03 0.20151147667E+03
 0.23648822869E+03 0.24935042241E+03 0.23648822869E+03 0.20151147667E+03 0.15378686872E+03
 0.10485955061E+03 0.64517457463E+02 0.37958132663E+02 0.24676814596E+02 0.19192310040E+02
 0.15501083716E+02 0.12862613045E+02 0.11167689891E+02 0.10140290232E+02 0.95245166214E+01
 0.91449276801E+01 0.89060381835E+01 0.87666007092E+01 0.87017316450E+01 0.99885921208E+01
 0.99711415676E+01 0.99363099714E+01 0.99237433538E+01 0.99759127794E+01 0.10140290232E+02
 0.10490605567E+02 0.11148545668E+02 0.12296001813E+02 0.14155394952E+02 0.16890489662E+02
 0.20431991484E+02 0.26006153809E+02 0.37958132663E+02 0.58202954648E+02 0.84580795301E+02
 0.11144104437E+03 0.13160305752E+03 0.13909648764E+03 0.13160305752E+03 0.11144104437E+03
 0.84580795301E+02 0.58202954648E+02 0.37958132663E+02 0.26006153809E+02 0.20431991484E+02
 0.16890489662E+02 0.14155394952E+02 0.12296001813E+02 0.11148545668E+02 0.10490605567E+02
 0.10140290232E+02 0.99759127794E+01 0.99237433538E+01 0.99363099714E+01 0.99711415676E+01
 0.12189139992E+02 0.12110359855E+02 0.11899417719E+02 0.11620195953E+02 0.11350646471E+02
 0.11167689891E+02 0.11148545668E+02 0.11382883657E+02 0.11988684750E+02 0.13115870007E+02
 0.14906713847E+02 0.17399820747E+02 0.20431991484E+02 0.24676814596E+02 0.32291909101E+02
 0.43345971799E+02 0.55462368117E+02 0.64954021774E+02 0.68550754335E+02 0.64954021774E+02
 0.55462368117E+02 0.43345971799E+02 0.32291909101E+02 0.24676814596E+02 0.20431991484E+02
 0.17399820747E+02 0.14906713847E+02 0.13115870007E+02 0.11988684750E+02 0.11382883657E+02
 0.11148545668E+02 0.11167689891E+02 0.11350646471E+02 0.11620195953E+02 0.11899417719E+02
 0.12110359855E+02 0.15724484411E+02 0.15552586744E+02 0.15071682168E+02 0.14376196984E+02
 0.13595103400E+02 0.12862613045E+02 0.12296001813E+02 0.11988684750E+02 0.12019824813E+02
 0.12469482857E+02 0.13417102605E+02 0.14906713847E+02 0.16890489662E+02 0.19192310040E+02
 0.21690092678E+02 0.24974074760E+02 0.28842122221E+02 0.32072940512E+02 0.33337324078E+02
 0.32072940512E+02 0.28842122221E+02 0.24974074760E+02 0.21690092678E+02 0.19192310040E+02
 0.16890489662E+02 0.14906713847E+02 0.13417102605E+02 0.12469482857E+02 0.12019824813E+02
 0.11988684750E+02 0.12296001813E+02 0.12862613045E+02 0.13595103400E+02 0.14376196984E+02
 0.15071682168E+02 0.15552586744E+02 0.20837063639E+02 0.20518508374E+02 0.19670623448E+02
 0.18458312383E+02 0.17001640347E+02 0.15501083716E+02 0.14155394952E+02 0.13115870007E+02
 0.12469482857E+02 0.12251424283E+02 0.12469482857E+02 0.13115870007E+02 0.14155394952E+02
 0.15501083716E+02 0.17001640347E+02 0.18458312383E+02 0.19670623448E+02 0.20518508374E+02
 0.20837063639E+02 0.20518508374E+02 0.19670623448E+02 0.18458312383E+02 0.17001640347E+02
 0.15501083716E+02 0.14155394952E+02 0.13115870007E+02 0.12469482857E+02 0.12251424283E+02
 0.12469482857E+02 0.13115870007E+02 0.14155394952E+02 0.15501083716E+02 0.17001640347E+02
 0.18458312383E+02 0.19670623448E+02 0.20518508374E+02 0.33337324078E+02 0.32072940512E+02
 0.28842122221E+02 0.24974074760E+02 0.21690092678E+02 0.19192310040E+02 0.16890489662E+02
 0.14906713847E+02 0.13417102605E+02 0.12469482857E+02 0.12019824813E+02 0.11988684750E+02
 0.12296001813E+02 0.12862613045E+02 0.13595103400E+02 0.14376196984E+02 0.15071682168E+02
 0.15552586744E+02 0.15724484411E+02 0.15552586744E+02 0.15071682168E+02 0.14376196984E+02
 0.13595103400E+02 0.12862613045E+02 0.12296001813E+02 0.11988684750E+02 0.12019824813E+02
 0.12469482857E+02 0.13417102605E+02 0.14906713847E+02 0.16890489662E+02 0.19192310040E+02
 0.21690092678E+02 0.24974074760E+02 0.28842122221E+02 0.32072940512E+02 0.68550754335E+02
 0.64954021774E+02 0.55462368117E+02 0.43345971799E+02 0.32291909101E+02 0.24676814596E+02
 0.20431991484E+02 0.17399820747E+02 0.14906713847E+02 0.13115870007E+02 0.11988684750E+02
 0.11382883657E+02 0.11148545668E+02 0.11167689891E+02 0.11350646471E+02 0.11620195953E+02
 0.11899417719E+02 0.12110359855E+02 0.12189139992E+02 0.12110359855E+02 0.11899417719E+02
 0.11620195953E+02 0.11350646471E+02 0.11167689891E+02 0.11148545668E+02 0.11382883657E+02
 0.11988684750E+02 0.13115870007E+02 0.14906713847E+02 0.17399820747E+02 0.20431991484E+02
 0.24676814596E+02 0.32291909101E+02 0.43345971799E+02 0.55462368117E+02 0.64954021774E+02
 0.13909648764E+03 0.13160305752E+03 0.11144104437E+03 0.84580795301E+02 0.58202954648E+02
 0.37958132663E+02 0.26006153809E+02 0.20431991484E+02 0.16890489662E+02 0.14155394952E+02
 0.12296001813E+02 0.11148545668E+02 0.10490605567E+02 0.10140290232E+02 0.99759127794E+01
 0.99237433538E+01 0.99363099714E+01 0.99711415676E+01 0.99885921208E+01 0.99711415676E+01
 0.99363099714E+01 0.99237433538E+01 0.99759127794E+01 0.10140290232E+02 0.10490605567E+02
 0.11148545668E+02 0.12296001813E+02 0.14155394952E+02 0.16890489662E+02 0.20431991484E+02
 0.26006153809E+02 0.37958132663E+02 0.58202954648E+02 0.84580795301E+02 0.11144104437E+03
 0.13160305752E+03 0.24935042241E+03 0.23648822869E+03 0.20151147667E+03 0.15378686872E+03
 0.10485955061E+03 0.64517457463E+02 0.37958132663E+02 0.24676814596E+02 0.19192310040E+02
 0.15501083716E+02 0.12862613045E+02 0.11167689891E+02 0.10140290232E+02 0.95245166214E+01
 0.91449276801E+01 0.89060381835E+01 0.87666007092E+01 0.87017316450E+01 0.86846482974E+01
 0.87017316450E+01 0.87666007092E+01 0.89060381835E+01 0.91449276801E+01 0.95245166214E+01
 0.10140290232E+02 0.11167689891E+02 0.12862613045E+02 0.15501083716E+02 0.19192310040E+02
 0.24676814596E+02 0.37958132663E+02 0.64517457463E+02 0.10485955061E+03 0.15378686872E+03
 0.20151147667E+03 0.23648822869E+03 0.39304733416E+03 0.37370157081E+03 0.32080489153E+03
 0.24769565883E+03 0.17090652156E+03 0.10485955061E+03 0.58202954648E+02 0.32291909101E+02
 0.21690092678E+02 0.17001640347E+02 0.13595103400E+02 0.11350646471E+02 0.99759127794E+01
 0.91449276801E+01 0.86192565153E+01 0.82680695062E+01 0.80422173508E+01 0.79223970467E+01
 0.78866462860E+01 0.79223970467E+01 0.80422173508E+01 0.82680695062E+01 0.86192565153E+01
 0.91449276801E+01 0.99759127794E+01 0.11350646471E+02 0.13595103400E+02 0.17001640347E+02
 0.21690092678E+02 0.32291909101E+02 0.58202954648E+02 0.10485955061E+03 0.17090652156E+03
 0.24769565883E+03 0.32080489153E+03 0.37370157081E+03 0.55273929224E+03 0.52646275444E+03
 0.45444043989E+03 0.35427321825E+03 0.24769565883E+03 0.15378686872E+03 0.84580795301E+02
 0.43345971799E+02 0.24974074760E+02 0.18458312383E+02 0.14376196984E+02 0.11620195953E+02
 0.99237433538E+01 0.89060381835E+01 0.82680695062E+01 0.78404821931E+01 0.75602130333E+01
 0.74073646886E+01 0.73607016572E+01 0.74073646886E+01 0.75602130333E+01 0.78404821931E+01
 0.82680695062E+01 0.89060381835E+01 0.99237433538E+01 0.11620195953E+02 0.14376196984E+02
 0.18458312383E+02 0.24974074760E+02 0.43345971799E+02 0.84580795301E+02 0.15378686872E+03
 0.24769565883E+03 0.35427321825E+03 0.45444043989E+03 0.52646275444E+03 0.70140600294E+03
 0.66877259064E+03 0.57925557603E+03 0.45444043989E+03 0.32080489153E+03 0.20151147667E+03
 0.11144104437E+03 0.55462368117E+02 0.28842122221E+02 0.19670623448E+02 0.15071682168E+02
 0.11899417719E+02 0.99363099714E+01 0.87666007092E+01 0.80422173508E+01 0.75602130333E+01
 0.72434741124E+01 0.70693085638E+01 0.70157477163E+01 0.70693085638E+01 0.72434741124E+01
 0.75602130333E+01 0.80422173508E+01 0.87666007092E+01 0.99363099714E+01 0.11899417719E+02
 0.15071682168E+02 0.19670623448E+02 0.28842122221E+02 0.55462368117E+02 0.11144104437E+03
 0.20151147667E+03 0.32080489153E+03 0.45444043989E+03 0.57925557603E+03 0.66877259064E+03
 0.80793292121E+03 0.77075811770E+03 0.66877259064E+03 0.52646275444E+03 0.37370157081E+03
 0.23648822869E+03 0.13160305752E+03 0.64954021774E+02 0.32072940512E+02 0.20518508374E+02
 0.15552586744E+02 0.12110359855E+02 0.99711415676E+01 0.87017316450E+01 0.79223970467E+01
 0.74073646886E+01 0.70693085638E+01 0.68829363826E+01 0.68254630298E+01 0.68829363826E+01
 0.70693085638E+01 0.74073646886E+01 0.79223970467E+01 0.87017316450E+01 0.99711415676E+01
 0.12110359855E+02 0.15552586744E+02 0.20518508374E+02 0.32072940512E+02 0.64954021774E+02
 0.13160305752E+03 0.23648822869E+03 0.37370157081E+03 0.52646275444E+03 0.66877259064E+03
 0.77075811770E+03 0.80793292121E+03 0.77075811770E+03 0.66877259064E+03 0.52646275444E+03
 0.37370157081E+03 0.23648822869E+03 0.13160305752E+03 0.64954021774E+02 0.32072940512E+02
 0.20518508374E+02 0.15552586744E+02 0.12110359855E+02 0.99711415676E+01 0.87017316450E+01
 0.79223970467E+01 0.74073646886E+01 0.70693085638E+01 0.68829363826E+01 0.68254630298E+01
 0.68829363826E+01 0.70693085638E+01 0.74073646886E+01 0.79223970467E+01 0.87017316450E+01
 0.99711415676E+01 0.12110359855E+02 0.15552586744E+02 0.20518508374E+02 0.32072940512E+02
 0.64954021774E+02 0.13160305752E+03 0.23648822869E+03 0.37370157081E+03 0.52646275444E+03
 0.66877259064E+03 0.77075811770E+03 0.77075811770E+03 0.73516928682E+03 0.63753508048E+03
 0.50132290902E+03 0.35521794338E+03 0.22423487812E+03 0.12450303960E+03 0.61578839057E+02
 0.30904696726E+02 0.20217825202E+02 0.15384116225E+02 0.12033145751E+02 0.99536549944E+01
 0.87178877706E+01 0.79568652913E+01 0.74526740702E+01 0.71215521179E+01 0.69391405738E+01
 0.68829363826E+01 0.69391405738E+01 0.71215521179E+01 0.74526740702E+01 0.79568652913E+01
 0.87178877706E+01 0.99536549944E+01 0.12033145751E+02 0.15384116225E+02 0.20217825202E+02
 0.30904696726E+02 0.61578839057E+02 0.12450303960E+03 0.22423487812E+03 0.35521794338E+03
 0.50132290902E+03 0.63753508048E+03 0.73516928682E+03 0.66877259064E+03 0.63753508048E+03
 0.55185464375E+03 0.43243203836E+03 0.30470058930E+03 0.19093764539E+03 0.10542088069E+03
 0.52687138967E+02 0.27924928647E+02 0.19406082691E+02 0.14913141790E+02 0.11826491445E+02
 0.99184828139E+01 0.87798698404E+01 0.80727705914E+01 0.76013750182E+01 0.72916418444E+01
 0.71215521179E+01 0.70693085638E+01 0.71215521179E+01 0.72916418444E+01 0.76013750182E+01
 0.80727705914E+01 0.87798698404E+01 0.99184828139E+01 0.11826491445E+02 0.14913141790E+02
 0.19406082691E+02 0.27924928647E+02 0.52687138967E+02 0.10542088069E+03 0.19093764539E+03
 0.30470058930E+03 0.43243203836E+03 0.55185464375E+03 0.63753508048E+03 0.52646275444E+03
 0.50132290902E+03 0.43243203836E+03 0.33668236982E+03 0.23495459220E+03 0.14557975772E+03
 0.80062777156E+02 0.41378875652E+02 0.24365754814E+02 0.18217274316E+02 0.14233022999E+02
 0.11553298916E+02 0.99048584105E+01 0.89144119649E+01 0.82921199124E+01 0.78746691912E+01
 0.76013750182E+01 0.74526740702E+01 0.74073646886E+01 0.74526740702E+01 0.76013750182E+01
 0.78746691912E+01 0.82921199124E+01 0.89144119649E+01 0.99048584105E+01 0.11553298916E+02
 0.14233022999E+02 0.18217274316E+02 0.24365754814E+02 0.41378875652E+02 0.80062777156E+02
 0.14557975772E+03 0.23495459220E+03 0.33668236982E+03 0.43243203836E+03 0.50132290902E+03
 0.37370157081E+03 0.35521794338E+03 0.30470058930E+03 0.23495459220E+03 0.16185346558E+03
 0.99221142047E+02 0.55271068110E+02 0.31124727373E+02 0.21329630339E+02 0.16789480302E+02
 0.13470865334E+02 0.11290272301E+02 0.99548360084E+01 0.91463687162E+01 0.86341562978E+01
 0.82921199124E+01 0.80727705914E+01 0.79568652913E+01 0.79223970467E+01 0.79568652913E+01
 0.80727705914E+01 0.82921199124E+01 0.86341562978E+01 0.91463687162E+01 0.99548360084E+01
 0.11290272301E+02 0.13470865334E+02 0.16789480302E+02 0.21329630339E+02 0.31124727373E+02
 0.55271068110E+02 0.99221142047E+02 0.16185346558E+03 0.23495459220E+03 0.30470058930E+03
 0.35521794338E+03 0.23648822869E+03 0.22423487812E+03 0.19093764539E+03 0.14557975772E+03
 0.99221142047E+02 0.61198472973E+02 0.36381516173E+02 0.24107086083E+02 0.18928918584E+02
 0.15323851136E+02 0.12758108111E+02 0.11112622086E+02 0.10114795193E+02 0.95158419976E+01
 0.91463687162E+01 0.89144119649E+01 0.87798698404E+01 0.87178877706E+01 0.87017316450E+01
 0.87178877706E+01 0.87798698404E+01 0.89144119649E+01 0.91463687162E+01 0.95158419976E+01
 0.10114795193E+02 0.11112622086E+02 0.12758108111E+02 0.15323851136E+02 0.18928918584E+02
 0.24107086083E+02 0.36381516173E+02 0.61198472973E+02 0.99221142047E+02 0.14557975772E+03
 0.19093764539E+03 0.22423487812E+03 0.13160305752E+03 0.12450303960E+03 0.10542088069E+03
 0.80062777156E+02 0.55271068110E+02 0.36381516173E+02 0.25335919008E+02 0.20139463153E+02
 0.16676784851E+02 0.14013933965E+02 0.12208480532E+02 0.11094975117E+02 0.10455785786E+02
 0.10114795193E+02 0.99548360084E+01 0.99048584105E+01 0.99184828139E+01 0.99536549944E+01
 0.99711415676E+01 0.99536549944E+01 0.99184828139E+01 0.99048584105E+01 0.99548360084E+01
 0.10114795193E+02 0.10455785786E+02 0.11094975117E+02 0.12208480532E+02 0.14013933965E+02
 0.16676784851E+02 0.20139463153E+02 0.25335919008E+02 0.36381516173E+02 0.55271068110E+02
 0.80062777156E+02 0.10542088069E+03 0.12450303960E+03 0.64954021774E+02 0.61578839057E+02
 0.52687138967E+02 0.41378875652E+02 0.31124727373E+02 0.24107086083E+02 0.20139463153E+02
 0.17173278151E+02 0.14744321378E+02 0.13004969770E+02 0.11911531650E+02 0.11323408151E+02
 0.11094975117E+02 0.11112622086E+02 0.11290272301E+02 0.11553298916E+02 0.11826491445E+02
 0.12033145751E+02 0.12110359855E+02 0.12033145751E+02 0.11826491445E+02 0.11553298916E+02
 0.11290272301E+02 0.11112622086E+02 0.11094975117E+02 0.11323408151E+02 0.11911531650E+02
 0.13004969770E+02 0.14744321378E+02 0.17173278151E+02 0.20139463153E+02 0.24107086083E+02
 0.31124727373E+02 0.41378875652E+02 0.52687138967E+02 0.61578839057E+02 0.32072940512E+02
 0.30904696726E+02 0.27924928647E+02 0.24365754814E+02 0.21329630339E+02 0.18928918584E+02
 0.16676784851E+02 0.14744321378E+02 0.13297704967E+02 0.12378908727E+02 0.11942715394E+02
 0.11911531650E+02 0.12208480532E+02 0.12758108111E+02 0.13470865334E+02 0.14233022999E+02
 0.14913141790E+02 0.15384116225E+02 0.15552586744E+02 0.15384116225E+02 0.14913141790E+02
 0.14233022999E+02 0.13470865334E+02 0.12758108111E+02 0.12208480532E+02 0.11911531650E+02
 0.11942715394E+02 0.12378908727E+02 0.13297704967E+02 0.14744321378E+02 0.16676784851E+02
 0.18928918584E+02 0.21329630339E+02 0.24365754814E+02 0.27924928647E+02 0.30904696726E+02
 0.20518508374E+02 0.20217825202E+02 0.19406082691E+02 0.18217274316E+02 0.16789480302E+02