   4   4   0   0
  0.1202626E+02  0.3636890E-09  0.3636890E-09  0.3636890E-09  0.5000000E-15
  1.000000000000000E-004
  CAR 
 Cu                                      
     45.44035097     -4.10512252  301      7.39420518      1.00000000
     -4.105  0.0000E+00  0.0000E+00
     -3.940  0.0000E+00  0.0000E+00
     -3.775  0.0000E+00  0.0000E+00
     -3.610  0.0000E+00  0.0000E+00
     -3.445  0.0000E+00  0.0000E+00
     -3.279  0.0000E+00  0.0000E+00
     -3.114  0.0000E+00  0.0000E+00
     -2.949  0.0000E+00  0.0000E+00
     -2.784  0.0000E+00  0.0000E+00
     -2.619  0.0000E+00  0.0000E+00
     -2.454  0.0000E+00  0.0000E+00
     -2.288  0.0000E+00  0.0000E+00
     -2.123  0.7392E-16  0.1221E-16
     -1.958  0.1035E-04  0.1709E-05
     -1.793  0.1750E-01  0.2893E-02
     -1.628  0.1256E+00  0.2364E-01
     -1.463  0.1290E+00  0.4494E-01
     -1.298  0.2882E+00  0.9254E-01
     -1.132  0.1536E+00  0.1179E+00
     -0.967  0.3708E+00  0.1791E+00
     -0.802  0.2426E+00  0.2192E+00
     -0.637  0.4285E+00  0.2900E+00
     -0.472  0.2656E+00  0.3338E+00
     -0.307  0.5049E+00  0.4172E+00
     -0.141  0.5178E+00  0.5027E+00
      0.024  0.2404E+00  0.5424E+00
      0.189  0.5569E+00  0.6344E+00
      0.354  0.5486E+00  0.7250E+00
      0.519  0.7441E+00  0.8479E+00
      0.684  0.3344E+00  0.9031E+00
      0.849  0.7999E+00  0.1035E+01
      1.015  0.6907E+00  0.1149E+01
      1.180  0.5770E+00  0.1245E+01
      1.345  0.9924E+00  0.1408E+01
      1.510  0.8325E+00  0.1546E+01
      1.675  0.9027E+00  0.1695E+01
      1.840  0.8570E+00  0.1837E+01
      2.005  0.1674E+01  0.2113E+01
      2.171  0.1122E+01  0.2298E+01
      2.336  0.2097E+01  0.2645E+01
      2.501  0.2712E+01  0.3093E+01
      2.666  0.3820E+01  0.3723E+01
      2.831  0.4897E+01  0.4532E+01
      2.996  0.5261E+01  0.5401E+01
      3.162  0.6781E+01  0.6521E+01
      3.327  0.8580E+01  0.7938E+01
      3.492  0.9660E+01  0.9533E+01
      3.657  0.8586E+01  0.1095E+02
      3.822  0.8383E+01  0.1234E+02
      3.987  0.1009E+02  0.1400E+02
      4.152  0.1181E+02  0.1595E+02
      4.318  0.1424E+02  0.1830E+02
      4.483  0.1600E+02  0.2095E+02
      4.648  0.1821E+02  0.2395E+02
      4.813  0.1116E+02  0.2580E+02
      4.978  0.1182E+02  0.2775E+02
      5.143  0.1454E+02  0.3015E+02
      5.309  0.1468E+02  0.3258E+02
      5.474  0.1304E+02  0.3473E+02
      5.639  0.1559E+02  0.3730E+02
      5.804  0.2141E+02  0.4084E+02
      5.969  0.7147E+01  0.4202E+02
      6.134  0.1295E+01  0.4223E+02
      6.299  0.2061E+01  0.4257E+02
      6.465  0.1149E+01  0.4276E+02
      6.630  0.1793E+01  0.4306E+02
      6.795  0.1237E+01  0.4327E+02
      6.960  0.7930E+00  0.4340E+02
      7.125  0.2237E+01  0.4377E+02
      7.290  0.1004E+01  0.4393E+02
      7.455  0.7853E+00  0.4406E+02
      7.621  0.1003E+01  0.4423E+02
      7.786  0.1703E+01  0.4451E+02
      7.951  0.1117E+01  0.4469E+02
      8.116  0.1211E+01  0.4489E+02
      8.281  0.9053E+00  0.4504E+02
      8.446  0.5964E+00  0.4514E+02
      8.612  0.1365E+01  0.4537E+02
      8.777  0.1492E+01  0.4561E+02
      8.942  0.5203E+00  0.4570E+02
      9.107  0.1287E+01  0.4591E+02
      9.272  0.1016E+01  0.4608E+02
      9.437  0.5686E+00  0.4617E+02
      9.602  0.1339E+01  0.4639E+02
      9.768  0.6991E+00  0.4651E+02
      9.933  0.1147E+01  0.4670E+02
     10.098  0.6773E+00  0.4681E+02
     10.263  0.4162E+00  0.4688E+02
     10.428  0.1116E+01  0.4706E+02
     10.593  0.5849E+00  0.4716E+02
     10.759  0.8578E+00  0.4730E+02
     10.924  0.5339E+00  0.4739E+02
     11.089  0.6484E+00  0.4750E+02
     11.254  0.9668E+00  0.4766E+02
     11.419  0.1245E+01  0.4786E+02
     11.584  0.9888E+00  0.4803E+02
     11.749  0.1336E+01  0.4825E+02
     11.915  0.1277E+01  0.4846E+02
     12.080  0.1145E+01  0.4865E+02
     12.245  0.1075E+01  0.4882E+02
     12.410  0.9101E+00  0.4897E+02
     12.575  0.1410E+01  0.4921E+02
     12.740  0.1171E+01  0.4940E+02
     12.905  0.9511E+00  0.4956E+02
     13.071  0.1127E+01  0.4974E+02
     13.236  0.9573E+00  0.4990E+02
     13.401  0.8223E+00  0.5004E+02
     13.566  0.1127E+01  0.5022E+02
     13.731  0.1322E+01  0.5044E+02
     13.896  0.5128E+00  0.5053E+02
     14.062  0.1006E+01  0.5069E+02
     14.227  0.1172E+01  0.5089E+02
     14.392  0.6163E+00  0.5099E+02
     14.557  0.1205E+01  0.5119E+02
     14.722  0.1030E+01  0.5136E+02
     14.887  0.1499E+01  0.5160E+02
     15.052  0.1038E+01  0.5178E+02
     15.218  0.1879E+01  0.5209E+02
     15.383  0.1515E+01  0.5234E+02
     15.548  0.1153E+01  0.5253E+02
     15.713  0.9551E+00  0.5268E+02
     15.878  0.1282E+01  0.5290E+02
     16.043  0.2054E+01  0.5324E+02
     16.209  0.1142E+01  0.5342E+02
     16.374  0.2121E+01  0.5377E+02
     16.539  0.7709E+00  0.5390E+02
     16.704  0.7886E+00  0.5403E+02
     16.869  0.2234E+01  0.5440E+02
     17.034  0.1160E+01  0.5459E+02
     17.199  0.1446E+01  0.5483E+02
     17.365  0.1740E+01  0.5512E+02
     17.530  0.1803E+01  0.5542E+02
     17.695  0.1696E+01  0.5570E+02
     17.860  0.1256E+01  0.5590E+02
     18.025  0.1142E+01  0.5609E+02
     18.190  0.1698E+01  0.5637E+02
     18.355  0.1431E+01  0.5661E+02
     18.521  0.9129E+00  0.5676E+02
     18.686  0.1688E+01  0.5704E+02
     18.851  0.1887E+01  0.5735E+02
     19.016  0.2313E+01  0.5773E+02
     19.181  0.1229E+01  0.5794E+02
     19.346  0.1628E+01  0.5820E+02
     19.512  0.1167E+01  0.5840E+02
     19.677  0.2230E+01  0.5877E+02
     19.842  0.1332E+01  0.5899E+02
     20.007  0.2117E+01  0.5933E+02
     20.172  0.1094E+01  0.5952E+02
     20.337  0.2171E+01  0.5987E+02
     20.502  0.1673E+01  0.6015E+02
     20.668  0.1931E+01  0.6047E+02
     20.833  0.1554E+01  0.6073E+02
     20.998  0.1710E+01  0.6101E+02
     21.163  0.1194E+01  0.6121E+02
     21.328  0.2566E+01  0.6163E+02
     21.493  0.1836E+01  0.6193E+02
     21.659  0.2033E+01  0.6227E+02
     21.824  0.1853E+01  0.6257E+02
     21.989  0.1006E+01  0.6274E+02
     22.154  0.1665E+01  0.6302E+02
     22.319  0.8715E+00  0.6316E+02
     22.484  0.2310E+01  0.6354E+02
     22.649  0.1690E+01  0.6382E+02
     22.815  0.2573E+01  0.6424E+02
     22.980  0.6320E+00  0.6435E+02
     23.145  0.4588E+00  0.6442E+02
     23.310  0.1485E+01  0.6467E+02
     23.475  0.1682E+01  0.6495E+02
     23.640  0.1819E+01  0.6525E+02
     23.805  0.1169E+01  0.6544E+02
     23.971  0.2297E+01  0.6582E+02
     24.136  0.9552E+00  0.6598E+02
     24.301  0.9754E+00  0.6614E+02
     24.466  0.2088E+01  0.6648E+02
     24.631  0.1154E+01  0.6667E+02
     24.796  0.5676E+00  0.6677E+02
     24.962  0.1523E+01  0.6702E+02
     25.127  0.1077E+01  0.6720E+02
     25.292  0.8834E+00  0.6734E+02
     25.457  0.1165E+01  0.6754E+02
     25.622  0.2438E+01  0.6794E+02
     25.787  0.1172E+01  0.6813E+02
     25.952  0.8830E+00  0.6828E+02
     26.118  0.2080E+01  0.6862E+02
     26.283  0.1316E+01  0.6884E+02
     26.448  0.1849E+01  0.6914E+02
     26.613  0.2021E+01  0.6948E+02
     26.778  0.1588E+01  0.6974E+02
     26.943  0.1551E+01  0.7000E+02
     27.109  0.2075E+01  0.7034E+02
     27.274  0.1659E+01  0.7061E+02
     27.439  0.1997E+01  0.7094E+02
     27.604  0.2596E+01  0.7137E+02
     27.769  0.1347E+01  0.7159E+02
     27.934  0.2193E+01  0.7196E+02
     28.099  0.2375E+01  0.7235E+02
     28.265  0.2263E+01  0.7272E+02
     28.430  0.1836E+01  0.7303E+02
     28.595  0.2173E+01  0.7338E+02
     28.760  0.2630E+01  0.7382E+02
     28.925  0.2186E+01  0.7418E+02
     29.090  0.2566E+01  0.7460E+02
     29.255  0.1753E+01  0.7489E+02
     29.421  0.3498E+01  0.7547E+02
     29.586  0.2227E+01  0.7584E+02
     29.751  0.1345E+01  0.7606E+02
     29.916  0.2712E+01  0.7651E+02
     30.081  0.2556E+01  0.7693E+02
     30.246  0.1943E+01  0.7725E+02
     30.412  0.2135E+01  0.7760E+02
     30.577  0.8018E+00  0.7774E+02
     30.742  0.2856E+01  0.7821E+02
     30.907  0.2383E+01  0.7860E+02
     31.072  0.1406E+01  0.7883E+02
     31.237  0.1384E+01  0.7906E+02
     31.402  0.1045E+01  0.7924E+02
     31.568  0.2141E+01  0.7959E+02
     31.733  0.9576E+00  0.7975E+02
     31.898  0.9529E+00  0.7990E+02
     32.063  0.1581E+01  0.8017E+02
     32.228  0.2817E+01  0.8063E+02
     32.393  0.1594E+01  0.8089E+02
     32.559  0.1422E+01  0.8113E+02
     32.724  0.9070E+00  0.8128E+02
     32.889  0.1071E+01  0.8146E+02
     33.054  0.1185E+01  0.8165E+02
     33.219  0.2121E+01  0.8200E+02
     33.384  0.1771E+01  0.8229E+02
     33.549  0.5736E+00  0.8239E+02
     33.715  0.1348E+01  0.8261E+02
     33.880  0.1615E+01  0.8288E+02
     34.045  0.2034E+01  0.8321E+02
     34.210  0.3098E+01  0.8373E+02
     34.375  0.3853E+01  0.8436E+02
     34.540  0.2483E+01  0.8477E+02
     34.705  0.1974E+01  0.8510E+02
     34.871  0.1926E+01  0.8542E+02
     35.036  0.1028E+01  0.8559E+02
     35.201  0.2779E+01  0.8604E+02
     35.366  0.2230E+01  0.8641E+02
     35.531  0.1630E+01  0.8668E+02
     35.696  0.1485E+01  0.8693E+02
     35.862  0.1917E+01  0.8724E+02
     36.027  0.2544E+01  0.8766E+02
     36.192  0.3139E+01  0.8818E+02
     36.357  0.1038E+01  0.8835E+02
     36.522  0.1417E+01  0.8859E+02
     36.687  0.7548E+00  0.8871E+02
     36.852  0.2162E+01  0.8907E+02
     37.018  0.1351E+01  0.8929E+02
     37.183  0.1880E+01  0.8960E+02
     37.348  0.2164E+01  0.8996E+02
     37.513  0.2021E+01  0.9029E+02
     37.678  0.2157E+01  0.9065E+02
     37.843  0.1608E+01  0.9092E+02
     38.009  0.1986E+01  0.9124E+02
     38.174  0.2323E+01  0.9163E+02
     38.339  0.2198E+01  0.9199E+02
     38.504  0.4255E+01  0.9269E+02
     38.669  0.1866E+01  0.9300E+02
     38.834  0.1163E+01  0.9319E+02
     38.999  0.1242E+01  0.9340E+02
     39.165  0.1954E+01  0.9372E+02
     39.330  0.1738E+01  0.9401E+02
     39.495  0.2001E+01  0.9434E+02
     39.660  0.1369E+01  0.9457E+02
     39.825  0.1476E+01  0.9481E+02
     39.990  0.5953E+00  0.9491E+02
     40.156  0.1003E+01  0.9507E+02
     40.321  0.1101E+01  0.9525E+02
     40.486  0.5125E+00  0.9534E+02
     40.651  0.8549E+00  0.9548E+02
     40.816  0.3909E+00  0.9555E+02
     40.981  0.2930E+00  0.9559E+02
     41.146  0.7279E+00  0.9571E+02
     41.312  0.5453E+00  0.9580E+02
     41.477  0.2696E+00  0.9585E+02
     41.642  0.4470E+00  0.9592E+02
     41.807  0.1867E-02  0.9592E+02
     41.972  0.3240E-11  0.9592E+02
     42.137  0.1104E-03  0.9592E+02
     42.302  0.1301E+00  0.9594E+02
     42.468  0.1257E+00  0.9596E+02
     42.633  0.2048E+00  0.9600E+02
     42.798  0.1894E-02  0.9600E+02
     42.963  0.6632E-12  0.9600E+02
     43.128  0.3132E-03  0.9600E+02
     43.293  0.6685E-02  0.9600E+02
     43.459  0.1035E-04  0.9600E+02
     43.624  0.0000E+00  0.9600E+02
     43.789  0.0000E+00  0.9600E+02
     43.954  0.0000E+00  0.9600E+02
     44.119  0.0000E+00  0.9600E+02
     44.284  0.0000E+00  0.9600E+02
     44.449  0.0000E+00  0.9600E+02
     44.615  0.0000E+00  0.9600E+02
     44.780  0.0000E+00  0.9600E+02
     44.945  0.0000E+00  0.9600E+02
     45.110  0.0000E+00  0.9600E+02
     45.275  0.0000E+00  0.9600E+02
     45.440  0.0000E+00  0.9600E+02
