    4    4    1    1
  0.1202626E+02  0.3636890E-09  0.3636890E-09  0.3636890E-09  0.5000000E-15
  1.000000000000000E-004
  CAR 
 Cu                                      
     44     84     48
 
  0.0000000E+00  0.0000000E+00  0.0000000E+00  0.5787037E-03
      1         -1.853056   1.000000
      2          2.594297   1.000000
      3          2.594297   1.000000
      4          2.594297   1.000000
      5          3.039260   1.000000
      6          3.039260   1.000000
      7          3.039260   1.000000
      8          4.394654   1.000000
      9          4.394654   1.000000
     10          4.394654   1.000000
     11          5.198922   1.000000
     12          5.198922   1.000000
     13          5.733037   1.000000
     14          5.733037   1.000000
     15          5.733037   1.000000
     16          5.884059   1.000000
     17          5.884059   1.000000
     18          5.884059   1.000000
     19          5.884059   1.000000
     20          5.884059   1.000000
     21          5.884059   1.000000
     22          8.873056   0.000000
     23          8.873056   0.000000
     24          8.873056   0.000000
     25         14.351524   0.000000
     26         14.351524   0.000000
     27         14.351524   0.000000
     28         20.302127   0.000000
     29         20.302127   0.000000
     30         20.302127   0.000000
     31         20.302127   0.000000
     32         20.302127   0.000000
     33         20.302127   0.000000
     34         24.753760   0.000000
     35         24.753760   0.000000
     36         24.753760   0.000000
     37         27.322890   0.000000
     38         27.322890   0.000000
     39         27.322890   0.000000
     40         29.813559   0.000000
     41         32.313110   0.000000
     42         32.313111   0.000000
     43         32.313111   0.000000
     44         34.792625   0.000000
     45         34.792625   0.000000
     46         34.792625   0.000000
     47         38.557545   0.000000
     48         43.188284   0.000000
 
  0.8333333E-01  0.4391758E-32  0.0000000E+00  0.3472222E-02
      1         -1.769674   1.000000
      2          2.592928   1.000000
      3          2.632805   1.000000
      4          2.632805   1.000000
      5          3.061054   1.000000
      6          3.062064   1.000000
      7          3.062064   1.000000
      8          4.370261   1.000000
      9          4.414074   1.000000
     10          4.414074   1.000000
     11          5.176819   1.000000
     12          5.207818   1.000000
     13          5.704373   1.000000
     14          5.704373   1.000000
     15          5.723712   1.000000
     16          5.740201   1.000000
     17          5.740201   1.000000
     18          5.850278   1.000000
     19          5.850278   1.000000
     20          5.883879   1.000000
     21          5.883879   1.000000
     22          8.355588   0.000000
     23          9.091560   0.000000
     24          9.091560   0.000000
     25         14.382347   0.000000
     26         14.382347   0.000000
     27         15.034185   0.000000
     28         19.746546   0.000000
     29         19.746546   0.000000
     30         19.941062   0.000000
     31         19.941062   0.000000
     32         20.424388   0.000000
     33         20.424388   0.000000
     34         24.789801   0.000000
     35         25.412409   0.000000
     36         25.412409   0.000000
     37         27.354921   0.000000
     38         27.865967   0.000000
     39         27.865967   0.000000
     40         29.509863   0.000000
     41         31.417718   0.000000
     42         31.417718   0.000000
     43         31.961432   0.000000
     44         35.273358   0.000000
     45         35.731347   0.000000
     46         35.731347   0.000000
     47         38.766103   0.000000
     48         41.580695   0.000000
 
  0.1666667E+00  0.1524737E-32  0.0000000E+00  0.3472222E-02
      1         -1.521256   1.000000
      2          2.571962   1.000000
      3          2.743202   1.000000
      4          2.743202   1.000000
      5          3.125369   1.000000
      6          3.131978   1.000000
      7          3.131978   1.000000
      8          4.299039   1.000000
      9          4.471612   1.000000
     10          4.471612   1.000000
     11          5.112707   1.000000
     12          5.233883   1.000000
     13          5.399351   1.000000
     14          5.399351   1.000000
     15          5.621364   1.000000
     16          5.621364   1.000000
     17          5.696406   1.000000
     18          5.753766   1.000000
     19          5.753766   1.000000
     20          5.884048   1.000000
     21          5.884048   1.000000
     22          7.272226   0.999720
     23          9.656601   0.000000
     24          9.656601   0.000000
     25         14.478089   0.000000
     26         14.478089   0.000000
     27         16.625839   0.000000
     28         18.577981   0.000000
     29         18.577981   0.000000
     30         19.104210   0.000000
     31         19.104210   0.000000
     32         20.785792   0.000000
     33         20.785792   0.000000
     34         24.898958   0.000000
     35         26.891498   0.000000
     36         26.891498   0.000000
     37         27.456030   0.000000
     38         28.827789   0.000000
     39         29.244860   0.000000
     40         29.244860   0.000000
     41         29.916350   0.000000
     42         29.916350   0.000000
     43         31.130002   0.000000
     44         36.484237   0.000000
     45         37.356308   0.000000
     46         37.356308   0.000000
     47         37.636907   0.000000
     48         41.144583   0.000000
 
  0.2500000E+00  0.7539267E-32  0.0000000E+00  0.3472222E-02
      1         -1.113551   1.000000
      2          2.472639   1.000000
      3          2.908220   1.000000
      4          2.908220   1.000000
      5          3.228383   1.000000
      6          3.249322   1.000000
      7          3.249322   1.000000
      8          4.186510   1.000000
      9          4.566397   1.000000
     10          4.566397   1.000000
     11          4.992674   1.000000
     12          4.992674   1.000000
     13          5.015405   1.000000
     14          5.275216   1.000000
     15          5.493608   1.000000
     16          5.493608   1.000000
     17          5.606969   1.000000
     18          5.606969   1.000000
     19          5.653119   1.000000
     20          5.884401   1.000000
     21          5.884401   1.000000
     22          6.164816   1.000000
     23         10.435394   0.000000
     24         10.435394   0.000000
     25         14.647210   0.000000
     26         14.647210   0.000000
     27         17.264995   0.000000
     28         17.264995   0.000000
     29         18.140896   0.000000
     30         18.140896   0.000000
     31         18.632163   0.000000
     32         21.371559   0.000000
     33         21.371559   0.000000
     34         25.084160   0.000000
     35         27.641644   0.000000
     36         28.058899   0.000000
     37         28.381313   0.000000
     38         28.381313   0.000000
     39         28.723607   0.000000
     40         28.723607   0.000000
     41         30.116109   0.000000
     42         31.093411   0.000000
     43         31.093411   0.000000
     44         35.068291   0.000000
     45         38.127376   0.000000
     46         39.078402   0.000000
     47         39.078402   0.000000
     48         42.525701   0.000000
 
  0.3333333E+00  0.8308613E-32  0.0000000E+00  0.3472222E-02
      1         -0.558282   1.000000
      2          2.182596   1.000000
      3          3.095411   1.000000
      4          3.095411   1.000000
      5          3.364234   1.000000
      6          3.415902   1.000000
      7          3.415902   1.000000
      8          4.041336   1.000000
      9          4.590490   1.000000
     10          4.590490   1.000000
     11          4.695213   1.000000
     12          4.695213   1.000000
     13          4.900458   1.000000
     14          5.320577   1.000000
     15          5.329668   1.000000
     16          5.343057   1.000000
     17          5.343057   1.000000
     18          5.426931   1.000000
     19          5.426931   1.000000
     20          5.596963   1.000000
     21          5.884598   1.000000
     22          5.884598   1.000000
     23         11.354662   0.000000
     24         11.354662   0.000000
     25         14.902406   0.000000
     26         14.902406   0.000000
     27         15.954127   0.000000
     28         15.954127   0.000000
     29         17.234254   0.000000
     30         17.234254   0.000000
     31         20.855746   0.000000
     32         22.161028   0.000000
     33         22.161028   0.000000
     34         25.350204   0.000000
     35         26.906160   0.000000
     36         26.906160   0.000000
     37         27.331913   0.000000
     38         27.939531   0.000000
     39         28.994271   0.000000
     40         30.764920   0.000000
     41         30.764920   0.000000
     42         32.502902   0.000000
     43         33.181735   0.000000
     44         33.181735   0.000000
     45         40.063826   0.000000
     46         40.456720   0.000000
     47         40.456720   0.000000
     48         40.784579   0.000000
 
  0.4166667E+00  0.2447144E-31  0.0000000E+00  0.3472222E-02
      1          0.121797   1.000000
      2          1.620169   1.000000
      3          3.253302   1.000000
      4          3.253302   1.000000
      5          3.524117   1.000000
      6          3.633387   1.000000
      7          3.633387   1.000000
      8          3.874560   1.000000
      9          4.223183   1.000000
     10          4.223183   1.000000
     11          4.795966   1.000000
     12          4.854181   1.000000
     13          4.854181   1.000000
     14          4.876238   1.000000
     15          5.212359   1.000000
     16          5.212359   1.000000
     17          5.231257   1.000000
     18          5.231257   1.000000
     19          5.393551   1.000000
     20          5.531898   1.000000
     21          5.884749   1.000000
     22          5.884749   1.000000
     23         12.380873   0.000000
     24         12.380873   0.000000
     25         14.691796   0.000000
     26         14.691796   0.000000
     27         15.253752   0.000000
     28         15.253752   0.000000
     29         16.465178   0.000000
     30         16.465178   0.000000
     31         23.131266   0.000000
     32         23.131266   0.000000
     33         23.195473   0.000000
     34         25.524802   0.000000
     35         25.524802   0.000000
     36         25.702677   0.000000
     37         26.690950   0.000000
     38         27.550777   0.000000
     39         28.398888   0.000000
     40         30.413120   0.000000
     41         32.972264   0.000000
     42         32.972264   0.000000
     43         35.268176   0.000000
     44         35.268176   0.000000
     45         37.828746   0.000000
     46         37.828746   0.000000
     47         42.236762   0.000000
     48         42.264078   0.000000
 
  0.5000000E+00  0.1507853E-31  0.0000000E+00  0.1736111E-02
      1          0.880259   1.000000
      2          0.880259   1.000000
      3          3.317333   1.000000
      4          3.317333   1.000000
      5          3.698069   1.000000
      6          3.698069   1.000000
      7          3.902534   1.000000
      8          3.902534   1.000000
      9          3.902534   1.000000
     10          3.902534   1.000000
     11          4.754235   1.000000
     12          4.754235   1.000000
     13          5.036114   1.000000
     14          5.036114   1.000000
     15          5.036114   1.000000
     16          5.036114   1.000000
     17          5.158017   1.000000
     18          5.158017   1.000000
     19          5.462511   1.000000
     20          5.462511   1.000000
     21          5.884740   1.000000
     22          5.884740   1.000000
     23         13.496918   0.000000
     24         13.496918   0.000000
     25         13.496918   0.000000
     26         13.496918   0.000000
     27         15.579475   0.000000
     28         15.579475   0.000000
     29         15.996197   0.000000
     30         15.996197   0.000000
     31         24.259663   0.000000
     32         24.259663   0.000000
     33         24.259663   0.000000
     34         24.259663   0.000000
     35         25.524734   0.000000
     36         25.524734   0.000000
     37         26.147960   0.000000
     38         26.147960   0.000000
     39         29.129859   0.000000
     40         29.129859   0.000000
     41         35.329860   0.000000
     42         35.329860   0.000000
     43         35.329860   0.000000
     44         35.329860   0.000000
     45         36.457039   0.000000
     46         36.457039   0.000000
     47         40.936830   0.000000
     48         40.936830   0.000000
 
  0.8333333E-01  0.8333333E-01  0.0000000E+00  0.6944444E-02
      1         -1.686637   1.000000
      2          2.632364   1.000000
      3          2.632364   1.000000
      4          2.670475   1.000000
      5          3.083662   1.000000
      6          3.083662   1.000000
      7          3.084538   1.000000
      8          4.356548   1.000000
      9          4.423333   1.000000
     10          4.431288   1.000000
     11          5.170656   1.000000
     12          5.202510   1.000000
     13          5.634251   1.000000
     14          5.659938   1.000000
     15          5.659938   1.000000
     16          5.677057   1.000000
     17          5.734366   1.000000
     18          5.734366   1.000000
     19          5.850287   1.000000
     20          5.850287   1.000000
     21          5.862466   1.000000
     22          8.570687   0.000000
     23          8.570687   0.000000
     24          9.294241   0.000000
     25         14.413561   0.000000
     26         15.075968   0.000000
     27         15.075968   0.000000
     28         18.623672   0.000000
     29         19.860720   0.000000
     30         19.860720   0.000000
     31         20.056976   0.000000
     32         20.056976   0.000000
     33         20.540903   0.000000
     34         25.457168   0.000000
     35         25.457168   0.000000
     36         25.508234   0.000000
     37         27.902481   0.000000
     38         27.902481   0.000000
     39         28.579070   0.000000
     40         28.933225   0.000000
     41         30.290981   0.000000
     42         31.456309   0.000000
     43         32.549187   0.000000
     44         34.877770   0.000000
     45         35.719472   0.000000
     46         36.879204   0.000000
     47         39.330816   0.000000
     48         40.916085   0.000000
 
  0.1666667E+00  0.8333333E-01  0.0000000E+00  0.1388889E-01
      1         -1.439258   1.000000
      2          2.614393   1.000000
      3          2.745549   1.000000
      4          2.778232   1.000000
      5          3.146668   1.000000
      6          3.151728   1.000000
      7          3.152104   1.000000
      8          4.292335   1.000000
      9          4.475349   1.000000
     10          4.482942   1.000000
     11          5.115299   1.000000
     12          5.226410   1.000000
     13          5.333655   1.000000
     14          5.334604   1.000000
     15          5.536472   1.000000
     16          5.597496   1.000000
     17          5.629546   1.000000
     18          5.704863   1.000000
     19          5.753534   1.000000
     20          5.850061   1.000000
     21          5.850604   1.000000
     22          7.503991   0.000951
     23          9.109666   0.000000
     24          9.830339   0.000000
     25         14.509291   0.000000
     26         15.205142   0.000000
     27         16.680066   0.000000
     28         17.291906   0.000000
     29         18.683907   0.000000
     30         19.208263   0.000000
     31         20.196940   0.000000
     32         20.307980   0.000000
     33         20.399611   0.000000
     34         25.592965   0.000000
     35         26.359156   0.000000
     36         26.945964   0.000000
     37         27.849201   0.000000
     38         28.016965   0.000000
     39         28.845758   0.000000
     40         29.286779   0.000000
     41         30.147500   0.000000
     42         30.845666   0.000000
     43         32.173195   0.000000
     44         35.617596   0.000000
     45         36.244674   0.000000
     46         38.405324   0.000000
     47         38.466210   0.000000
     48         41.052501   0.000000
 
  0.2500000E+00  0.8333333E-01  0.0000000E+00  0.1388889E-01
      1         -1.033424   1.000000
      2          2.520148   1.000000
      3          2.915127   1.000000
      4          2.939610   1.000000
      5          3.247623   1.000000
      6          3.264079   1.000000
      7          3.267168   1.000000
      8          4.183677   1.000000
      9          4.564294   1.000000
     10          4.568261   1.000000
     11          4.929306   1.000000
     12          4.955365   1.000000
     13          5.026182   1.000000
     14          5.272722   1.000000
     15          5.321674   1.000000
     16          5.474657   1.000000
     17          5.501237   1.000000
     18          5.606540   1.000000
     19          5.648865   1.000000
     20          5.847936   1.000000
     21          5.849845   1.000000
     22          6.470582   1.000000
     23          9.829193   0.000000
     24         10.584957   0.000000
     25         14.671225   0.000000
     26         15.431670   0.000000
     27         15.999982   0.000000
     28         17.367955   0.000000
     29         18.233747   0.000000
     30         18.691210   0.000000
     31         19.496701   0.000000
     32         20.737923   0.000000
     33         20.956155   0.000000
     34         25.825207   0.000000
     35         26.682881   0.000000
     36         27.420134   0.000000
     37         27.944601   0.000000
     38         28.224578   0.000000
     39         28.783679   0.000000
     40         29.832584   0.000000
     41         31.121388   0.000000
     42         31.132162   0.000000
     43         32.081717   0.000000
     44         35.021815   0.000000
     45         37.147299   0.000000
     46         38.375722   0.000000
     47         40.135446   0.000000
     48         42.551739   0.000000
 
  0.3333333E+00  0.8333333E-01  0.0000000E+00  0.1388889E-01
      1         -0.480982   1.000000
      2          2.236700   1.000000
      3          3.108946   1.000000
      4          3.125089   1.000000
      5          3.380438   1.000000
      6          3.420278   1.000000
      7          3.430384   1.000000
      8          4.042562   1.000000
      9          4.534350   1.000000
     10          4.571826   1.000000
     11          4.658267   1.000000
     12          4.696482   1.000000
     13          4.939117   1.000000
     14          5.000490   1.000000
     15          5.329852   1.000000
     16          5.334898   1.000000
     17          5.350863   1.000000
     18          5.426367   1.000000
     19          5.543695   1.000000
     20          5.812478   1.000000
     21          5.847642   1.000000
     22          5.849501   1.000000
     23         10.657907   0.000000
     24         11.487017   0.000000
     25         14.641642   0.000000
     26         15.069026   0.000000
     27         15.768697   0.000000
     28         16.057627   0.000000
     29         17.318333   0.000000
     30         18.551642   0.000000
     31         20.898680   0.000000
     32         21.458439   0.000000
     33         21.724985   0.000000
     34         25.520976   0.000000
     35         26.060695   0.000000
     36         26.162786   0.000000
     37         28.550933   0.000000
     38         28.824186   0.000000
     39         29.787578   0.000000
     40         29.904945   0.000000
     41         30.828358   0.000000
     42         32.691585   0.000000
     43         33.189713   0.000000
     44         34.203247   0.000000
     45         39.014957   0.000000
     46         39.733537   0.000000
     47         40.007267   0.000000
     48         40.524339   0.000000
 
  0.4166667E+00  0.8333333E-01  0.0000000E+00  0.1388889E-01
      1          0.195079   1.000000
      2          1.681339   1.000000
      3          3.275260   1.000000
      4          3.284635   1.000000
      5          3.536920   1.000000
      6          3.619758   1.000000
      7          3.643035   1.000000
      8          3.879773   1.000000
      9          4.177280   1.000000
     10          4.217275   1.000000
     11          4.687230   1.000000
     12          4.735075   1.000000
     13          4.854533   1.000000
     14          4.954674   1.000000
     15          5.205437   1.000000
     16          5.217804   1.000000
     17          5.230786   1.000000
     18          5.323569   1.000000
     19          5.408630   1.000000
     20          5.590325   1.000000
     21          5.847957   1.000000
     22          5.849061   1.000000
     23         11.566312   0.000000
     24         12.501224   0.000000
     25         13.590269   0.000000
     26         14.798378   0.000000
     27         15.355983   0.000000
     28         16.188429   0.000000
     29         16.579834   0.000000
     30         17.661996   0.000000
     31         22.328711   0.000000
     32         22.538225   0.000000
     33         23.358225   0.000000
     34         24.390807   0.000000
     35         24.787259   0.000000
     36         26.618008   0.000000
     37         27.939638   0.000000
     38         27.999742   0.000000
     39         29.035955   0.000000
     40         30.875195   0.000000
     41         32.064976   0.000000
     42         33.037935   0.000000
     43         35.014058   0.000000
     44         36.317230   0.000000
     45         37.720597   0.000000
     46         37.896987   0.000000
     47         41.066097   0.000000
     48         41.130843   0.000000
 
  0.5000000E+00  0.8333333E-01  0.0000000E+00  0.6944444E-02
      1          0.948108   1.000000
      2          0.948108   1.000000
      3          3.346972   1.000000
      4          3.346972   1.000000
      5          3.707055   1.000000
      6          3.707055   1.000000
      7          3.870428   1.000000
      8          3.870428   1.000000
      9          3.905737   1.000000
     10          3.905737   1.000000
     11          4.660993   1.000000
     12          4.660993   1.000000
     13          5.035965   1.000000
     14          5.035965   1.000000
     15          5.108024   1.000000
     16          5.108024   1.000000
     17          5.158018   1.000000
     18          5.158018   1.000000
     19          5.491553   1.000000
     20          5.491553   1.000000
     21          5.848466   1.000000
     22          5.848466   1.000000
     23         12.544249   0.000000
     24         12.544249   0.000000
     25         13.609019   0.000000
     26         13.609019   0.000000
     27         15.840264   0.000000
     28         15.840264   0.000000
     29         16.904483   0.000000
     30         16.904483   0.000000
     31         23.316832   0.000000
     32         23.316832   0.000000
     33         23.613622   0.000000
     34         23.613622   0.000000
     35         25.740673   0.000000
     36         25.740673   0.000000
     37         27.205652   0.000000
     38         27.205652   0.000000
     39         29.752540   0.000000
     40         29.752540   0.000000
     41         34.255604   0.000000
     42         34.255604   0.000000
     43         35.397127   0.000000
     44         35.397127   0.000000
     45         37.489227   0.000000
     46         37.489227   0.000000
     47         41.174202   0.000000
     48         41.174203   0.000000
 
  0.1666667E+00  0.1666667E+00  0.0000000E+00  0.6944444E-02
      1         -1.195191   1.000000
      2          2.736362   1.000000
      3          2.736362   1.000000
      4          2.878100   1.000000
      5          3.211270   1.000000
      6          3.211270   1.000000
      7          3.211333   1.000000
      8          4.253062   1.000000
      9          4.506472   1.000000
     10          4.515343   1.000000
     11          5.095133   1.000000
     12          5.135254   1.000000
     13          5.165508   1.000000
     14          5.165508   1.000000
     15          5.234009   1.000000
     16          5.527425   1.000000
     17          5.623789   1.000000
     18          5.623789   1.000000
     19          5.752822   1.000000
     20          5.752822   1.000000
     21          5.798328   1.000000
     22          8.027642   0.000000
     23          8.027642   0.000000
     24         10.307875   0.000000
     25         14.594901   0.000000
     26         15.851463   0.000000
     27         16.845205   0.000000
     28         16.845205   0.000000
     29         18.995581   0.000000
     30         18.995581   0.000000
     31         19.516915   0.000000
     32         19.516915   0.000000
     33         21.238148   0.000000
     34         26.015507   0.000000
     35         26.528706   0.000000
     36         27.110733   0.000000
     37         27.110733   0.000000
     38         27.394164   0.000000
     39         29.417085   0.000000
     40         29.417085   0.000000
     41         31.681939   0.000000
     42         31.873893   0.000000
     43         33.244371   0.000000
     44         35.137265   0.000000
     45         35.189119   0.000000
     46         37.915665   0.000000
     47         39.993733   0.000000
     48         40.566308   0.000000
 
  0.2500000E+00  0.1666667E+00  0.0000000E+00  0.1388889E-01
      1         -0.795127   1.000000
      2          2.657124   1.000000
      3          2.920452   1.000000
      4          3.028396   1.000000
      5          3.305899   1.000000
      6          3.309296   1.000000
      7          3.319638   1.000000
      8          4.166038   1.000000
      9          4.562422   1.000000
     10          4.585019   1.000000
     11          4.764766   1.000000
     12          4.839921   1.000000
     13          4.923331   1.000000
     14          5.032492   1.000000
     15          5.288960   1.000000
     16          5.418271   1.000000
     17          5.501815   1.000000
     18          5.578294   1.000000
     19          5.605289   1.000000
     20          5.751722   1.000000
     21          5.767877   1.000000
     22          6.992077   1.000000
     23          8.679892   0.000000
     24         11.007735   0.000000
     25         14.343637   0.000000
     26         14.930726   0.000000
     27         17.125779   0.000000
     28         17.671041   0.000000
     29         18.512756   0.000000
     30         18.865361   0.000000
     31         19.496547   0.000000
     32         20.028095   0.000000
     33         21.159844   0.000000
     34         25.253684   0.000000
     35         25.997162   0.000000
     36         26.854149   0.000000
     37         27.389678   0.000000
     38         28.964612   0.000000
     39         29.648963   0.000000
     40         31.251829   0.000000
     41         31.419340   0.000000
     42         32.635554   0.000000
     43         33.879996   0.000000
     44         34.795350   0.000000
     45         36.027566   0.000000
     46         36.789475   0.000000
     47         41.256861   0.000000
     48         41.527085   0.000000
 
  0.3333333E+00  0.1666667E+00  0.0000000E+00  0.1388889E-01
      1         -0.251526   1.000000
      2          2.393139   1.000000
      3          3.134938   1.000000
      4          3.207039   1.000000
      5          3.430155   1.000000
      6          3.436903   1.000000
      7          3.472732   1.000000
      8          4.041465   1.000000
      9          4.389777   1.000000
     10          4.513675   1.000000
     11          4.598130   1.000000
     12          4.665878   1.000000
     13          4.705236   1.000000
     14          4.979732   1.000000
     15          5.289139   1.000000
     16          5.355402   1.000000
     17          5.375497   1.000000
     18          5.425077   1.000000
     19          5.480648   1.000000
     20          5.750283   1.000000
     21          5.754816   1.000000
     22          6.251863   1.000000
     23          9.412279   0.000000
     24         11.867696   0.000000
     25         13.186325   0.000000
     26         15.137087   0.000000
     27         16.362109   0.000000
     28         17.426463   0.000000
     29         17.674710   0.000000
     30         20.163996   0.000000
     31         20.441308   0.000000
     32         20.595434   0.000000
     33         21.216144   0.000000
     34         24.052613   0.000000
     35         24.695294   0.000000
     36         27.788424   0.000000
     37         28.571721   0.000000
     38         30.002722   0.000000
     39         30.601778   0.000000
     40         30.857254   0.000000
     41         31.018891   0.000000
     42         33.208543   0.000000
     43         33.350448   0.000000
     44         36.036157   0.000000
     45         37.581533   0.000000
     46         37.750444   0.000000
     47         39.098363   0.000000
     48         40.726517   0.000000
 
  0.4166667E+00  0.1666667E+00  0.0000000E+00  0.1388889E-01
      1          0.411769   1.000000
      2          1.859315   1.000000
      3          3.328339   1.000000
      4          3.374037   1.000000
      5          3.575995   1.000000
      6          3.582094   1.000000
      7          3.671147   1.000000
      8          3.893214   1.000000