 vasp.6.4.3 19Mar24 (build Jun 26 2024 13:02:28) complex                        
  
 executed on             LinuxIFC date 2025.08.08  18:19:45
 running   48 mpi-ranks, on    4 nodes
 distrk:  each k-point on   48 cores,    1 groups
 distr:  one band on NCORE=   1 cores,   48 groups


--------------------------------------------------------------------------------------------------------


 INCAR:
   ENCUT = 384.07980000000003
   IBRION = -1
   ISMEAR = 0
   ISYM = 2
   LCHARG = True
   LWAVE = True
   SIGMA = 0.05
   SYSTEM = Cu

 POTCAR:  PAW_PBE Cu 22Jun2005                    
 -----------------------------------------------------------------------------
|                                                                             |
|           W    W    AA    RRRRR   N    N  II  N    N   GGGG   !!!           |
|           W    W   A  A   R    R  NN   N  II  NN   N  G    G  !!!           |
|           W    W  A    A  R    R  N N  N  II  N N  N  G       !!!           |
|           W WW W  AAAAAA  RRRRR   N  N N  II  N  N N  G  GGG   !            |
|           WW  WW  A    A  R   R   N   NN  II  N   NN  G    G                |
|           W    W  A    A  R    R  N    N  II  N    N   GGGG   !!!           |
|                                                                             |
|     For optimal performance we recommend to set                             |
|       NCORE = 2 up to number-of-cores-per-socket                            |
|     NCORE specifies how many cores store one orbital (NPAR=cpu/NCORE).      |
|     This setting can greatly improve the performance of VASP for DFT.       |
|     The default, NCORE=1 might be grossly inefficient on modern             |
|     multi-core architectures or massively parallel machines. Do your        |
|     own testing! More info at https://www.vasp.at/wiki/index.php/NCORE      |
|     Unfortunately you need to use the default for GW and RPA                |
|     calculations (for HF NCORE is supported but not extensively tested      |
|     yet).                                                                   |
|                                                                             |
 -----------------------------------------------------------------------------

 POTCAR:  PAW_PBE Cu 22Jun2005                    
   VRHFIN =Cu: d10 p1                                                                               
   LEXCH  = PE                                                                                      
   EATOM  =  1390.9808 eV,  102.2342 Ry                                                             
                                                                                                    
   TITEL  = PAW_PBE Cu 22Jun2005                                                                    
   LULTRA =        F    use ultrasoft PP ?                                                          
   IUNSCR =        1    unscreen: 0-lin 1-nonlin 2-no                                               
   RPACOR =    2.000    partial core radius                                                         
   POMASS =   63.546; ZVAL   =   11.000    mass and valenz                                          
   RCORE  =    2.300    outmost cutoff radius                                                       
   RWIGS  =    2.200; RWIGS  =    1.164    wigner-seitz radius (au A)                               
   ENMAX  =  295.446; ENMIN  =  221.585 eV                                                          
   ICORE  =        3    local potential                                                             
   LCOR   =        T    correct aug charges                                                         
   LPAW   =        T    paw PP                                                                      
   EAUG   =  586.980                                                                                
   DEXC   =    0.000                                                                                
   RMAX   =    2.344    core radius for proj-oper                                                   
   RAUG   =    1.300    factor for augmentation sphere                                              
   RDEP   =    2.302    radius for radial grids                                                     
   RDEPT  =    1.771    core radius for aug-charge                                                  
                                                                                                    
   Atomic configuration                                                                             
    9 entries                                                                                       
     n  l   j            E        occ.                                                              
     1  0  0.50     -8850.2468   2.0000                                                             
     2  0  0.50     -1062.3498   2.0000                                                             
     2  1  1.50      -916.8226   6.0000                                                             
     3  0  0.50      -114.6929   2.0000                                                             
     3  1  1.50       -72.1325   6.0000                                                             
     3  2  2.50        -5.0394  10.0000                                                             
     4  0  0.50        -4.6097   1.0000                                                             
     4  1  0.50        -4.0817   0.0000                                                             
     4  3  2.50        -1.3606   0.0000                                                             
   Description                                                                                      
     l       E           TYP  RCUT    TYP  RCUT                                                     
     2     -5.0393973     23  2.200                                                                 
     2     10.8846608     23  2.200                                                                 
     0     -4.6097109     23  2.200                                                                 
     0      8.2520465     23  2.200                                                                 
     1     -2.7211652     23  2.200                                                                 
     1     21.7055443     23  2.200                                                                 
     3      2.7211652     23  2.300                                                                 
  local pseudopotential read in
  partial core-charges read in
  partial kinetic energy density read in
  atomic valenz-charges read in
  non local Contribution for L=           2  read in
    real space projection operators read in
  non local Contribution for L=           2  read in
    real space projection operators read in
  non local Contribution for L=           0  read in
    real space projection operators read in
  non local Contribution for L=           0  read in
    real space projection operators read in
  non local Contribution for L=           1  read in
    real space projection operators read in
  non local Contribution for L=           1  read in
    real space projection operators read in
    PAW grid and wavefunctions read in
 
   number of l-projection  operators is LMAX  =           6
   number of lm-projection operators is LMMAX =          18
 
PAW_PBE Cu 22Jun2005                    :
 energy of atom  1       EATOM=-1390.9808
 kinetic energy error for atom=    0.0280 (will be added to EATOM!!)
 
 
 POSCAR: Cu4
  positions in direct lattice
  No initial velocities read in


 exchange-correlation table for PE
   RHO(1)=    0.500       N(1)  =     2000
   RHO(2)=  100.500       N(2)  =     4000
 


--------------------------------------------------------------------------------------------------------


 ion  position               nearest neighbor table
   1  0.000  0.000  0.000-   2 2.57   3 2.57   2 2.57   3 2.57   2 2.57   4 2.57   2 2.57   3 2.57
                             4 2.57   3 2.57   4 2.57   4 2.57
   2  0.000  0.500  0.500-   1 2.57   4 2.57   1 2.57   4 2.57   1 2.57   3 2.57   1 2.57   3 2.57
                             4 2.57   4 2.57   3 2.57   3 2.57
   3  0.500  0.000  0.500-   1 2.57   4 2.57   1 2.57   4 2.57   2 2.57   4 2.57   4 2.57   1 2.57
                             2 2.57   1 2.57   2 2.57   2 2.57
   4  0.500  0.500  0.000-   2 2.57   3 2.57   2 2.57   3 2.57   1 2.57   3 2.57   3 2.57   1 2.57
                             2 2.57   2 2.57   1 2.57   1 2.57
 
  LATTYP: Found a simple cubic cell.
 ALAT       =     3.6368900000
  
  Lattice vectors:
  
 A1 = (   3.6368900000,   0.0000000000,   0.0000000000)
 A2 = (   0.0000000000,   3.6368900000,   0.0000000000)
 A3 = (   0.0000000000,   0.0000000000,   3.6368900000)


Analysis of symmetry for initial positions (statically):
=====================================================================
 Subroutine PRICEL returns following result:
 
  LATTYP: Found a face centered cubic cell.
 ALAT       =     3.6368900000
  
  Lattice vectors:
  
 A1 = (   1.8184450000,  -1.8184450000,   0.0000000000)
 A2 = (   1.8184450000,   0.0000000000,   1.8184450000)
 A3 = (  -0.0000000000,  -1.8184450000,   1.8184450000)
 
   4 primitive cells build up your supercell.
 

 Routine SETGRP: Setting up the symmetry group for a 
 simple cubic supercell.


 Subroutine GETGRP returns: Found 48 space group operations
 (whereof 48 operations were pure point group operations)
 out of a pool of 48 trial point group operations.


The static configuration has the point symmetry O_h .


Analysis of symmetry for dynamics (positions and initial velocities):
=====================================================================
 Subroutine PRICEL returns following result:
 
  LATTYP: Found a face centered cubic cell.
 ALAT       =     3.6368900000
  
  Lattice vectors:
  
 A1 = (   1.8184450000,  -1.8184450000,   0.0000000000)
 A2 = (   1.8184450000,   0.0000000000,   1.8184450000)
 A3 = (  -0.0000000000,  -1.8184450000,   1.8184450000)
 
   4 primitive cells build up your supercell.
 

 Routine SETGRP: Setting up the symmetry group for a 
 simple cubic supercell.


 Subroutine GETGRP returns: Found 48 space group operations
 (whereof 48 operations were pure point group operations)
 out of a pool of 48 trial point group operations.


The dynamic configuration has the point symmetry O_h .


 Subroutine INISYM returns: Found 48 space group operations
 (whereof 48 operations are pure point group operations),
 and found     4 'primitive' translations


----------------------------------------------------------------------------------------

                                     Primitive cell                                     

  volume of cell :      12.0263

  direct lattice vectors                    reciprocal lattice vectors
     1.818445000 -1.818445000  0.000000000     0.274960200 -0.274960200 -0.274960200
     1.818445000  0.000000000  1.818445000     0.274960200  0.274960200  0.274960200
    -0.000000000 -1.818445000  1.818445000    -0.274960200 -0.274960200  0.274960200

  length of vectors
     2.571669581  2.571669581  2.571669581     0.476245036  0.476245036  0.476245036

  position of ions in fractional coordinates (direct lattice)
     0.000000000  0.000000000  0.000000000

  ion indices of the primitive-cell ions
   primitive index   ion index
                 1           1

----------------------------------------------------------------------------------------

 
 
 KPOINTS: Automatic kpoint scheme                 

Automatic generation of k-mesh.
 Grid dimensions read from file:
 generate k-points for:   12   12   12

 Generating k-lattice:

  Cartesian coordinates                     Fractional coordinates (reciprocal lattice)
     0.022913350 -0.000000000  0.000000000     0.083333333 -0.000000000  0.000000000
     0.000000000  0.022913350  0.000000000     0.000000000  0.083333333  0.000000000
    -0.000000000 -0.000000000  0.022913350     0.000000000 -0.000000000  0.083333333

  Length of vectors
     0.022913350  0.022913350  0.022913350

  Shift w.r.t. Gamma in fractional coordinates (k-lattice)
     0.000000000  0.000000000  0.000000000

 
 Subroutine IBZKPT returns following result:
 ===========================================
 
 Found     84 irreducible k-points:
 
 Following reciprocal coordinates:
            Coordinates               Weight
  0.000000  0.000000  0.000000      1.000000
  0.083333  0.000000  0.000000      6.000000
  0.166667  0.000000  0.000000      6.000000
  0.250000  0.000000  0.000000      6.000000
  0.333333  0.000000  0.000000      6.000000
  0.416667  0.000000  0.000000      6.000000
  0.500000  0.000000  0.000000      3.000000
  0.083333  0.083333  0.000000     12.000000
  0.166667  0.083333  0.000000     24.000000
  0.250000  0.083333  0.000000     24.000000
  0.333333  0.083333  0.000000     24.000000
  0.416667  0.083333  0.000000     24.000000
  0.500000  0.083333  0.000000     12.000000
  0.166667  0.166667  0.000000     12.000000
  0.250000  0.166667  0.000000     24.000000
  0.333333  0.166667  0.000000     24.000000
  0.416667  0.166667  0.000000     24.000000
  0.500000  0.166667  0.000000     12.000000
  0.250000  0.250000  0.000000     12.000000
  0.333333  0.250000  0.000000     24.000000
  0.416667  0.250000  0.000000     24.000000
  0.500000  0.250000  0.000000     12.000000
  0.333333  0.333333  0.000000     12.000000
  0.416667  0.333333  0.000000     24.000000
  0.500000  0.333333  0.000000     12.000000
  0.416667  0.416667  0.000000     12.000000
  0.500000  0.416667  0.000000     12.000000
  0.500000  0.500000  0.000000      3.000000
  0.083333  0.083333  0.083333      8.000000
  0.166667  0.083333  0.083333     24.000000
  0.250000  0.083333  0.083333     24.000000
  0.333333  0.083333  0.083333     24.000000
  0.416667  0.083333  0.083333     24.000000
  0.500000  0.083333  0.083333     12.000000
  0.166667  0.166667  0.083333     24.000000
  0.250000  0.166667  0.083333     48.000000
  0.333333  0.166667  0.083333     48.000000
  0.416667  0.166667  0.083333     48.000000
  0.500000  0.166667  0.083333     24.000000
  0.250000  0.250000  0.083333     24.000000
  0.333333  0.250000  0.083333     48.000000
  0.416667  0.250000  0.083333     48.000000
  0.500000  0.250000  0.083333     24.000000
  0.333333  0.333333  0.083333     24.000000
  0.416667  0.333333  0.083333     48.000000
  0.500000  0.333333  0.083333     24.000000
  0.416667  0.416667  0.083333     24.000000
  0.500000  0.416667  0.083333     24.000000
  0.500000  0.500000  0.083333      6.000000
  0.166667  0.166667  0.166667      8.000000
  0.250000  0.166667  0.166667     24.000000
  0.333333  0.166667  0.166667     24.000000
  0.416667  0.166667  0.166667     24.000000
  0.500000  0.166667  0.166667     12.000000
  0.250000  0.250000  0.166667     24.000000
  0.333333  0.250000  0.166667     48.000000
  0.416667  0.250000  0.166667     48.000000
  0.500000  0.250000  0.166667     24.000000
  0.333333  0.333333  0.166667     24.000000
  0.416667  0.333333  0.166667     48.000000
  0.500000  0.333333  0.166667     24.000000
  0.416667  0.416667  0.166667     24.000000
  0.500000  0.416667  0.166667     24.000000
  0.500000  0.500000  0.166667      6.000000
  0.250000  0.250000  0.250000      8.000000
  0.333333  0.250000  0.250000     24.000000
  0.416667  0.250000  0.250000     24.000000
  0.500000  0.250000  0.250000     12.000000
  0.333333  0.333333  0.250000     24.000000
  0.416667  0.333333  0.250000     48.000000
  0.500000  0.333333  0.250000     24.000000
  0.416667  0.416667  0.250000     24.000000
  0.500000  0.416667  0.250000     24.000000
  0.500000  0.500000  0.250000      6.000000
  0.333333  0.333333  0.333333      8.000000
  0.416667  0.333333  0.333333     24.000000
  0.500000  0.333333  0.333333     12.000000
  0.416667  0.416667  0.333333     24.000000
  0.500000  0.416667  0.333333     24.000000
  0.500000  0.500000  0.333333      6.000000
  0.416667  0.416667  0.416667      8.000000
  0.500000  0.416667  0.416667     12.000000
  0.500000  0.500000  0.416667      6.000000
  0.500000  0.500000  0.500000      1.000000
 
 Following cartesian coordinates:
            Coordinates               Weight
  0.000000  0.000000  0.000000      1.000000
  0.022913 -0.000000  0.000000      6.000000
  0.045827 -0.000000  0.000000      6.000000
  0.068740 -0.000000  0.000000      6.000000
  0.091653 -0.000000  0.000000      6.000000
  0.114567 -0.000000  0.000000      6.000000
  0.137480 -0.000000  0.000000      3.000000
  0.022913  0.022913  0.000000     12.000000
  0.045827  0.022913  0.000000     24.000000
  0.068740  0.022913  0.000000     24.000000
  0.091653  0.022913  0.000000     24.000000
  0.114567  0.022913  0.000000     24.000000
  0.137480  0.022913  0.000000     12.000000
  0.045827  0.045827  0.000000     12.000000
  0.068740  0.045827  0.000000     24.000000
  0.091653  0.045827  0.000000     24.000000
  0.114567  0.045827  0.000000     24.000000
  0.137480  0.045827  0.000000     12.000000
  0.068740  0.068740  0.000000     12.000000
  0.091653  0.068740  0.000000     24.000000
  0.114567  0.068740  0.000000     24.000000
  0.137480  0.068740  0.000000     12.000000
  0.091653  0.091653  0.000000     12.000000
  0.114567  0.091653  0.000000     24.000000
  0.137480  0.091653  0.000000     12.000000
  0.114567  0.114567  0.000000     12.000000
  0.137480  0.114567  0.000000     12.000000
  0.137480  0.137480  0.000000      3.000000
  0.022913  0.022913  0.022913      8.000000
  0.045827  0.022913  0.022913     24.000000
  0.068740  0.022913  0.022913     24.000000
  0.091653  0.022913  0.022913     24.000000
  0.114567  0.022913  0.022913     24.000000
  0.137480  0.022913  0.022913     12.000000
  0.045827  0.045827  0.022913     24.000000
  0.068740  0.045827  0.022913     48.000000
  0.091653  0.045827  0.022913     48.000000
  0.114567  0.045827  0.022913     48.000000
  0.137480  0.045827  0.022913     24.000000
  0.068740  0.068740  0.022913     24.000000
  0.091653  0.068740  0.022913     48.000000
  0.114567  0.068740  0.022913     48.000000
  0.137480  0.068740  0.022913     24.000000
  0.091653  0.091653  0.022913     24.000000
  0.114567  0.091653  0.022913     48.000000
  0.137480  0.091653  0.022913     24.000000
  0.114567  0.114567  0.022913     24.000000
  0.137480  0.114567  0.022913     24.000000
  0.137480  0.137480  0.022913      6.000000
  0.045827  0.045827  0.045827      8.000000
  0.068740  0.045827  0.045827     24.000000
  0.091653  0.045827  0.045827     24.000000
  0.114567  0.045827  0.045827     24.000000
  0.137480  0.045827  0.045827     12.000000
  0.068740  0.068740  0.045827     24.000000
  0.091653  0.068740  0.045827     48.000000
  0.114567  0.068740  0.045827     48.000000
  0.137480  0.068740  0.045827     24.000000
  0.091653  0.091653  0.045827     24.000000
  0.114567  0.091653  0.045827     48.000000
  0.137480  0.091653  0.045827     24.000000
  0.114567  0.114567  0.045827     24.000000
  0.137480  0.114567  0.045827     24.000000
  0.137480  0.137480  0.045827      6.000000
  0.068740  0.068740  0.068740      8.000000
  0.091653  0.068740  0.068740     24.000000
  0.114567  0.068740  0.068740     24.000000
  0.137480  0.068740  0.068740     12.000000
  0.091653  0.091653  0.068740     24.000000
  0.114567  0.091653  0.068740     48.000000
  0.137480  0.091653  0.068740     24.000000
  0.114567  0.114567  0.068740     24.000000
  0.137480  0.114567  0.068740     24.000000
  0.137480  0.137480  0.068740      6.000000
  0.091653  0.091653  0.091653      8.000000
  0.114567  0.091653  0.091653     24.000000
  0.137480  0.091653  0.091653     12.000000
  0.114567  0.114567  0.091653     24.000000
  0.137480  0.114567  0.091653     24.000000
  0.137480  0.137480  0.091653      6.000000
  0.114567  0.114567  0.114567      8.000000
  0.137480  0.114567  0.114567     12.000000
  0.137480  0.137480  0.114567      6.000000
  0.137480  0.137480  0.137480      1.000000
 
 
 Subroutine IBZKPT_HF returns following result:
 ==============================================
 
 Found   1728 k-points in 1st BZ
 the following   1728 k-points will be used (e.g. in the exchange kernel)
 Following reciprocal coordinates:   # in IRBZ
  0.000000  0.000000  0.000000    0.00057870   1 t-inv F
  0.083333  0.000000  0.000000    0.00057870   2 t-inv F
  0.166667  0.000000  0.000000    0.00057870   3 t-inv F
  0.250000  0.000000  0.000000    0.00057870   4 t-inv F
  0.333333  0.000000  0.000000    0.00057870   5 t-inv F
  0.416667  0.000000  0.000000    0.00057870   6 t-inv F
  0.500000  0.000000  0.000000    0.00057870   7 t-inv F
  0.083333  0.083333  0.000000    0.00057870   8 t-inv F
  0.166667  0.083333  0.000000    0.00057870   9 t-inv F
  0.250000  0.083333  0.000000    0.00057870  10 t-inv F
  0.333333  0.083333  0.000000    0.00057870  11 t-inv F
  0.416667  0.083333  0.000000    0.00057870  12 t-inv F
  0.500000  0.083333  0.000000    0.00057870  13 t-inv F
  0.166667  0.166667  0.000000    0.00057870  14 t-inv F
  0.250000  0.166667  0.000000    0.00057870  15 t-inv F
  0.333333  0.166667  0.000000    0.00057870  16 t-inv F
  0.416667  0.166667  0.000000    0.00057870  17 t-inv F
  0.500000  0.166667  0.000000    0.00057870  18 t-inv F
  0.250000  0.250000  0.000000    0.00057870  19 t-inv F
  0.333333  0.250000  0.000000    0.00057870  20 t-inv F
  0.416667  0.250000  0.000000    0.00057870  21 t-inv F
  0.500000  0.250000  0.000000    0.00057870  22 t-inv F
  0.333333  0.333333  0.000000    0.00057870  23 t-inv F
  0.416667  0.333333  0.000000    0.00057870  24 t-inv F
  0.500000  0.333333  0.000000    0.00057870  25 t-inv F
  0.416667  0.416667  0.000000    0.00057870  26 t-inv F
  0.500000  0.416667  0.000000    0.00057870  27 t-inv F
  0.500000  0.500000  0.000000    0.00057870  28 t-inv F
  0.083333  0.083333  0.083333    0.00057870  29 t-inv F
  0.166667  0.083333  0.083333    0.00057870  30 t-inv F
  0.250000  0.083333  0.083333    0.00057870  31 t-inv F
  0.333333  0.083333  0.083333    0.00057870  32 t-inv F
  0.416667  0.083333  0.083333    0.00057870  33 t-inv F
  0.500000  0.083333  0.083333    0.00057870  34 t-inv F
  0.166667  0.166667  0.083333    0.00057870  35 t-inv F
  0.250000  0.166667  0.083333    0.00057870  36 t-inv F
  0.333333  0.166667  0.083333    0.00057870  37 t-inv F
  0.416667  0.166667  0.083333    0.00057870  38 t-inv F
  0.500000  0.166667  0.083333    0.00057870  39 t-inv F
  0.250000  0.250000  0.083333    0.00057870  40 t-inv F
  0.333333  0.250000  0.083333    0.00057870  41 t-inv F
  0.416667  0.250000  0.083333    0.00057870  42 t-inv F
  0.500000  0.250000  0.083333    0.00057870  43 t-inv F
  0.333333  0.333333  0.083333    0.00057870  44 t-inv F
  0.416667  0.333333  0.083333    0.00057870  45 t-inv F
  0.500000  0.333333  0.083333    0.00057870  46 t-inv F
  0.416667  0.416667  0.083333    0.00057870  47 t-inv F
  0.500000  0.416667  0.083333    0.00057870  48 t-inv F
  0.500000  0.500000  0.083333    0.00057870  49 t-inv F
  0.166667  0.166667  0.166667    0.00057870  50 t-inv F
  0.250000  0.166667  0.166667    0.00057870  51 t-inv F
  0.333333  0.166667  0.166667    0.00057870  52 t-inv F
  0.416667  0.166667  0.166667    0.00057870  53 t-inv F
  0.500000  0.166667  0.166667    0.00057870  54 t-inv F
  0.250000  0.250000  0.166667    0.00057870  55 t-inv F
  0.333333  0.250000  0.166667    0.00057870  56 t-inv F
  0.416667  0.250000  0.166667    0.00057870  57 t-inv F
  0.500000  0.250000  0.166667    0.00057870  58 t-inv F
  0.333333  0.333333  0.166667    0.00057870  59 t-inv F
  0.416667  0.333333  0.166667    0.00057870  60 t-inv F
  0.500000  0.333333  0.166667    0.00057870  61 t-inv F
  0.416667  0.416667  0.166667    0.00057870  62 t-inv F
  0.500000  0.416667  0.166667    0.00057870  63 t-inv F
  0.500000  0.500000  0.166667    0.00057870  64 t-inv F
  0.250000  0.250000  0.250000    0.00057870  65 t-inv F
  0.333333  0.250000  0.250000    0.00057870  66 t-inv F
  0.416667  0.250000  0.250000    0.00057870  67 t-inv F
  0.500000  0.250000  0.250000    0.00057870  68 t-inv F
  0.333333  0.333333  0.250000    0.00057870  69 t-inv F
  0.416667  0.333333  0.250000    0.00057870  70 t-inv F
  0.500000  0.333333  0.250000    0.00057870  71 t-inv F
  0.416667  0.416667  0.250000    0.00057870  72 t-inv F
  0.500000  0.416667  0.250000    0.00057870  73 t-inv F
  0.500000  0.500000  0.250000    0.00057870  74 t-inv F
  0.333333  0.333333  0.333333    0.00057870  75 t-inv F
  0.416667  0.333333  0.333333    0.00057870  76 t-inv F
  0.500000  0.333333  0.333333    0.00057870  77 t-inv F
  0.416667  0.416667  0.333333    0.00057870  78 t-inv F
  0.500000  0.416667  0.333333    0.00057870  79 t-inv F
  0.500000  0.500000  0.333333    0.00057870  80 t-inv F
  0.416667  0.416667  0.416667    0.00057870  81 t-inv F
  0.500000  0.416667  0.416667    0.00057870  82 t-inv F
  0.500000  0.500000  0.416667    0.00057870  83 t-inv F
  0.500000  0.500000  0.500000    0.00057870  84 t-inv F
 -0.083333 -0.000000  0.000000    0.00057870   2 t-inv F
  0.000000  0.083333  0.000000    0.00057870   2 t-inv F
  0.000000 -0.083333 -0.000000    0.00057870   2 t-inv F
  0.000000  0.000000  0.083333    0.00057870   2 t-inv F
 -0.000000  0.000000 -0.083333    0.00057870   2 t-inv F
 -0.166667 -0.000000  0.000000    0.00057870   3 t-inv F
  0.000000  0.166667  0.000000    0.00057870   3 t-inv F
  0.000000 -0.166667 -0.000000    0.00057870   3 t-inv F
  0.000000  0.000000  0.166667    0.00057870   3 t-inv F
 -0.000000  0.000000 -0.166667    0.00057870   3 t-inv F
 -0.250000 -0.000000  0.000000    0.00057870   4 t-inv F
  0.000000  0.250000  0.000000    0.00057870   4 t-inv F
  0.000000 -0.250000 -0.000000    0.00057870   4 t-inv F
  0.000000  0.000000  0.250000    0.00057870   4 t-inv F
 -0.000000  0.000000 -0.250000    0.00057870   4 t-inv F
 -0.333333 -0.000000  0.000000    0.00057870   5 t-inv F
  0.000000  0.333333  0.000000    0.00057870   5 t-inv F
  0.000000 -0.333333 -0.000000    0.00057870   5 t-inv F
  0.000000  0.000000  0.333333    0.00057870   5 t-inv F
 -0.000000  0.000000 -0.333333    0.00057870   5 t-inv F
 -0.416667 -0.000000  0.000000    0.00057870   6 t-inv F
  0.000000  0.416667  0.000000    0.00057870   6 t-inv F
  0.000000 -0.416667 -0.000000    0.00057870   6 t-inv F
  0.000000  0.000000  0.416667    0.00057870   6 t-inv F
 -0.000000  0.000000 -0.416667    0.00057870   6 t-inv F
  0.000000  0.500000  0.000000    0.00057870   7 t-inv F
  0.000000  0.000000  0.500000    0.00057870   7 t-inv F
 -0.083333 -0.083333  0.000000    0.00057870   8 t-inv F
  0.000000  0.083333  0.083333    0.00057870   8 t-inv F
  0.000000 -0.083333 -0.083333    0.00057870   8 t-inv F
  0.083333  0.000000  0.083333    0.00057870   8 t-inv F
 -0.083333  0.000000 -0.083333    0.00057870   8 t-inv F
 -0.083333  0.083333  0.000000    0.00057870   8 t-inv F
  0.083333 -0.083333  0.000000    0.00057870   8 t-inv F
 -0.083333  0.000000  0.083333    0.00057870   8 t-inv F
  0.083333  0.000000 -0.083333    0.00057870   8 t-inv F
  0.000000 -0.083333  0.083333    0.00057870   8 t-inv F
  0.000000  0.083333 -0.083333    0.00057870   8 t-inv F
 -0.166667 -0.083333  0.000000    0.00057870   9 t-inv F
  0.000000  0.166667  0.083333    0.00057870   9 t-inv F
  0.000000 -0.166667 -0.083333    0.00057870   9 t-inv F
  0.083333  0.000000  0.166667    0.00057870   9 t-inv F
 -0.083333  0.000000 -0.166667    0.00057870   9 t-inv F
 -0.083333  0.166667  0.000000    0.00057870   9 t-inv F
  0.083333 -0.166667  0.000000    0.00057870   9 t-inv F
 -0.166667  0.000000  0.083333    0.00057870   9 t-inv F
  0.166667  0.000000 -0.083333    0.00057870   9 t-inv F
  0.000000  0.083333  0.166667    0.00057870   9 t-inv F
  0.000000 -0.083333 -0.166667    0.00057870   9 t-inv F
  0.000000 -0.166667  0.083333    0.00057870   9 t-inv F
  0.000000  0.166667 -0.083333    0.00057870   9 t-inv F
 -0.083333  0.000000  0.166667    0.00057870   9 t-inv F
  0.083333  0.000000 -0.166667    0.00057870   9 t-inv F
  0.166667  0.000000  0.083333    0.00057870   9 t-inv F
 -0.166667  0.000000 -0.083333    0.00057870   9 t-inv F
  0.000000 -0.083333  0.166667    0.00057870   9 t-inv F
  0.000000  0.083333 -0.166667    0.00057870   9 t-inv F
  0.166667 -0.083333  0.000000    0.00057870   9 t-inv F
 -0.166667  0.083333  0.000000    0.00057870   9 t-inv F
  0.083333  0.166667  0.000000    0.00057870   9 t-inv F
 -0.083333 -0.166667  0.000000    0.00057870   9 t-inv F
 -0.250000 -0.083333  0.000000    0.00057870  10 t-inv F
  0.000000  0.250000  0.083333    0.00057870  10 t-inv F
  0.000000 -0.250000 -0.083333    0.00057870  10 t-inv F
  0.083333  0.000000  0.250000    0.00057870  10 t-inv F
 -0.083333  0.000000 -0.250000    0.00057870  10 t-inv F
 -0.083333  0.250000  0.000000    0.00057870  10 t-inv F
  0.083333 -0.250000  0.000000    0.00057870  10 t-inv F
 -0.250000  0.000000  0.083333    0.00057870  10 t-inv F
  0.250000  0.000000 -0.083333    0.00057870  10 t-inv F
  0.000000  0.083333  0.250000    0.00057870  10 t-inv F
  0.000000 -0.083333 -0.250000    0.00057870  10 t-inv F
  0.000000 -0.250000  0.083333    0.00057870  10 t-inv F
  0.000000  0.250000 -0.083333    0.00057870  10 t-inv F
 -0.083333  0.000000  0.250000    0.00057870  10 t-inv F
  0.083333  0.000000 -0.250000    0.00057870  10 t-inv F
  0.250000  0.000000  0.083333    0.00057870  10 t-inv F
 -0.250000  0.000000 -0.083333    0.00057870  10 t-inv F
  0.000000 -0.083333  0.250000    0.00057870  10 t-inv F
  0.000000  0.083333 -0.250000    0.00057870  10 t-inv F
  0.250000 -0.083333  0.000000    0.00057870  10 t-inv F
 -0.250000  0.083333  0.000000    0.00057870  10 t-inv F
  0.083333  0.250000  0.000000    0.00057870  10 t-inv F
 -0.083333 -0.250000  0.000000    0.00057870  10 t-inv F
 -0.333333 -0.083333  0.000000    0.00057870  11 t-inv F
  0.000000  0.333333  0.083333    0.00057870  11 t-inv F
  0.000000 -0.333333 -0.083333    0.00057870  11 t-inv F
  0.083333  0.000000  0.333333    0.00057870  11 t-inv F
 -0.083333  0.000000 -0.333333    0.00057870  11 t-inv F
 -0.083333  0.333333  0.000000    0.00057870  11 t-inv F
  0.083333 -0.333333  0.000000    0.00057870  11 t-inv F
 -0.333333  0.000000  0.083333    0.00057870  11 t-inv F
  0.333333  0.000000 -0.083333    0.00057870  11 t-inv F
  0.000000  0.083333  0.333333    0.00057870  11 t-inv F
  0.000000 -0.083333 -0.333333    0.00057870  11 t-inv F
  0.000000 -0.333333  0.083333    0.00057870  11 t-inv F
  0.000000  0.333333 -0.083333    0.00057870  11 t-inv F
 -0.083333  0.000000  0.333333    0.00057870  11 t-inv F
  0.083333  0.000000 -0.333333    0.00057870  11 t-inv F
  0.333333  0.000000  0.083333    0.00057870  11 t-inv F
 -0.333333  0.000000 -0.083333    0.00057870  11 t-inv F
  0.000000 -0.083333  0.333333    0.00057870  11 t-inv F
  0.000000  0.083333 -0.333333    0.00057870  11 t-inv F
  0.333333 -0.083333  0.000000    0.00057870  11 t-inv F
 -0.333333  0.083333  0.000000    0.00057870  11 t-inv F
  0.083333  0.333333  0.000000    0.00057870  11 t-inv F
 -0.083333 -0.333333  0.000000    0.00057870  11 t-inv F
 -0.416667 -0.083333  0.000000    0.00057870  12 t-inv F
  0.000000  0.416667  0.083333    0.00057870  12 t-inv F
  0.000000 -0.416667 -0.083333    0.00057870  12 t-inv F
  0.083333  0.000000  0.416667    0.00057870  12 t-inv F
 -0.083333  0.000000 -0.416667    0.00057870  12 t-inv F
 -0.083333  0.416667  0.000000    0.00057870  12 t-inv F
  0.083333 -0.416667  0.000000    0.00057870  12 t-inv F
 -0.416667  0.000000  0.083333    0.00057870  12 t-inv F
  0.416667  0.000000 -0.083333    0.00057870  12 t-inv F
  0.000000  0.083333  0.416667    0.00057870  12 t-inv F
  0.000000 -0.083333 -0.416667    0.00057870  12 t-inv F
  0.000000 -0.416667  0.083333    0.00057870  12 t-inv F
  0.000000  0.416667 -0.083333    0.00057870  12 t-inv F
 -0.083333  0.000000  0.416667    0.00057870  12 t-inv F
  0.083333  0.000000 -0.416667    0.00057870  12 t-inv F
  0.416667  0.000000  0.083333    0.00057870  12 t-inv F
 -0.416667  0.000000 -0.083333    0.00057870  12 t-inv F
  0.000000 -0.083333  0.416667    0.00057870  12 t-inv F
  0.000000  0.083333 -0.416667    0.00057870  12 t-inv F
  0.416667 -0.083333  0.000000    0.00057870  12 t-inv F
 -0.416667  0.083333  0.000000    0.00057870  12 t-inv F
  0.083333  0.416667  0.000000    0.00057870  12 t-inv F
 -0.083333 -0.416667  0.000000    0.00057870  12 t-inv F
 -0.500000 -0.083333  0.000000    0.00057870  13 t-inv F
  0.000000  0.500000  0.083333    0.00057870  13 t-inv F
  0.000000 -0.500000 -0.083333    0.00057870  13 t-inv F
  0.083333  0.000000  0.500000    0.00057870  13 t-inv F
 -0.083333  0.000000 -0.500000    0.00057870  13 t-inv F
 -0.083333  0.500000  0.000000    0.00057870  13 t-inv F
  0.083333 -0.500000  0.000000    0.00057870  13 t-inv F
 -0.500000  0.000000  0.083333    0.00057870  13 t-inv F
  0.500000  0.000000 -0.083333    0.00057870  13 t-inv F
  0.000000  0.083333  0.500000    0.00057870  13 t-inv F
  0.000000 -0.083333 -0.500000    0.00057870  13 t-inv F
 -0.166667 -0.166667  0.000000    0.00057870  14 t-inv F
  0.000000  0.166667  0.166667    0.00057870  14 t-inv F
  0.000000 -0.166667 -0.166667    0.00057870  14 t-inv F
  0.166667  0.000000  0.166667    0.00057870  14 t-inv F
 -0.166667  0.000000 -0.166667    0.00057870  14 t-inv F
 -0.166667  0.166667  0.000000    0.00057870  14 t-inv F
  0.166667 -0.166667  0.000000    0.00057870  14 t-inv F
 -0.166667  0.000000  0.166667    0.00057870  14 t-inv F
  0.166667  0.000000 -0.166667    0.00057870  14 t-inv F
  0.000000 -0.166667  0.166667    0.00057870  14 t-inv F
  0.000000  0.166667 -0.166667    0.00057870  14 t-inv F
 -0.250000 -0.166667  0.000000    0.00057870  15 t-inv F
  0.000000  0.250000  0.166667    0.00057870  15 t-inv F
  0.000000 -0.250000 -0.166667    0.00057870  15 t-inv F
  0.166667  0.000000  0.250000    0.00057870  15 t-inv F
 -0.166667  0.000000 -0.250000    0.00057870  15 t-inv F
 -0.166667  0.250000  0.000000    0.00057870  15 t-inv F
  0.166667 -0.250000  0.000000    0.00057870  15 t-inv F
 -0.250000  0.000000  0.166667    0.00057870  15 t-inv F
  0.250000  0.000000 -0.166667    0.00057870  15 t-inv F
  0.000000  0.166667  0.250000    0.00057870  15 t-inv F
  0.000000 -0.166667 -0.250000    0.00057870  15 t-inv F
  0.000000 -0.250000  0.166667    0.00057870  15 t-inv F
  0.000000  0.250000 -0.166667    0.00057870  15 t-inv F
 -0.166667  0.000000  0.250000    0.00057870  15 t-inv F
  0.166667  0.000000 -0.250000    0.00057870  15 t-inv F
  0.250000  0.000000  0.166667    0.00057870  15 t-inv F
 -0.250000  0.000000 -0.166667    0.00057870  15 t-inv F
  0.000000 -0.166667  0.250000    0.00057870  15 t-inv F
  0.000000  0.166667 -0.250000    0.00057870  15 t-inv F
  0.250000 -0.166667  0.000000    0.00057870  15 t-inv F
 -0.250000  0.166667  0.000000    0.00057870  15 t-inv F
  0.166667  0.250000  0.000000    0.00057870  15 t-inv F
 -0.166667 -0.250000  0.000000    0.00057870  15 t-inv F
 -0.333333 -0.166667  0.000000    0.00057870  16 t-inv F
  0.000000  0.333333  0.166667    0.00057870  16 t-inv F
  0.000000 -0.333333 -0.166667    0.00057870  16 t-inv F
  0.166667  0.000000  0.333333    0.00057870  16 t-inv F
 -0.166667  0.000000 -0.333333    0.00057870  16 t-inv F
 -0.166667  0.333333  0.000000    0.00057870  16 t-inv F
  0.166667 -0.333333  0.000000    0.00057870  16 t-inv F
 -0.333333  0.000000  0.166667    0.00057870  16 t-inv F
  0.333333  0.000000 -0.166667    0.00057870  16 t-inv F
  0.000000  0.166667  0.333333    0.00057870  16 t-inv F
  0.000000 -0.166667 -0.333333    0.00057870  16 t-inv F
  0.000000 -0.333333  0.166667    0.00057870  16 t-inv F
  0.000000  0.333333 -0.166667    0.00057870  16 t-inv F
 -0.166667  0.000000  0.333333    0.00057870  16 t-inv F
  0.166667  0.000000 -0.333333    0.00057870  16 t-inv F
  0.333333  0.000000  0.166667    0.00057870  16 t-inv F
 -0.333333  0.000000 -0.166667    0.00057870  16 t-inv F
  0.000000 -0.166667  0.333333    0.00057870  16 t-inv F
  0.000000  0.166667 -0.333333    0.00057870  16 t-inv F
  0.333333 -0.166667  0.000000    0.00057870  16 t-inv F
 -0.333333  0.166667  0.000000    0.00057870  16 t-inv F
  0.166667  0.333333  0.000000    0.00057870  16 t-inv F
 -0.166667 -0.333333  0.000000    0.00057870  16 t-inv F
 -0.416667 -0.166667  0.000000    0.00057870  17 t-inv F
  0.000000  0.416667  0.166667    0.00057870  17 t-inv F
  0.000000 -0.416667 -0.166667    0.00057870  17 t-inv F
  0.166667  0.000000  0.416667    0.00057870  17 t-inv F
 -0.166667  0.000000 -0.416667    0.00057870  17 t-inv F
 -0.166667  0.416667  0.000000    0.00057870  17 t-inv F
  0.166667 -0.416667  0.000000    0.00057870  17 t-inv F
 -0.416667  0.000000  0.166667    0.00057870  17 t-inv F
  0.416667  0.000000 -0.166667    0.00057870  17 t-inv F
  0.000000  0.166667  0.416667    0.00057870  17 t-inv F
  0.000000 -0.166667 -0.416667    0.00057870  17 t-inv F
  0.000000 -0.416667  0.166667    0.00057870  17 t-inv F
  0.000000  0.416667 -0.166667    0.00057870  17 t-inv F
 -0.166667  0.000000  0.416667    0.00057870  17 t-inv F
  0.166667  0.000000 -0.416667    0.00057870  17 t-inv F
  0.416667  0.000000  0.166667    0.00057870  17 t-inv F
 -0.416667  0.000000 -0.166667    0.00057870  17 t-inv F
  0.000000 -0.166667  0.416667    0.00057870  17 t-inv F
  0.000000  0.166667 -0.416667    0.00057870  17 t-inv F
  0.416667 -0.166667  0.000000    0.00057870  17 t-inv F
 -0.416667  0.166667  0.000000    0.00057870  17 t-inv F
  0.166667  0.416667  0.000000    0.00057870  17 t-inv F
 -0.166667 -0.416667  0.000000    0.00057870  17 t-inv F
 -0.500000 -0.166667  0.000000    0.00057870  18 t-inv F
  0.000000  0.500000  0.166667    0.00057870  18 t-inv F
  0.000000 -0.500000 -0.166667    0.00057870  18 t-inv F
  0.166667  0.000000  0.500000    0.00057870  18 t-inv F
 -0.166667  0.000000 -0.500000    0.00057870  18 t-inv F
 -0.166667  0.500000  0.000000    0.00057870  18 t-inv F
  0.166667 -0.500000  0.000000    0.00057870  18 t-inv F
 -0.500000  0.000000  0.166667    0.00057870  18 t-inv F
  0.500000  0.000000 -0.166667    0.00057870  18 t-inv F
  0.000000  0.166667  0.500000    0.00057870  18 t-inv F
  0.000000 -0.166667 -0.500000    0.00057870  18 t-inv F
 -0.250000 -0.250000  0.000000    0.00057870  19 t-inv F
  0.000000  0.250000  0.250000    0.00057870  19 t-inv F
  0.000000 -0.250000 -0.250000    0.00057870  19 t-inv F
  0.250000  0.000000  0.250000    0.00057870  19 t-inv F
 -0.250000  0.000000 -0.250000    0.00057870  19 t-inv F
 -0.250000  0.250000  0.000000    0.00057870  19 t-inv F
  0.250000 -0.250000  0.000000    0.00057870  19 t-inv F
 -0.250000  0.000000  0.250000    0.00057870  19 t-inv F
  0.250000  0.000000 -0.250000    0.00057870  19 t-inv F
  0.000000 -0.250000  0.250000    0.00057870  19 t-inv F
  0.000000  0.250000 -0.250000    0.00057870  19 t-inv F
 -0.333333 -0.250000  0.000000    0.00057870  20 t-inv F
  0.000000  0.333333  0.250000    0.00057870  20 t-inv F
  0.000000 -0.333333 -0.250000    0.00057870  20 t-inv F
  0.250000  0.000000  0.333333    0.00057870  20 t-inv F
 -0.250000  0.000000 -0.333333    0.00057870  20 t-inv F
 -0.250000  0.333333  0.000000    0.00057870  20 t-inv F
  0.250000 -0.333333  0.000000    0.00057870  20 t-inv F
 -0.333333  0.000000  0.250000    0.00057870  20 t-inv F
  0.333333  0.000000 -0.250000    0.00057870  20 t-inv F
  0.000000  0.250000  0.333333    0.00057870  20 t-inv F
  0.000000 -0.250000 -0.333333    0.00057870  20 t-inv F
  0.000000 -0.333333  0.250000    0.00057870  20 t-inv F
  0.000000  0.333333 -0.250000    0.00057870  20 t-inv F
 -0.250000  0.000000  0.333333    0.00057870  20 t-inv F
  0.250000  0.000000 -0.333333    0.00057870  20 t-inv F
  0.333333  0.000000  0.250000    0.00057870  20 t-inv F
 -0.333333  0.000000 -0.250000    0.00057870  20 t-inv F
  0.000000 -0.250000  0.333333    0.00057870  20 t-inv F
  0.000000  0.250000 -0.333333    0.00057870  20 t-inv F
  0.333333 -0.250000  0.000000    0.00057870  20 t-inv F
 -0.333333  0.250000  0.000000    0.00057870  20 t-inv F
  0.250000  0.333333  0.000000    0.00057870  20 t-inv F
 -0.250000 -0.333333  0.000000    0.00057870  20 t-inv F
 -0.416667 -0.250000  0.000000    0.00057870  21 t-inv F
  0.000000  0.416667  0.250000    0.00057870  21 t-inv F
  0.000000 -0.416667 -0.250000    0.00057870  21 t-inv F
  0.250000  0.000000  0.416667    0.00057870  21 t-inv F
 -0.250000  0.000000 -0.416667    0.00057870  21 t-inv F
 -0.250000  0.416667  0.000000    0.00057870  21 t-inv F
  0.250000 -0.416667  0.000000    0.00057870  21 t-inv F
 -0.416667  0.000000  0.250000    0.00057870  21 t-inv F
  0.416667  0.000000 -0.250000    0.00057870  21 t-inv F
  0.000000  0.250000  0.416667    0.00057870  21 t-inv F
  0.000000 -0.250000 -0.416667    0.00057870  21 t-inv F
  0.000000 -0.416667  0.250000    0.00057870  21 t-inv F
  0.000000  0.416667 -0.250000    0.00057870  21 t-inv F
 -0.250000  0.000000  0.416667    0.00057870  21 t-inv F
  0.250000  0.000000 -0.416667    0.00057870  21 t-inv F
  0.416667  0.000000  0.250000    0.00057870  21 t-inv F
 -0.416667  0.000000 -0.250000    0.00057870  21 t-inv F
  0.000000 -0.250000  0.416667    0.00057870  21 t-inv F
  0.000000  0.250000 -0.416667    0.00057870  21 t-inv F
  0.416667 -0.250000  0.000000    0.00057870  21 t-inv F
 -0.416667  0.250000  0.000000    0.00057870  21 t-inv F
  0.250000  0.416667  0.000000    0.00057870  21 t-inv F
 -0.250000 -0.416667  0.000000    0.00057870  21 t-inv F
 -0.500000 -0.250000  0.000000    0.00057870  22 t-inv F
  0.000000  0.500000  0.250000    0.00057870  22 t-inv F
  0.000000 -0.500000 -0.250000    0.00057870  22 t-inv F
  0.250000  0.000000  0.500000    0.00057870  22 t-inv F
 -0.250000  0.000000 -0.500000    0.00057870  22 t-inv F
 -0.250000  0.500000  0.000000    0.00057870  22 t-inv F
  0.250000 -0.500000  0.000000    0.00057870  22 t-inv F
 -0.500000  0.000000  0.250000    0.00057870  22 t-inv F
  0.500000  0.000000 -0.250000    0.00057870  22 t-inv F
  0.000000  0.250000  0.500000    0.00057870  22 t-inv F
  0.000000 -0.250000 -0.500000    0.00057870  22 t-inv F
 -0.333333 -0.333333  0.000000    0.00057870  23 t-inv F
  0.000000  0.333333  0.333333    0.00057870  23 t-inv F
  0.000000 -0.333333 -0.333333    0.00057870  23 t-inv F
  0.333333  0.000000  0.333333    0.00057870  23 t-inv F
 -0.333333  0.000000 -0.333333    0.00057870  23 t-inv F
 -0.333333  0.333333  0.000000    0.00057870  23 t-inv F
  0.333333 -0.333333  0.000000    0.00057870  23 t-inv F
 -0.333333  0.000000  0.333333    0.00057870  23 t-inv F
  0.333333  0.000000 -0.333333    0.00057870  23 t-inv F
  0.000000 -0.333333  0.333333    0.00057870  23 t-inv F
  0.000000  0.333333 -0.333333    0.00057870  23 t-inv F
 -0.416667 -0.333333  0.000000    0.00057870  24 t-inv F
  0.000000  0.416667  0.333333    0.00057870  24 t-inv F
  0.000000 -0.416667 -0.333333    0.00057870  24 t-inv F
  0.333333  0.000000  0.416667    0.00057870  24 t-inv F
 -0.333333  0.000000 -0.416667    0.00057870  24 t-inv F
 -0.333333  0.416667  0.000000    0.00057870  24 t-inv F
  0.333333 -0.416667  0.000000    0.00057870  24 t-inv F
 -0.416667  0.000000  0.333333    0.00057870  24 t-inv F
  0.416667  0.000000 -0.333333    0.00057870  24 t-inv F
  0.000000  0.333333  0.416667    0.00057870  24 t-inv F
  0.000000 -0.333333 -0.416667    0.00057870  24 t-inv F
  0.000000 -0.416667  0.333333    0.00057870  24 t-inv F
  0.000000  0.416667 -0.333333    0.00057870  24 t-inv F
 -0.333333  0.000000  0.416667    0.00057870  24 t-inv F
  0.333333  0.000000 -0.416667    0.00057870  24 t-inv F
  0.416667  0.000000  0.333333    0.00057870  24 t-inv F
 -0.416667  0.000000 -0.333333    0.00057870  24 t-inv F
  0.000000 -0.333333  0.416667    0.00057870  24 t-inv F
  0.000000  0.333333 -0.416667    0.00057870  24 t-inv F
  0.416667 -0.333333  0.000000    0.00057870  24 t-inv F
 -0.416667  0.333333  0.000000    0.00057870  24 t-inv F
  0.333333  0.416667  0.000000    0.00057870  24 t-inv F
 -0.333333 -0.416667  0.000000    0.00057870  24 t-inv F
 -0.500000 -0.333333  0.000000    0.00057870  25 t-inv F
  0.000000  0.500000  0.333333    0.00057870  25 t-inv F
  0.000000 -0.500000 -0.333333    0.00057870  25 t-inv F
  0.333333  0.000000  0.500000    0.00057870  25 t-inv F
 -0.333333  0.000000 -0.500000    0.00057870  25 t-inv F
 -0.333333  0.500000  0.000000    0.00057870  25 t-inv F
  0.333333 -0.500000  0.000000    0.00057870  25 t-inv F
 -0.500000  0.000000  0.333333    0.00057870  25 t-inv F
  0.500000  0.000000 -0.333333    0.00057870  25 t-inv F
  0.000000  0.333333  0.500000    0.00057870  25 t-inv F
  0.000000 -0.333333 -0.500000    0.00057870  25 t-inv F
 -0.416667 -0.416667  0.000000    0.00057870  26 t-inv F
  0.000000  0.416667  0.416667    0.00057870  26 t-inv F
  0.000000 -0.416667 -0.416667    0.00057870  26 t-inv F
  0.416667  0.000000  0.416667    0.00057870  26 t-inv F
 -0.416667  0.000000 -0.416667    0.00057870  26 t-inv F
 -0.416667  0.416667  0.000000    0.00057870  26 t-inv F
  0.416667 -0.416667  0.000000    0.00057870  26 t-inv F
 -0.416667  0.000000  0.416667    0.00057870  26 t-inv F
  0.416667  0.000000 -0.416667    0.00057870  26 t-inv F
  0.000000 -0.416667  0.416667    0.00057870  26 t-inv F
  0.000000  0.416667 -0.416667    0.00057870  26 t-inv F
 -0.500000 -0.416667  0.000000    0.00057870  27 t-inv F
  0.000000  0.500000  0.416667    0.00057870  27 t-inv F
  0.000000 -0.500000 -0.416667    0.00057870  27 t-inv F
  0.416667  0.000000  0.500000    0.00057870  27 t-inv F
 -0.416667  0.000000 -0.500000    0.00057870  27 t-inv F
 -0.416667  0.500000  0.000000    0.00057870  27 t-inv F
  0.416667 -0.500000  0.000000    0.00057870  27 t-inv F
 -0.500000  0.000000  0.416667    0.00057870  27 t-inv F
  0.500000  0.000000 -0.416667    0.00057870  27 t-inv F
  0.000000  0.416667  0.500000    0.00057870  27 t-inv F
  0.000000 -0.416667 -0.500000    0.00057870  27 t-inv F
  0.000000  0.500000  0.500000    0.00057870  28 t-inv F
  0.500000  0.000000  0.500000    0.00057870  28 t-inv F
 -0.083333 -0.083333 -0.083333    0.00057870  29 t-inv F
 -0.083333  0.083333  0.083333    0.00057870  29 t-inv F
  0.083333 -0.083333 -0.083333    0.00057870  29 t-inv F
 -0.083333 -0.083333  0.083333    0.00057870  29 t-inv F
  0.083333  0.083333 -0.083333    0.00057870  29 t-inv F
  0.083333 -0.083333  0.083333    0.00057870  29 t-inv F
 -0.083333  0.083333 -0.083333    0.00057870  29 t-inv F
 -0.166667 -0.083333 -0.083333    0.00057870  30 t-inv F
  0.083333  0.166667  0.083333    0.00057870  30 t-inv F
 -0.083333 -0.166667 -0.083333    0.00057870  30 t-inv F
  0.083333  0.083333  0.166667    0.00057870  30 t-inv F
 -0.083333 -0.083333 -0.166667    0.00057870  30 t-inv F
 -0.083333  0.166667  0.083333    0.00057870  30 t-inv F
  0.083333 -0.166667 -0.083333    0.00057870  30 t-inv F
 -0.166667  0.083333  0.083333    0.00057870  30 t-inv F
  0.166667 -0.083333 -0.083333    0.00057870  30 t-inv F
 -0.083333  0.083333  0.166667    0.00057870  30 t-inv F
  0.083333 -0.083333 -0.166667    0.00057870  30 t-inv F
 -0.166667 -0.083333  0.083333    0.00057870  30 t-inv F
  0.166667  0.083333 -0.083333    0.00057870  30 t-inv F
 -0.083333 -0.166667  0.083333    0.00057870  30 t-inv F
  0.083333  0.166667 -0.083333    0.00057870  30 t-inv F
 -0.083333 -0.083333  0.166667    0.00057870  30 t-inv F
  0.083333  0.083333 -0.166667    0.00057870  30 t-inv F
  0.083333 -0.166667  0.083333    0.00057870  30 t-inv F
 -0.083333  0.166667 -0.083333    0.00057870  30 t-inv F
  0.166667 -0.083333  0.083333    0.00057870  30 t-inv F
 -0.166667  0.083333 -0.083333    0.00057870  30 t-inv F
  0.083333 -0.083333  0.166667    0.00057870  30 t-inv F
 -0.083333  0.083333 -0.166667    0.00057870  30 t-inv F
 -0.250000 -0.083333 -0.083333    0.00057870  31 t-inv F
  0.083333  0.250000  0.083333    0.00057870  31 t-inv F
 -0.083333 -0.250000 -0.083333    0.00057870  31 t-inv F
  0.083333  0.083333  0.250000    0.00057870  31 t-inv F
 -0.083333 -0.083333 -0.250000    0.00057870  31 t-inv F
 -0.083333  0.250000  0.083333    0.00057870  31 t-inv F
  0.083333 -0.250000 -0.083333    0.00057870  31 t-inv F
 -0.250000  0.083333  0.083333    0.00057870  31 t-inv F
  0.250000 -0.083333 -0.083333    0.00057870  31 t-inv F
 -0.083333  0.083333  0.250000    0.00057870  31 t-inv F
  0.083333 -0.083333 -0.250000    0.00057870  31 t-inv F
 -0.250000 -0.083333  0.083333    0.00057870  31 t-inv F
  0.250000  0.083333 -0.083333    0.00057870  31 t-inv F
 -0.083333 -0.250000  0.083333    0.00057870  31 t-inv F
  0.083333  0.250000 -0.083333    0.00057870  31 t-inv F
 -0.083333 -0.083333  0.250000    0.00057870  31 t-inv F
  0.083333  0.083333 -0.250000    0.00057870  31 t-inv F
  0.083333 -0.250000  0.083333    0.00057870  31 t-inv F
 -0.083333  0.250000 -0.083333    0.00057870  31 t-inv F
  0.250000 -0.083333  0.083333    0.00057870  31 t-inv F
 -0.250000  0.083333 -0.083333    0.00057870  31 t-inv F
  0.083333 -0.083333  0.250000    0.00057870  31 t-inv F
 -0.083333  0.083333 -0.250000    0.00057870  31 t-inv F
 -0.333333 -0.083333 -0.083333    0.00057870  32 t-inv F
  0.083333  0.333333  0.083333    0.00057870  32 t-inv F
 -0.083333 -0.333333 -0.083333    0.00057870  32 t-inv F
  0.083333  0.083333  0.333333    0.00057870  32 t-inv F
 -0.083333 -0.083333 -0.333333    0.00057870  32 t-inv F
 -0.083333  0.333333  0.083333    0.00057870  32 t-inv F
  0.083333 -0.333333 -0.083333    0.00057870  32 t-inv F
 -0.333333  0.083333  0.083333    0.00057870  32 t-inv F
  0.333333 -0.083333 -0.083333    0.00057870  32 t-inv F
 -0.083333  0.083333  0.333333    0.00057870  32 t-inv F
  0.083333 -0.083333 -0.333333    0.00057870  32 t-inv F
 -0.333333 -0.083333  0.083333    0.00057870  32 t-inv F
  0.333333  0.083333 -0.083333    0.00057870  32 t-inv F
 -0.083333 -0.333333  0.083333    0.00057870  32 t-inv F
  0.083333  0.333333 -0.083333    0.00057870  32 t-inv F
 -0.083333 -0.083333  0.333333    0.00057870  32 t-inv F
  0.083333  0.083333 -0.333333    0.00057870  32 t-inv F
  0.083333 -0.333333  0.083333    0.00057870  32 t-inv F
 -0.083333  0.333333 -0.083333    0.00057870  32 t-inv F
  0.333333 -0.083333  0.083333    0.00057870  32 t-inv F
 -0.333333  0.083333 -0.083333    0.00057870  32 t-inv F
  0.083333 -0.083333  0.333333    0.00057870  32 t-inv F
 -0.083333  0.083333 -0.333333    0.00057870  32 t-inv F
 -0.416667 -0.083333 -0.083333    0.00057870  33 t-inv F
  0.083333  0.416667  0.083333    0.00057870  33 t-inv F
 -0.083333 -0.416667 -0.083333    0.00057870  33 t-inv F
  0.083333  0.083333  0.416667    0.00057870  33 t-inv F
 -0.083333 -0.083333 -0.416667    0.00057870  33 t-inv F
 -0.083333  0.416667  0.083333    0.00057870  33 t-inv F
  0.083333 -0.416667 -0.083333    0.00057870  33 t-inv F
 -0.416667  0.083333  0.083333    0.00057870  33 t-inv F
  0.416667 -0.083333 -0.083333    0.00057870  33 t-inv F
 -0.083333  0.083333  0.416667    0.00057870  33 t-inv F
  0.083333 -0.083333 -0.416667    0.00057870  33 t-inv F
 -0.416667 -0.083333  0.083333    0.00057870  33 t-inv F
  0.416667  0.083333 -0.083333    0.00057870  33 t-inv F
 -0.083333 -0.416667  0.083333    0.00057870  33 t-inv F
  0.083333  0.416667 -0.083333    0.00057870  33 t-inv F
 -0.083333 -0.083333  0.416667    0.00057870  33 t-inv F
  0.083333  0.083333 -0.416667    0.00057870  33 t-inv F
  0.083333 -0.416667  0.083333    0.00057870  33 t-inv F
 -0.083333  0.416667 -0.083333    0.00057870  33 t-inv F
  0.416667 -0.083333  0.083333    0.00057870  33 t-inv F
 -0.416667  0.083333 -0.083333    0.00057870  33 t-inv F
  0.083333 -0.083333  0.416667    0.00057870  33 t-inv F
 -0.083333  0.083333 -0.416667    0.00057870  33 t-inv F
 -0.500000 -0.083333 -0.083333    0.00057870  34 t-inv F
  0.083333  0.500000  0.083333    0.00057870  34 t-inv F
 -0.083333 -0.500000 -0.083333    0.00057870  34 t-inv F
  0.083333  0.083333  0.500000    0.00057870  34 t-inv F
 -0.083333 -0.083333 -0.500000    0.00057870  34 t-inv F
 -0.083333  0.500000  0.083333    0.00057870  34 t-inv F
  0.083333 -0.500000 -0.083333    0.00057870  34 t-inv F
 -0.083333  0.083333  0.500000    0.00057870  34 t-inv F
  0.083333 -0.083333 -0.500000    0.00057870  34 t-inv F
 -0.500000 -0.083333  0.083333    0.00057870  34 t-inv F
  0.500000  0.083333 -0.083333    0.00057870  34 t-inv F
 -0.166667 -0.166667 -0.083333    0.00057870  35 t-inv F
  0.083333  0.166667  0.166667    0.00057870  35 t-inv F
 -0.083333 -0.166667 -0.166667    0.00057870  35 t-inv F
  0.166667  0.083333  0.166667    0.00057870  35 t-inv F
 -0.166667 -0.083333 -0.166667    0.00057870  35 t-inv F
 -0.166667  0.166667  0.083333    0.00057870  35 t-inv F
  0.166667 -0.166667 -0.083333    0.00057870  35 t-inv F
 -0.166667  0.083333  0.166667    0.00057870  35 t-inv F
  0.166667 -0.083333 -0.166667    0.00057870  35 t-inv F
 -0.083333  0.166667  0.166667    0.00057870  35 t-inv F
  0.083333 -0.166667 -0.166667    0.00057870  35 t-inv F
 -0.166667 -0.166667  0.083333    0.00057870  35 t-inv F
  0.166667  0.166667 -0.083333    0.00057870  35 t-inv F
 -0.083333 -0.166667  0.166667    0.00057870  35 t-inv F
  0.083333  0.166667 -0.166667    0.00057870  35 t-inv F
 -0.166667 -0.083333  0.166667    0.00057870  35 t-inv F
  0.166667  0.083333 -0.166667    0.00057870  35 t-inv F
  0.166667 -0.166667  0.083333    0.00057870  35 t-inv F
 -0.166667  0.166667 -0.083333    0.00057870  35 t-inv F
  0.166667 -0.083333  0.166667    0.00057870  35 t-inv F
 -0.166667  0.083333 -0.166667    0.00057870  35 t-inv F
  0.083333 -0.166667  0.166667    0.00057870  35 t-inv F
 -0.083333  0.166667 -0.166667    0.00057870  35 t-inv F
 -0.250000 -0.166667 -0.083333    0.00057870  36 t-inv F
  0.083333  0.250000  0.166667    0.00057870  36 t-inv F
 -0.083333 -0.250000 -0.166667    0.00057870  36 t-inv F
  0.166667  0.083333  0.250000    0.00057870  36 t-inv F
 -0.166667 -0.083333 -0.250000    0.00057870  36 t-inv F
 -0.166667  0.250000  0.083333    0.00057870  36 t-inv F
  0.166667 -0.250000 -0.083333    0.00057870  36 t-inv F
 -0.250000  0.083333  0.166667    0.00057870  36 t-inv F
  0.250000 -0.083333 -0.166667    0.00057870  36 t-inv F
 -0.083333  0.166667  0.250000    0.00057870  36 t-inv F
  0.083333 -0.166667 -0.250000    0.00057870  36 t-inv F
 -0.250000 -0.166667  0.083333    0.00057870  36 t-inv F
  0.250000  0.166667 -0.083333    0.00057870  36 t-inv F
 -0.083333 -0.250000  0.166667    0.00057870  36 t-inv F
  0.083333  0.250000 -0.166667    0.00057870  36 t-inv F
 -0.166667 -0.083333  0.250000    0.00057870  36 t-inv F
  0.166667  0.083333 -0.250000    0.00057870  36 t-inv F
  0.166667 -0.250000  0.083333    0.00057870  36 t-inv F
 -0.166667  0.250000 -0.083333    0.00057870  36 t-inv F
  0.250000 -0.083333  0.166667    0.00057870  36 t-inv F
 -0.250000  0.083333 -0.166667    0.00057870  36 t-inv F
  0.083333 -0.166667  0.250000    0.00057870  36 t-inv F
 -0.083333  0.166667 -0.250000    0.00057870  36 t-inv F
  0.083333 -0.250000 -0.166667    0.00057870  36 t-inv F
 -0.083333  0.250000  0.166667    0.00057870  36 t-inv F
  0.166667 -0.083333 -0.250000    0.00057870  36 t-inv F
 -0.166667  0.083333  0.250000    0.00057870  36 t-inv F
  0.250000 -0.166667 -0.083333    0.00057870  36 t-inv F
 -0.250000  0.166667  0.083333    0.00057870  36 t-inv F
  0.083333  0.166667 -0.250000    0.00057870  36 t-inv F
 -0.083333 -0.166667  0.250000    0.00057870  36 t-inv F
  0.166667  0.250000 -0.083333    0.00057870  36 t-inv F
 -0.166667 -0.250000  0.083333    0.00057870  36 t-inv F
  0.250000  0.083333 -0.166667    0.00057870  36 t-inv F
 -0.250000 -0.083333  0.166667    0.00057870  36 t-inv F
 -0.166667  0.083333 -0.250000    0.00057870  36 t-inv F
  0.166667 -0.083333  0.250000    0.00057870  36 t-inv F
 -0.250000  0.166667 -0.083333    0.00057870  36 t-inv F
  0.250000 -0.166667  0.083333    0.00057870  36 t-inv F
 -0.083333  0.250000 -0.166667    0.00057870  36 t-inv F
  0.083333 -0.250000  0.166667    0.00057870  36 t-inv F
 -0.250000 -0.083333 -0.166667    0.00057870  36 t-inv F
  0.250000  0.083333  0.166667    0.00057870  36 t-inv F
 -0.166667 -0.250000 -0.083333    0.00057870  36 t-inv F
  0.166667  0.250000  0.083333    0.00057870  36 t-inv F
 -0.083333 -0.166667 -0.250000    0.00057870  36 t-inv F
  0.083333  0.166667  0.250000    0.00057870  36 t-inv F
 -0.333333 -0.166667 -0.083333    0.00057870  37 t-inv F
  0.083333  0.333333  0.166667    0.00057870  37 t-inv F
 -0.083333 -0.333333 -0.166667    0.00057870  37 t-inv F
  0.166667  0.083333  0.333333    0.00057870  37 t-inv F
 -0.166667 -0.083333 -0.333333    0.00057870  37 t-inv F
 -0.166667  0.333333  0.083333    0.00057870  37 t-inv F
  0.166667 -0.333333 -0.083333    0.00057870  37 t-inv F
 -0.333333  0.083333  0.166667    0.00057870  37 t-inv F
  0.333333 -0.083333 -0.166667    0.00057870  37 t-inv F
 -0.083333  0.166667  0.333333    0.00057870  37 t-inv F
  0.083333 -0.166667 -0.333333    0.00057870  37 t-inv F
 -0.333333 -0.166667  0.083333    0.00057870  37 t-inv F
  0.333333  0.166667 -0.083333    0.00057870  37 t-inv F
 -0.083333 -0.333333  0.166667    0.00057870  37 t-inv F
  0.083333  0.333333 -0.166667    0.00057870  37 t-inv F
 -0.166667 -0.083333  0.333333    0.00057870  37 t-inv F
  0.166667  0.083333 -0.333333    0.00057870  37 t-inv F
  0.166667 -0.333333  0.083333    0.00057870  37 t-inv F
 -0.166667  0.333333 -0.083333    0.00057870  37 t-inv F
  0.333333 -0.083333  0.166667    0.00057870  37 t-inv F
 -0.333333  0.083333 -0.166667    0.00057870  37 t-inv F
  0.083333 -0.166667  0.333333    0.00057870  37 t-inv F
 -0.083333  0.166667 -0.333333    0.00057870  37 t-inv F
  0.083333 -0.333333 -0.166667    0.00057870  37 t-inv F
 -0.083333  0.333333  0.166667    0.00057870  37 t-inv F
  0.166667 -0.083333 -0.333333    0.00057870  37 t-inv F
 -0.166667  0.083333  0.333333    0.00057870  37 t-inv F
  0.333333 -0.166667 -0.083333    0.00057870  37 t-inv F
 -0.333333  0.166667  0.083333    0.00057870  37 t-inv F
  0.083333  0.166667 -0.333333    0.00057870  37 t-inv F
 -0.083333 -0.166667  0.333333    0.00057870  37 t-inv F
  0.166667  0.333333 -0.083333    0.00057870  37 t-inv F
 -0.166667 -0.333333  0.083333    0.00057870  37 t-inv F
  0.333333  0.083333 -0.166667    0.00057870  37 t-inv F
 -0.333333 -0.083333  0.166667    0.00057870  37 t-inv F
 -0.166667  0.083333 -0.333333    0.00057870  37 t-inv F
  0.166667 -0.083333  0.333333    0.00057870  37 t-inv F
 -0.333333  0.166667 -0.083333    0.00057870  37 t-inv F
  0.333333 -0.166667  0.083333    0.00057870  37 t-inv F
 -0.083333  0.333333 -0.166667    0.00057870  37 t-inv F
  0.083333 -0.333333  0.166667    0.00057870  37 t-inv F
 -0.333333 -0.083333 -0.166667    0.00057870  37 t-inv F
  0.333333  0.083333  0.166667    0.00057870  37 t-inv F
 -0.166667 -0.333333 -0.083333    0.00057870  37 t-inv F
  0.166667  0.333333  0.083333    0.00057870  37 t-inv F
 -0.083333 -0.166667 -0.333333    0.00057870  37 t-inv F
  0.083333  0.166667  0.333333    0.00057870  37 t-inv F
 -0.416667 -0.166667 -0.083333    0.00057870  38 t-inv F
  0.083333  0.416667  0.166667    0.00057870  38 t-inv F
 -0.083333 -0.416667 -0.166667    0.00057870  38 t-inv F
  0.166667  0.083333  0.416667    0.00057870  38 t-inv F
 -0.166667 -0.083333 -0.416667    0.00057870  38 t-inv F
 -0.166667  0.416667  0.083333    0.00057870  38 t-inv F
  0.166667 -0.416667 -0.083333    0.00057870  38 t-inv F
 -0.416667  0.083333  0.166667    0.00057870  38 t-inv F
  0.416667 -0.083333 -0.166667    0.00057870  38 t-inv F
 -0.083333  0.166667  0.416667    0.00057870  38 t-inv F
  0.083333 -0.166667 -0.416667    0.00057870  38 t-inv F
 -0.416667 -0.166667  0.083333    0.00057870  38 t-inv F
  0.416667  0.166667 -0.083333    0.00057870  38 t-inv F
 -0.083333 -0.416667  0.166667    0.00057870  38 t-inv F
  0.083333  0.416667 -0.166667    0.00057870  38 t-inv F
 -0.166667 -0.083333  0.416667    0.00057870  38 t-inv F
  0.166667  0.083333 -0.416667    0.00057870  38 t-inv F
  0.166667 -0.416667  0.083333    0.00057870  38 t-inv F
 -0.166667  0.416667 -0.083333    0.00057870  38 t-inv F
  0.416667 -0.083333  0.166667    0.00057870  38 t-inv F
 -0.416667  0.083333 -0.166667    0.00057870  38 t-inv F
  0.083333 -0.166667  0.416667    0.00057870  38 t-inv F
 -0.083333  0.166667 -0.416667    0.00057870  38 t-inv F
  0.083333 -0.416667 -0.166667    0.00057870  38 t-inv F
 -0.083333  0.416667  0.166667    0.00057870  38 t-inv F
  0.166667 -0.083333 -0.416667    0.00057870  38 t-inv F
 -0.166667  0.083333  0.416667    0.00057870  38 t-inv F
  0.416667 -0.166667 -0.083333    0.00057870  38 t-inv F
 -0.416667  0.166667  0.083333    0.00057870  38 t-inv F
  0.083333  0.166667 -0.416667    0.00057870  38 t-inv F
 -0.083333 -0.166667  0.416667    0.00057870  38 t-inv F
  0.166667  0.416667 -0.083333    0.00057870  38 t-inv F
 -0.166667 -0.416667  0.083333    0.00057870  38 t-inv F
  0.416667  0.083333 -0.166667    0.00057870  38 t-inv F
 -0.416667 -0.083333  0.166667    0.00057870  38 t-inv F
 -0.166667  0.083333 -0.416667    0.00057870  38 t-inv F
  0.166667 -0.083333  0.416667    0.00057870  38 t-inv F
 -0.416667  0.166667 -0.083333    0.00057870  38 t-inv F
  0.416667 -0.166667  0.083333    0.00057870  38 t-inv F
 -0.083333  0.416667 -0.166667    0.00057870  38 t-inv F
  0.083333 -0.416667  0.166667    0.00057870  38 t-inv F
 -0.416667 -0.083333 -0.166667    0.00057870  38 t-inv F
  0.416667  0.083333  0.166667    0.00057870  38 t-inv F
 -0.166667 -0.416667 -0.083333    0.00057870  38 t-inv F
  0.166667  0.416667  0.083333    0.00057870  38 t-inv F
 -0.083333 -0.166667 -0.416667    0.00057870  38 t-inv F
  0.083333  0.166667  0.416667    0.00057870  38 t-inv F
 -0.500000 -0.166667 -0.083333    0.00057870  39 t-inv F
  0.083333  0.500000  0.166667    0.00057870  39 t-inv F
 -0.083333 -0.500000 -0.166667    0.00057870  39 t-inv F
  0.166667  0.083333  0.500000    0.00057870  39 t-inv F
 -0.166667 -0.083333 -0.500000    0.00057870  39 t-inv F
 -0.166667  0.500000  0.083333    0.00057870  39 t-inv F
  0.166667 -0.500000 -0.083333    0.00057870  39 t-inv F
 -0.500000  0.083333  0.166667    0.00057870  39 t-inv F
  0.500000 -0.083333 -0.166667    0.00057870  39 t-inv F
 -0.083333  0.166667  0.500000    0.00057870  39 t-inv F
  0.083333 -0.166667 -0.500000    0.00057870  39 t-inv F
 -0.500000 -0.166667  0.083333    0.00057870  39 t-inv F
  0.500000  0.166667 -0.083333    0.00057870  39 t-inv F
 -0.083333 -0.500000  0.166667    0.00057870  39 t-inv F
  0.083333  0.500000 -0.166667    0.00057870  39 t-inv F
  0.166667 -0.500000  0.083333    0.00057870  39 t-inv F
 -0.166667  0.500000 -0.083333    0.00057870  39 t-inv F
  0.500000 -0.083333  0.166667    0.00057870  39 t-inv F
 -0.500000  0.083333 -0.166667    0.00057870  39 t-inv F
  0.166667 -0.083333 -0.500000    0.00057870  39 t-inv F
 -0.166667  0.083333  0.500000    0.00057870  39 t-inv F
  0.083333  0.166667 -0.500000    0.00057870  39 t-inv F
 -0.083333 -0.166667  0.500000    0.00057870  39 t-inv F
 -0.250000 -0.250000 -0.083333    0.00057870  40 t-inv F
  0.083333  0.250000  0.250000    0.00057870  40 t-inv F
 -0.083333 -0.250000 -0.250000    0.00057870  40 t-inv F
  0.250000  0.083333  0.250000    0.00057870  40 t-inv F
 -0.250000 -0.083333 -0.250000    0.00057870  40 t-inv F
 -0.250000  0.250000  0.083333    0.00057870  40 t-inv F
  0.250000 -0.250000 -0.083333    0.00057870  40 t-inv F
 -0.250000  0.083333  0.250000    0.00057870  40 t-inv F
  0.250000 -0.083333 -0.250000    0.00057870  40 t-inv F
 -0.083333  0.250000  0.250000    0.00057870  40 t-inv F
  0.083333 -0.250000 -0.250000    0.00057870  40 t-inv F
 -0.250000 -0.250000  0.083333    0.00057870  40 t-inv F
  0.250000  0.250000 -0.083333    0.00057870  40 t-inv F
 -0.083333 -0.250000  0.250000    0.00057870  40 t-inv F
  0.083333  0.250000 -0.250000    0.00057870  40 t-inv F
 -0.250000 -0.083333  0.250000    0.00057870  40 t-inv F
  0.250000  0.083333 -0.250000    0.00057870  40 t-inv F
  0.250000 -0.250000  0.083333    0.00057870  40 t-inv F
 -0.250000  0.250000 -0.083333    0.00057870  40 t-inv F
  0.250000 -0.083333  0.250000    0.00057870  40 t-inv F
 -0.250000  0.083333 -0.250000    0.00057870  40 t-inv F
  0.083333 -0.250000  0.250000    0.00057870  40 t-inv F
 -0.083333  0.250000 -0.250000    0.00057870  40 t-inv F
 -0.333333 -0.250000 -0.083333    0.00057870  41 t-inv F
  0.083333  0.333333  0.250000    0.00057870  41 t-inv F
 -0.083333 -0.333333 -0.250000    0.00057870  41 t-inv F
  0.250000  0.083333  0.333333    0.00057870  41 t-inv F
 -0.250000 -0.083333 -0.333333    0.00057870  41 t-inv F
 -0.250000  0.333333  0.083333    0.00057870  41 t-inv F
  0.250000 -0.333333 -0.083333    0.00057870  41 t-inv F
 -0.333333  0.083333  0.250000    0.00057870  41 t-inv F
  0.333333 -0.083333 -0.250000    0.00057870  41 t-inv F
 -0.083333  0.250000  0.333333    0.00057870  41 t-inv F
  0.083333 -0.250000 -0.333333    0.00057870  41 t-inv F
 -0.333333 -0.250000  0.083333    0.00057870  41 t-inv F
  0.333333  0.250000 -0.083333    0.00057870  41 t-inv F
 -0.083333 -0.333333  0.250000    0.00057870  41 t-inv F
  0.083333  0.333333 -0.250000    0.00057870  41 t-inv F
 -0.250000 -0.083333  0.333333    0.00057870  41 t-inv F
  0.250000  0.083333 -0.333333    0.00057870  41 t-inv F
  0.250000 -0.333333  0.083333    0.00057870  41 t-inv F
 -0.250000  0.333333 -0.083333    0.00057870  41 t-inv F
  0.333333 -0.083333  0.250000    0.00057870  41 t-inv F
 -0.333333  0.083333 -0.250000    0.00057870  41 t-inv F
  0.083333 -0.250000  0.333333    0.00057870  41 t-inv F
 -0.083333  0.250000 -0.333333    0.00057870  41 t-inv F
  0.083333 -0.333333 -0.250000    0.00057870  41 t-inv F
 -0.083333  0.333333  0.250000    0.00057870  41 t-inv F
  0.250000 -0.083333 -0.333333    0.00057870  41 t-inv F
 -0.250000  0.083333  0.333333    0.00057870  41 t-inv F
  0.333333 -0.250000 -0.083333    0.00057870  41 t-inv F
 -0.333333  0.250000  0.083333    0.00057870  41 t-inv F
  0.083333  0.250000 -0.333333    0.00057870  41 t-inv F
 -0.083333 -0.250000  0.333333    0.00057870  41 t-inv F
  0.250000  0.333333 -0.083333    0.00057870  41 t-inv F
 -0.250000 -0.333333  0.083333    0.00057870  41 t-inv F
  0.333333  0.083333 -0.250000    0.00057870  41 t-inv F
 -0.333333 -0.083333  0.250000    0.00057870  41 t-inv F
 -0.250000  0.083333 -0.333333    0.00057870  41 t-inv F
  0.250000 -0.083333  0.333333    0.00057870  41 t-inv F
 -0.333333  0.250000 -0.083333    0.00057870  41 t-inv F
  0.333333 -0.250000  0.083333    0.00057870  41 t-inv F
 -0.083333  0.333333 -0.250000    0.00057870  41 t-inv F
  0.083333 -0.333333  0.250000    0.00057870  41 t-inv F
 -0.333333 -0.083333 -0.250000    0.00057870  41 t-inv F
  0.333333  0.083333  0.250000    0.00057870  41 t-inv F
 -0.250000 -0.333333 -0.083333    0.00057870  41 t-inv F
  0.250000  0.333333  0.083333    0.00057870  41 t-inv F
 -0.083333 -0.250000 -0.333333    0.00057870  41 t-inv F
  0.083333  0.250000  0.333333    0.00057870  41 t-inv F
 -0.416667 -0.250000 -0.083333    0.00057870  42 t-inv F
  0.083333  0.416667  0.250000    0.00057870  42 t-inv F
 -0.083333 -0.416667 -0.250000    0.00057870  42 t-inv F
  0.250000  0.083333  0.416667    0.00057870  42 t-inv F
 -0.250000 -0.083333 -0.416667    0.00057870  42 t-inv F
 -0.250000  0.416667  0.083333    0.00057870  42 t-inv F
  0.250000 -0.416667 -0.083333    0.00057870  42 t-inv F
 -0.416667  0.083333  0.250000    0.00057870  42 t-inv F
  0.416667 -0.083333 -0.250000    0.00057870  42 t-inv F
 -0.083333  0.250000  0.416667    0.00057870  42 t-inv F
  0.083333 -0.250000 -0.416667    0.00057870  42 t-inv F
 -0.416667 -0.250000  0.083333    0.00057870  42 t-inv F
  0.416667  0.250000 -0.083333    0.00057870  42 t-inv F
 -0.083333 -0.416667  0.250000    0.00057870  42 t-inv F
  0.083333  0.416667 -0.250000    0.00057870  42 t-inv F
 -0.250000 -0.083333  0.416667    0.00057870  42 t-inv F
  0.250000  0.083333 -0.416667    0.00057870  42 t-inv F
  0.250000 -0.416667  0.083333    0.00057870  42 t-inv F
 -0.250000  0.416667 -0.083333    0.00057870  42 t-inv F
  0.416667 -0.083333  0.250000    0.00057870  42 t-inv F
 -0.416667  0.083333 -0.250000    0.00057870  42 t-inv F
  0.083333 -0.250000  0.416667    0.00057870  42 t-inv F
 -0.083333  0.250000 -0.416667    0.00057870  42 t-inv F
  0.083333 -0.416667 -0.250000    0.00057870  42 t-inv F
 -0.083333  0.416667  0.250000    0.00057870  42 t-inv F
  0.250000 -0.083333 -0.416667    0.00057870  42 t-inv F
 -0.250000  0.083333  0.416667    0.00057870  42 t-inv F
  0.416667 -0.250000 -0.083333    0.00057870  42 t-inv F
 -0.416667  0.250000  0.083333    0.00057870  42 t-inv F
  0.083333  0.250000 -0.416667    0.00057870  42 t-inv F
 -0.083333 -0.250000  0.416667    0.00057870  42 t-inv F
  0.250000  0.416667 -0.083333    0.00057870  42 t-inv F
 -0.250000 -0.416667  0.083333    0.00057870  42 t-inv F
  0.416667  0.083333 -0.250000    0.00057870  42 t-inv F
 -0.416667 -0.083333  0.250000    0.00057870  42 t-inv F
 -0.250000  0.083333 -0.416667    0.00057870  42 t-inv F
  0.250000 -0.083333  0.416667    0.00057870  42 t-inv F
 -0.416667  0.250000 -0.083333    0.00057870  42 t-inv F
  0.416667 -0.250000  0.083333    0.00057870  42 t-inv F
 -0.083333  0.416667 -0.250000    0.00057870  42 t-inv F
  0.083333 -0.416667  0.250000    0.00057870  42 t-inv F
 -0.416667 -0.083333 -0.250000    0.00057870  42 t-inv F
  0.416667  0.083333  0.250000    0.00057870  42 t-inv F
 -0.250000 -0.416667 -0.083333    0.00057870  42 t-inv F
  0.250000  0.416667  0.083333    0.00057870  42 t-inv F
 -0.083333 -0.250000 -0.416667    0.00057870  42 t-inv F
  0.083333  0.250000  0.416667    0.00057870  42 t-inv F
 -0.500000 -0.250000 -0.083333    0.00057870  43 t-inv F
  0.083333  0.500000  0.250000    0.00057870  43 t-inv F
 -0.083333 -0.500000 -0.250000    0.00057870  43 t-inv F
  0.250000  0.083333  0.500000    0.00057870  43 t-inv F
 -0.250000 -0.083333 -0.500000    0.00057870  43 t-inv F
 -0.250000  0.500000  0.083333    0.00057870  43 t-inv F
  0.250000 -0.500000 -0.083333    0.00057870  43 t-inv F
 -0.500000  0.083333  0.250000    0.00057870  43 t-inv F
  0.500000 -0.083333 -0.250000    0.00057870  43 t-inv F
 -0.083333  0.250000  0.500000    0.00057870  43 t-inv F
  0.083333 -0.250000 -0.500000    0.00057870  43 t-inv F
 -0.500000 -0.250000  0.083333    0.00057870  43 t-inv F
  0.500000  0.250000 -0.083333    0.00057870  43 t-inv F
 -0.083333 -0.500000  0.250000    0.00057870  43 t-inv F
  0.083333  0.500000 -0.250000    0.00057870  43 t-inv F
  0.250000 -0.500000  0.083333    0.00057870  43 t-inv F
 -0.250000  0.500000 -0.083333    0.00057870  43 t-inv F
  0.500000 -0.083333  0.250000    0.00057870  43 t-inv F
 -0.500000  0.083333 -0.250000    0.00057870  43 t-inv F
  0.250000 -0.083333 -0.500000    0.00057870  43 t-inv F
 -0.250000  0.083333  0.500000    0.00057870  43 t-inv F
  0.083333  0.250000 -0.500000    0.00057870  43 t-inv F
 -0.083333 -0.250000  0.500000    0.00057870  43 t-inv F
 -0.333333 -0.333333 -0.083333    0.00057870  44 t-inv F
  0.083333  0.333333  0.333333    0.00057870  44 t-inv F
 -0.083333 -0.333333 -0.333333    0.00057870  44 t-inv F
  0.333333  0.083333  0.333333    0.00057870  44 t-inv F
 -0.333333 -0.083333 -0.333333    0.00057870  44 t-inv F
 -0.333333  0.333333  0.083333    0.00057870  44 t-inv F
  0.333333 -0.333333 -0.083333    0.00057870  44 t-inv F
 -0.333333  0.083333  0.333333    0.00057870  44 t-inv F
  0.333333 -0.083333 -0.333333    0.00057870  44 t-inv F
 -0.083333  0.333333  0.333333    0.00057870  44 t-inv F
  0.083333 -0.333333 -0.333333    0.00057870  44 t-inv F
 -0.333333 -0.333333  0.083333    0.00057870  44 t-inv F
  0.333333  0.333333 -0.083333    0.00057870  44 t-inv F
 -0.083333 -0.333333  0.333333    0.00057870  44 t-inv F
  0.083333  0.333333 -0.333333    0.00057870  44 t-inv F
 -0.333333 -0.083333  0.333333    0.00057870  44 t-inv F
  0.333333  0.083333 -0.333333    0.00057870  44 t-inv F
  0.333333 -0.333333  0.083333    0.00057870  44 t-inv F
 -0.333333  0.333333 -0.083333    0.00057870  44 t-inv F
  0.333333 -0.083333  0.333333    0.00057870  44 t-inv F
 -0.333333  0.083333 -0.333333    0.00057870  44 t-inv F
  0.083333 -0.333333  0.333333    0.00057870  44 t-inv F
 -0.083333  0.333333 -0.333333    0.00057870  44 t-inv F
 -0.416667 -0.333333 -0.083333    0.00057870  45 t-inv F
  0.083333  0.416667  0.333333    0.00057870  45 t-inv F
 -0.083333 -0.416667 -0.333333    0.00057870  45 t-inv F
  0.333333  0.083333  0.416667    0.00057870  45 t-inv F
 -0.333333 -0.083333 -0.416667    0.00057870  45 t-inv F
 -0.333333  0.416667  0.083333    0.00057870  45 t-inv F
  0.333333 -0.416667 -0.083333    0.00057870  45 t-inv F
 -0.416667  0.083333  0.333333    0.00057870  45 t-inv F
  0.416667 -0.083333 -0.333333    0.00057870  45 t-inv F
 -0.083333  0.333333  0.416667    0.00057870  45 t-inv F
  0.083333 -0.333333 -0.416667    0.00057870  45 t-inv F
 -0.416667 -0.333333  0.083333    0.00057870  45 t-inv F
  0.416667  0.333333 -0.083333    0.00057870  45 t-inv F
 -0.083333 -0.416667  0.333333    0.00057870  45 t-inv F
  0.083333  0.416667 -0.333333    0.00057870  45 t-inv F
 -0.333333 -0.083333  0.416667    0.00057870  45 t-inv F
  0.333333  0.083333 -0.416667    0.00057870  45 t-inv F
  0.333333 -0.416667  0.083333    0.00057870  45 t-inv F
 -0.333333  0.416667 -0.083333    0.00057870  45 t-inv F
  0.416667 -0.083333  0.333333    0.00057870  45 t-inv F
 -0.416667  0.083333 -0.333333    0.00057870  45 t-inv F
  0.083333 -0.333333  0.416667    0.00057870  45 t-inv F
 -0.083333  0.333333 -0.416667    0.00057870  45 t-inv F
  0.083333 -0.416667 -0.333333    0.00057870  45 t-inv F
 -0.083333  0.416667  0.333333    0.00057870  45 t-inv F
  0.333333 -0.083333 -0.416667    0.00057870  45 t-inv F
 -0.333333  0.083333  0.416667    0.00057870  45 t-inv F
  0.416667 -0.333333 -0.083333    0.00057870  45 t-inv F
 -0.416667  0.333333  0.083333    0.00057870  45 t-inv F
  0.083333  0.333333 -0.416667    0.00057870  45 t-inv F
 -0.083333 -0.333333  0.416667    0.00057870  45 t-inv F
  0.333333  0.416667 -0.083333    0.00057870  45 t-inv F
 -0.333333 -0.416667  0.083333    0.00057870  45 t-inv F
  0.416667  0.083333 -0.333333    0.00057870  45 t-inv F
 -0.416667 -0.083333  0.333333    0.00057870  45 t-inv F
 -0.333333  0.083333 -0.416667    0.00057870  45 t-inv F
  0.333333 -0.083333  0.416667    0.00057870  45 t-inv F
 -0.416667  0.333333 -0.083333    0.00057870  45 t-inv F
  0.416667 -0.333333  0.083333    0.00057870  45 t-inv F
 -0.083333  0.416667 -0.333333    0.00057870  45 t-inv F
  0.083333 -0.416667  0.333333    0.00057870  45 t-inv F
 -0.416667 -0.083333 -0.333333    0.00057870  45 t-inv F
  0.416667  0.083333  0.333333    0.00057870  45 t-inv F
 -0.333333 -0.416667 -0.083333    0.00057870  45 t-inv F
  0.333333  0.416667  0.083333    0.00057870  45 t-inv F
 -0.083333 -0.333333 -0.416667    0.00057870  45 t-inv F
  0.083333  0.333333  0.416667    0.00057870  45 t-inv F
 -0.500000 -0.333333 -0.083333    0.00057870  46 t-inv F
  0.083333  0.500000  0.333333    0.00057870  46 t-inv F
 -0.083333 -0.500000 -0.333333    0.00057870  46 t-inv F
  0.333333  0.083333  0.500000    0.00057870  46 t-inv F
 -0.333333 -0.083333 -0.500000    0.00057870  46 t-inv F
 -0.333333  0.500000  0.083333    0.00057870  46 t-inv F
  0.333333 -0.500000 -0.083333    0.00057870  46 t-inv F
 -0.500000  0.083333  0.333333    0.00057870  46 t-inv F
  0.500000 -0.083333 -0.333333    0.00057870  46 t-inv F
 -0.083333  0.333333  0.500000    0.00057870  46 t-inv F
  0.083333 -0.333333 -0.500000    0.00057870  46 t-inv F
 -0.500000 -0.333333  0.083333    0.00057870  46 t-inv F
  0.500000  0.333333 -0.083333    0.00057870  46 t-inv F
 -0.083333 -0.500000  0.333333    0.00057870  46 t-inv F
  0.083333  0.500000 -0.333333    0.00057870  46 t-inv F
  0.333333 -0.500000  0.083333    0.00057870  46 t-inv F
 -0.333333  0.500000 -0.083333    0.00057870  46 t-inv F
  0.500000 -0.083333  0.333333    0.00057870  46 t-inv F
 -0.500000  0.083333 -0.333333    0.00057870  46 t-inv F
  0.333333 -0.083333 -0.500000    0.00057870  46 t-inv F
 -0.333333  0.083333  0.500000    0.00057870  46 t-inv F
  0.083333  0.333333 -0.500000    0.00057870  46 t-inv F
 -0.083333 -0.333333  0.500000    0.00057870  46 t-inv F
 -0.416667 -0.416667 -0.083333    0.00057870  47 t-inv F
  0.083333  0.416667  0.416667    0.00057870  47 t-inv F
 -0.083333 -0.416667 -0.416667    0.00057870  47 t-inv F
  0.416667  0.083333  0.416667    0.00057870  47 t-inv F
 -0.416667 -0.083333 -0.416667    0.00057870  47 t-inv F
 -0.416667  0.416667  0.083333    0.00057870  47 t-inv F
  0.416667 -0.416667 -0.083333    0.00057870  47 t-inv F
 -0.416667  0.083333  0.416667    0.00057870  47 t-inv F
  0.416667 -0.083333 -0.416667    0.00057870  47 t-inv F
 -0.083333  0.416667  0.416667    0.00057870  47 t-inv F
  0.083333 -0.416667 -0.416667    0.00057870  47 t-inv F
 -0.416667 -0.416667  0.083333    0.00057870  47 t-inv F
  0.416667  0.416667 -0.083333    0.00057870  47 t-inv F
 -0.083333 -0.416667  0.416667    0.00057870  47 t-inv F
  0.083333  0.416667 -0.416667    0.00057870  47 t-inv F
 -0.416667 -0.083333  0.416667    0.00057870  47 t-inv F
  0.416667  0.083333 -0.416667    0.00057870  47 t-inv F
  0.416667 -0.416667  0.083333    0.00057870  47 t-inv F
 -0.416667  0.416667 -0.083333    0.00057870  47 t-inv F
  0.416667 -0.083333  0.416667    0.00057870  47 t-inv F
 -0.416667  0.083333 -0.416667    0.00057870  47 t-inv F
  0.083333 -0.416667  0.416667    0.00057870  47 t-inv F
 -0.083333  0.416667 -0.416667    0.00057870  47 t-inv F
 -0.500000 -0.416667 -0.083333    0.00057870  48 t-inv F
  0.083333  0.500000  0.416667    0.00057870  48 t-inv F
 -0.083333 -0.500000 -0.416667    0.00057870  48 t-inv F
  0.416667  0.083333  0.500000    0.00057870  48 t-inv F
 -0.416667 -0.083333 -0.500000    0.00057870  48 t-inv F
 -0.416667  0.500000  0.083333    0.00057870  48 t-inv F
  0.416667 -0.500000 -0.083333    0.00057870  48 t-inv F
 -0.500000  0.083333  0.416667    0.00057870  48 t-inv F
  0.500000 -0.083333 -0.416667    0.00057870  48 t-inv F
 -0.083333  0.416667  0.500000    0.00057870  48 t-inv F
  0.083333 -0.416667 -0.500000    0.00057870  48 t-inv F
 -0.500000 -0.416667  0.083333    0.00057870  48 t-inv F
  0.500000  0.416667 -0.083333    0.00057870  48 t-inv F
 -0.083333 -0.500000  0.416667    0.00057870  48 t-inv F
  0.083333  0.500000 -0.416667    0.00057870  48 t-inv F
  0.416667 -0.500000  0.083333    0.00057870  48 t-inv F
 -0.416667  0.500000 -0.083333    0.00057870  48 t-inv F
  0.500000 -0.083333  0.416667    0.00057870  48 t-inv F
 -0.500000  0.083333 -0.416667    0.00057870  48 t-inv F
  0.416667 -0.083333 -0.500000    0.00057870  48 t-inv F
 -0.416667  0.083333  0.500000    0.00057870  48 t-inv F
  0.083333  0.416667 -0.500000    0.00057870  48 t-inv F
 -0.083333 -0.416667  0.500000    0.00057870  48 t-inv F
 -0.500000 -0.500000 -0.083333    0.00057870  49 t-inv F
  0.083333  0.500000  0.500000    0.00057870  49 t-inv F
 -0.083333 -0.500000 -0.500000    0.00057870  49 t-inv F
  0.500000  0.083333  0.500000    0.00057870  49 t-inv F
 -0.500000 -0.083333 -0.500000    0.00057870  49 t-inv F
 -0.166667 -0.166667 -0.166667    0.00057870  50 t-inv F
 -0.166667  0.166667  0.166667    0.00057870  50 t-inv F
  0.166667 -0.166667 -0.166667    0.00057870  50 t-inv F
 -0.166667 -0.166667  0.166667    0.00057870  50 t-inv F
  0.166667  0.166667 -0.166667    0.00057870  50 t-inv F
  0.166667 -0.166667  0.166667    0.00057870  50 t-inv F
 -0.166667  0.166667 -0.166667    0.00057870  50 t-inv F
 -0.250000 -0.166667 -0.166667    0.00057870  51 t-inv F
  0.166667  0.250000  0.166667    0.00057870  51 t-inv F
[...]
      2       2.3310      2.00000
      3       2.6026      2.00000
      4       2.6026      2.00000
      5       4.2253      2.00000
      6       4.2253      2.00000
      7       4.3376      2.00000
      8       4.3376      2.00000
      9       4.4529      2.00000
     10       4.4529      2.00000
     11       4.4972      2.00000
     12       4.4972      2.00000
     13       4.9105      2.00000
     14       4.9105      2.00000
     15       4.9198      2.00000
     16       4.9198      2.00000
     17       5.6646      2.00000
     18       5.6646      2.00000
     19       5.7030      2.00000
     20       5.7030      2.00000
     21       6.2991      2.00000
     22       6.2991      2.00000
     23       7.4879      0.00807
     24       7.4879      0.00807
     25      11.3868      0.00000
     26      11.3868      0.00000
     27      12.7512      0.00000
     28      12.7512      0.00000
     29      24.8480      0.00000
     30      24.8480      0.00000
     31      26.4435      0.00000
     32      26.4435      0.00000
     33      26.5838      0.00000
     34      26.5838      0.00000
     35      28.0809      0.00000
     36      28.0809      0.00000
     37      29.1726      0.00000
     38      29.1726      0.00000
     39      29.2928      0.00000
     40      29.2928      0.00000
     41      33.1952      0.00000
     42      33.1952      0.00000
     43      33.7020      0.00000
     44      33.7020      0.00000
     45      34.6167      0.00000
     46      34.6167      0.00000
     47      35.9407      0.00000
     48      35.9407      0.00000

 k-point    80 :       0.5000    0.5000    0.3333
  band No.  band energies     occupation 
      1       2.4599      2.00000
      2       2.4599      2.00000
      3       2.4599      2.00000
      4       2.4599      2.00000
      5       4.3054      2.00000
      6       4.3054      2.00000
      7       4.3054      2.00000
      8       4.3054      2.00000
      9       4.4478      2.00000
     10       4.4478      2.00000
     11       4.4478      2.00000
     12       4.4478      2.00000
     13       5.0374      2.00000
     14       5.0374      2.00000
     15       5.0374      2.00000
     16       5.0374      2.00000
     17       5.6548      2.00000
     18       5.6548      2.00000
     19       5.6548      2.00000
     20       5.6548      2.00000
     21       6.7931      2.00000
     22       6.7931      2.00000
     23       6.7931      2.00000
     24       6.7931      2.00000
     25      11.9397      0.00000
     26      11.9397      0.00000
     27      11.9397      0.00000
     28      11.9397      0.00000
     29      25.6069      0.00000
     30      25.6069      0.00000
     31      25.6069      0.00000
     32      25.6069      0.00000
     33      28.5704      0.00000
     34      28.5704      0.00000
     35      28.5704      0.00000
     36      28.5704      0.00000
     37      28.6750      0.00000
     38      28.6750      0.00000
     39      28.6750      0.00000
     40      28.6750      0.00000
     41      33.3476      0.00000
     42      33.3476      0.00000
     43      33.3476      0.00000
     44      33.3476      0.00000
     45      34.5783      0.00000
     46      34.5783      0.00000
     47      34.5783      0.00000
     48      34.5783      0.00000

 k-point    81 :       0.4167    0.4167    0.4167
  band No.  band energies     occupation 
      1       2.2216      2.00000
      2       2.5062      2.00000
      3       2.5062      2.00000
      4       2.5062      2.00000
      5       4.2814      2.00000
      6       4.2814      2.00000
      7       4.2814      2.00000
      8       4.3961      2.00000
      9       4.3961      2.00000
     10       4.4470      2.00000
     11       4.4470      2.00000
     12       4.4470      2.00000
     13       5.1002      2.00000
     14       5.1002      2.00000
     15       5.1002      2.00000
     16       5.4369      2.00000
     17       5.6740      2.00000
     18       5.6740      2.00000
     19       5.7522      2.00000
     20       5.7522      2.00000
     21       5.7522      2.00000
     22       7.0964      2.00000
     23       7.0964      2.00000
     24       7.0964      2.00000
     25      11.3224      0.00000
     26      11.3224      0.00000
     27      11.3224      0.00000
     28      12.6502      0.00000
     29      26.3131      0.00000
     30      26.3131      0.00000
     31      26.3131      0.00000
     32      27.5411      0.00000
     33      27.5411      0.00000
     34      27.5411      0.00000
     35      28.3129      0.00000
     36      28.3129      0.00000
     37      28.3129      0.00000
     38      28.5031      0.00000
     39      29.2067      0.00000
     40      29.2067      0.00000
     41      32.6024      0.00000
     42      32.6024      0.00000
     43      34.0606      0.00000
     44      34.0606      0.00000
     45      34.0606      0.00000
     46      34.4362      0.00000
     47      34.4362      0.00000
     48      34.4362      0.00000

 k-point    82 :       0.5000    0.4167    0.4167
  band No.  band energies     occupation 
      1       2.3563      2.00000
      2       2.3563      2.00000
      3       2.4890      2.00000
      4       2.4890      2.00000
      5       4.3012      2.00000
      6       4.3012      2.00000
      7       4.3557      2.00000
      8       4.3557      2.00000
      9       4.4009      2.00000
     10       4.4009      2.00000
     11       4.4218      2.00000
     12       4.4218      2.00000
     13       5.2432      2.00000
     14       5.2432      2.00000
     15       5.3605      2.00000
     16       5.3605      2.00000
     17       5.7355      2.00000
     18       5.7355      2.00000
     19       5.7388      2.00000
     20       5.7388      2.00000
     21       6.2666      2.00000
     22       6.2666      2.00000
     23       7.0929      2.00000
     24       7.0929      2.00000
     25      11.0724      0.00000
     26      11.0724      0.00000
     27      11.8551      0.00000
     28      11.8551      0.00000
     29      26.7445      0.00000
     30      26.7445      0.00000
     31      27.3799      0.00000
     32      27.3799      0.00000
     33      27.9750      0.00000
     34      27.9750      0.00000
     35      28.3511      0.00000
     36      28.3511      0.00000
     37      28.9500      0.00000
     38      28.9500      0.00000
     39      29.0324      0.00000
     40      29.0324      0.00000
     41      32.8797      0.00000
     42      32.8797      0.00000
     43      33.0989      0.00000
     44      33.0989      0.00000
     45      33.2077      0.00000
     46      33.2077      0.00000
     47      34.3481      0.00000
     48      34.3481      0.00000

 k-point    83 :       0.5000    0.5000    0.4167
  band No.  band energies     occupation 
      1       2.4072      2.00000
      2       2.4072      2.00000
      3       2.4072      2.00000
      4       2.4072      2.00000
      5       4.3490      2.00000
      6       4.3490      2.00000
      7       4.3490      2.00000
      8       4.3490      2.00000
      9       4.3858      2.00000
     10       4.3858      2.00000
     11       4.3858      2.00000
     12       4.3858      2.00000
     13       5.4886      2.00000
     14       5.4886      2.00000
     15       5.4886      2.00000
     16       5.4886      2.00000
     17       5.7236      2.00000
     18       5.7236      2.00000
     19       5.7236      2.00000
     20       5.7236      2.00000
     21       6.5798      2.00000
     22       6.5798      2.00000
     23       6.5798      2.00000
     24       6.5798      2.00000
     25      11.2648      0.00000
     26      11.2648      0.00000
     27      11.2648      0.00000
     28      11.2648      0.00000
     29      27.5732      0.00000
     30      27.5732      0.00000
     31      27.5732      0.00000
     32      27.5732      0.00000
     33      28.7168      0.00000
     34      28.7168      0.00000
     35      28.7168      0.00000
     36      28.7168      0.00000
     37      28.9624      0.00000
     38      28.9624      0.00000
     39      28.9624      0.00000
     40      28.9624      0.00000
     41      32.5146      0.00000
     42      32.5146      0.00000
     43      32.5146      0.00000
     44      32.5146      0.00000
     45      33.1881      0.00000
     46      33.1881      0.00000
     47      33.1881      0.00000
     48      33.1881      0.00000

 k-point    84 :       0.5000    0.5000    0.5000
  band No.  band energies     occupation 
      1       2.3889      2.00000
      2       2.3889      2.00000
      3       2.3889      2.00000
      4       2.3889      2.00000
      5       4.3646      2.00000
      6       4.3646      2.00000
      7       4.3646      2.00000
      8       4.3646      2.00000
      9       4.3646      2.00000
     10       4.3646      2.00000
     11       4.3646      2.00000
     12       4.3646      2.00000
     13       5.7472      2.00000
     14       5.7472      2.00000
     15       5.7472      2.00000
     16       5.7472      2.00000
     17       5.7472      2.00000
     18       5.7472      2.00000
     19       5.7472      2.00000
     20       5.7472      2.00000
     21       6.4124      2.00000
     22       6.4124      2.00000
     23       6.4124      2.00000
     24       6.4124      2.00000
     25      11.0277      0.00000
     26      11.0277      0.00000
     27      11.0277      0.00000
     28      11.0277      0.00000
     29      28.3146      0.00000
     30      28.3146      0.00000
     31      28.3146      0.00000
     32      28.3146      0.00000
     33      29.1480      0.00000
     34      29.1480      0.00000
     35      29.1480      0.00000
     36      29.1480      0.00000
     37      29.1480      0.00000
     38      29.1480      0.00000
     39      29.1480      0.00000
     40      29.1480      0.00000
     41      32.1813      0.00000
     42      32.1813      0.00000
     43      32.1813      0.00000
     44      32.1813      0.00000
     45      32.1813      0.00000
     46      32.1813      0.00000
     47      32.1813      0.00000
     48      32.1813      0.00000


--------------------------------------------------------------------------------------------------------


 soft charge-density along one line, spin component           1
         0         1         2         3         4         5         6         7         8         9
 total charge-density along one line
 
 pseudopotential strength for first ion, spin component:           1
 -3.036   0.000   0.000  -0.000  -0.000  -4.616  -0.000   0.000
  0.000  -3.036  -0.000   0.000   0.000  -0.000  -4.616   0.000
  0.000  -0.000  -3.020   0.000   0.000   0.000   0.000  -4.627
 -0.000   0.000   0.000  -3.036  -0.000   0.000  -0.000  -0.000
 -0.000   0.000   0.000  -0.000  -3.020   0.000  -0.000  -0.000
 -4.616  -0.000   0.000   0.000   0.000  10.214   0.000  -0.000
 -0.000  -4.616   0.000  -0.000  -0.000   0.000  10.214  -0.000
  0.000   0.000  -4.627  -0.000  -0.000  -0.000  -0.000  10.222
  0.000  -0.000  -0.000  -4.616  -0.000  -0.000   0.000   0.000
  0.000  -0.000  -0.000  -0.000  -4.627  -0.000   0.000   0.000
 -0.000   0.000   0.000  -0.000   0.000   0.000   0.000  -0.000
 -0.000   0.000   0.000  -0.000   0.000   0.000   0.000  -0.000
  0.000  -0.000  -0.000  -0.000  -0.000  -0.000   0.000   0.000
 -0.000   0.000  -0.000   0.000  -0.000  -0.000   0.000   0.000
  0.000  -0.000  -0.000  -0.000   0.000   0.000  -0.000   0.000
  0.000  -0.000  -0.000   0.000  -0.000  -0.000  -0.000   0.000
  0.000   0.000  -0.000   0.000   0.000  -0.000   0.000   0.000
  0.000   0.000  -0.000  -0.000   0.000   0.000  -0.000  -0.000
 total augmentation occupancy for first ion, spin component:           1
  1.906   0.000  -0.000   0.000  -0.000  -0.016  -0.000   0.000  -0.000   0.000  -0.000  -0.000  -0.000   0.000   0.000  -0.000
  0.000   1.906   0.000   0.000  -0.000  -0.000  -0.016   0.000  -0.000   0.000   0.000  -0.000   0.000   0.000  -0.000   0.000
 -0.000   0.000   1.926   0.000   0.000   0.000  -0.000  -0.034  -0.000  -0.000  -0.000   0.000  -0.000  -0.000   0.000   0.000
  0.000   0.000   0.000   1.906   0.000  -0.000  -0.000   0.000  -0.016  -0.000  -0.000  -0.000   0.000   0.000   0.000  -0.000
 -0.000  -0.000   0.000   0.000   1.926   0.000   0.000   0.000  -0.000  -0.034  -0.000   0.000   0.000   0.000   0.000  -0.000
 -0.016  -0.000   0.000  -0.000   0.000   0.016   0.000  -0.000   0.000   0.000   0.000  -0.000   0.000   0.000   0.000  -0.000
 -0.000  -0.016  -0.000  -0.000   0.000   0.000   0.016   0.000   0.000  -0.000  -0.000  -0.000   0.000   0.000   0.000  -0.000
  0.000   0.000  -0.034   0.000  -0.000  -0.000   0.000   0.015   0.000   0.000  -0.000  -0.000  -0.000   0.000   0.000   0.000
 -0.000  -0.000   0.000  -0.016  -0.000   0.000   0.000   0.000   0.016   0.000  -0.000   0.000   0.000   0.000  -0.000   0.000
  0.000   0.000   0.000  -0.000  -0.034   0.000  -0.000   0.000   0.000   0.015   0.000  -0.000   0.000  -0.000   0.000   0.000
  0.000   0.000  -0.000  -0.000   0.000   0.000  -0.000  -0.000  -0.000   0.000   1.771  -0.170   0.000   0.000   0.000   0.000
 -0.000  -0.000   0.000  -0.000  -0.000   0.000   0.000  -0.000   0.000  -0.000  -0.170   0.022   0.000   0.000   0.000   0.000
 -0.000   0.000  -0.000   0.000  -0.000   0.000   0.000   0.000   0.000   0.000   0.000   0.000   0.231   0.000   0.000  -0.015
  0.000   0.000  -0.000   0.000   0.000   0.000   0.000  -0.000   0.000   0.000   0.000   0.000   0.000   0.231   0.000  -0.000
  0.000  -0.000   0.000   0.000   0.000   0.000   0.000  -0.000  -0.000  -0.000   0.000   0.000   0.000   0.000   0.231  -0.000
 -0.000   0.000  -0.000  -0.000   0.000  -0.000  -0.000  -0.000   0.000  -0.000   0.000   0.000  -0.015  -0.000  -0.000   0.001
  0.000   0.000  -0.000   0.000   0.000  -0.000   0.000  -0.000  -0.000   0.000   0.000   0.000  -0.000  -0.015  -0.000   0.000
  0.000   0.000  -0.000   0.000  -0.000   0.000  -0.000   0.000  -0.000   0.000  -0.000  -0.000  -0.000  -0.000  -0.015   0.000


------------------------ aborting loop because EDIFF is reached ----------------------------------------


    CHARGE:  cpu time      0.0081: real time      0.0081
    FORLOC:  cpu time      0.0001: real time      0.0001
    FORNL :  cpu time      0.0341: real time      0.0341
    STRESS:  cpu time      0.2133: real time      0.2133
    FORCOR:  cpu time      0.0019: real time      0.0020
    FORHAR:  cpu time      0.0005: real time      0.0006
    MIXING:  cpu time      0.0005: real time      0.0005
    OFIELD:  cpu time      0.0000: real time      0.0001

  FORCE on cell =-STRESS in cart. coord.  units (eV):
  Direction    XX          YY          ZZ          XY          YZ          ZX
  --------------------------------------------------------------------------------------
  Alpha Z   243.24376   243.24376   243.24376
  Ewald   -1464.35539 -1464.35539 -1464.35539    -0.00000     0.00000     0.00000
  Hartree   456.52772   456.52772   456.52772    -0.00000    -0.00000    -0.00000
  E(xc)    -257.23697  -257.23697  -257.23697     0.00000     0.00000    -0.00000
  Local     368.96130   368.96130   368.96130     0.00000     0.00000    -0.00000
  n-local   -79.06431   -87.76658   -89.09837     0.68601     2.72579     0.98018
  augment   379.30051   379.30051   379.30051    -0.00000     0.00000    -0.00000
  Kinetic   366.38754   358.01373   352.38102    -2.88465    -0.01798    -1.20671
  Fock        0.00000     0.00000     0.00000     0.00000     0.00000     0.00000
  -------------------------------------------------------------------------------------
  Total       0.05861     0.05861     0.05861     0.00000     0.00000    -0.00000
  in kB       1.95202     1.95202     1.95202     0.00000     0.00000    -0.00000
  external pressure =        1.95 kB  Pullay stress =        0.00 kB


 VOLUME and BASIS-vectors are now :
 -----------------------------------------------------------------------------
  energy-cutoff  :      384.08
  volume of cell :       48.11
      direct lattice vectors                 reciprocal lattice vectors
     3.636890000  0.000000000  0.000000000     0.274960200 -0.000000000  0.000000000
     0.000000000  3.636890000  0.000000000     0.000000000  0.274960200  0.000000000
     0.000000000  0.000000000  3.636890000    -0.000000000 -0.000000000  0.274960200

  length of vectors
     3.636890000  3.636890000  3.636890000     0.274960200  0.274960200  0.274960200


 FORCES acting on ions
    electron-ion (+dipol)            ewald-force                    non-local-force                 convergence-correction
 -----------------------------------------------------------------------------------------------
   -.461E-13 -.348E-13 -.788E-13   -.138E-13 -.565E-14 0.369E-14   0.442E-24 -.639E-24 0.345E-24   0.249E-13 0.280E-14 -.326E-13
   -.469E-13 0.703E-12 0.655E-12   -.130E-13 0.394E-14 0.628E-14   0.239E-23 0.134E-23 0.350E-23   0.327E-14 -.144E-13 0.316E-13
   0.672E-12 -.557E-13 -.101E-11   0.128E-13 -.462E-14 0.646E-14   0.425E-24 -.164E-24 0.140E-23   -.691E-13 0.422E-13 0.469E-13
   0.672E-12 0.690E-12 0.845E-12   0.136E-13 0.498E-14 -.132E-13   -.902E-24 -.951E-25 -.309E-24   -.653E-13 0.138E-13 -.272E-13
 -----------------------------------------------------------------------------------------------
   0.125E-11 0.130E-11 0.406E-12   -.323E-15 -.136E-14 0.323E-14   0.235E-23 0.444E-24 0.494E-23   -.106E-12 0.445E-13 0.187E-13
 
 
 POSITION                                       TOTAL-FORCE (eV/Angst)
 -----------------------------------------------------------------------------------
      0.00000      0.00000      0.00000         0.000000      0.000000     -0.000000
      0.00000      1.81845      1.81845        -0.000000      0.000000     -0.000000
      1.81845      0.00000      1.81845         0.000000     -0.000000     -0.000000
      1.81845      1.81845      0.00000        -0.000000      0.000000      0.000000
 -----------------------------------------------------------------------------------
    total drift:                                0.000000      0.000000      0.000000


--------------------------------------------------------------------------------------------------------



  FREE ENERGIE OF THE ION-ELECTRON SYSTEM (eV)
  ---------------------------------------------------
  free  energy   TOTEN  =       -14.93015371 eV

  energy  without entropy=      -14.92927601  energy(sigma->0) =      -14.92971486
 


--------------------------------------------------------------------------------------------------------


    POTLOK:  cpu time      0.0037: real time      0.0037


--------------------------------------------------------------------------------------------------------


 writing wavefunctions
     LOOP+:  cpu time     20.1679: real time     20.1867
    4ORBIT:  cpu time      0.0000: real time      0.0000

 total amount of memory used by VASP MPI-rank0    42238. kBytes
=======================================================================

   base      :      30000. kBytes
   nonl-proj :      10506. kBytes
   fftplans  :         78. kBytes
   grid      :        302. kBytes
   one-center:         62. kBytes
   wavefun   :       1290. kBytes
 
  
  
 General timing and accounting informations for this job:
 ========================================================
  
                  Total CPU time used (sec):       20.881
                            User time (sec):       20.377
                          System time (sec):        0.504
                         Elapsed time (sec):       21.207
  
                   Maximum memory used (kb):      225088.
                   Average memory used (kb):          N/A
  
                          Minor page faults:        23065
                          Major page faults:            0
                 Voluntary context switches:         3883
