<?xml version="1.0" encoding="ISO-8859-1"?>
<modeling>
 <generator>
  <i name="program" type="string">vasp </i>
  <i name="version" type="string">6.4.3  </i>
  <i name="subversion" type="string">19Mar24 (build Jun 26 2024 13:02:28) complex                          parallel </i>
  <i name="platform" type="string">LinuxIFC </i>
  <i name="date" type="string">2025 08 08 </i>
  <i name="time" type="string">18:19:45 </i>
 </generator>
 <incar>
  <i type="string" name="SYSTEM">Cu</i>
  <i type="int" name="IBRION">    -1</i>
  <i type="int" name="ISYM">     2</i>
  <i name="ENCUT">    384.07980000</i>
  <i type="int" name="ISMEAR">     0</i>
  <i name="SIGMA">      0.05000000</i>
  <i type="logical" name="LWAVE"> T  </i>
  <i type="logical" name="LCHARG"> T  </i>
 </incar>
 <primitive_cell>
  <structure name="primitive_cell" >
   <crystal>
    <varray name="basis" >
     <v>       1.81844500      -1.81844500       0.00000000 </v>
     <v>       1.81844500       0.00000000       1.81844500 </v>
     <v>      -0.00000000      -1.81844500       1.81844500 </v>
    </varray>
    <i name="volume">     12.02625771 </i>
    <varray name="rec_basis" >
     <v>       0.27496020      -0.27496020      -0.27496020 </v>
     <v>       0.27496020       0.27496020       0.27496020 </v>
     <v>      -0.27496020      -0.27496020       0.27496020 </v>
    </varray>
   </crystal>
   <varray name="positions" >
    <v>       0.00000000       0.00000000       0.00000000 </v>
   </varray>
  </structure>
  <varray name="primitive_index" >
   <v type="int" >        1 </v>
  </varray>
 </primitive_cell>
 <kpoints>
  <generation param="Gamma">
   <v type="int" name="divisions">      12       12       12 </v>
   <v name="usershift">      0.00000000       0.00000000       0.00000000 </v>
   <v name="genvec1">      0.08333333      -0.00000000       0.00000000 </v>
   <v name="genvec2">      0.00000000       0.08333333       0.00000000 </v>
   <v name="genvec3">      0.00000000      -0.00000000       0.08333333 </v>
   <v name="shift">      0.00000000       0.00000000       0.00000000 </v>
  </generation>
  <varray name="kpointlist" >
   <v>       0.00000000       0.00000000       0.00000000 </v>
   <v>       0.08333333       0.00000000       0.00000000 </v>
   <v>       0.16666667       0.00000000       0.00000000 </v>
   <v>       0.25000000       0.00000000       0.00000000 </v>
   <v>       0.33333333       0.00000000       0.00000000 </v>
   <v>       0.41666667       0.00000000       0.00000000 </v>
   <v>       0.50000000       0.00000000       0.00000000 </v>
   <v>       0.08333333       0.08333333       0.00000000 </v>
   <v>       0.16666667       0.08333333       0.00000000 </v>
   <v>       0.25000000       0.08333333       0.00000000 </v>
   <v>       0.33333333       0.08333333       0.00000000 </v>
   <v>       0.41666667       0.08333333       0.00000000 </v>
   <v>       0.50000000       0.08333333       0.00000000 </v>
   <v>       0.16666667       0.16666667       0.00000000 </v>
   <v>       0.25000000       0.16666667       0.00000000 </v>
   <v>       0.33333333       0.16666667       0.00000000 </v>
   <v>       0.41666667       0.16666667       0.00000000 </v>
   <v>       0.50000000       0.16666667       0.00000000 </v>
   <v>       0.25000000       0.25000000       0.00000000 </v>
   <v>       0.33333333       0.25000000       0.00000000 </v>
   <v>       0.41666667       0.25000000       0.00000000 </v>
   <v>       0.50000000       0.25000000       0.00000000 </v>
   <v>       0.33333333       0.33333333       0.00000000 </v>
   <v>       0.41666667       0.33333333       0.00000000 </v>
   <v>       0.50000000       0.33333333       0.00000000 </v>
   <v>       0.41666667       0.41666667       0.00000000 </v>
   <v>       0.50000000       0.41666667       0.00000000 </v>
   <v>       0.50000000       0.50000000       0.00000000 </v>
   <v>       0.08333333       0.08333333       0.08333333 </v>
   <v>       0.16666667       0.08333333       0.08333333 </v>
   <v>       0.25000000       0.08333333       0.08333333 </v>
   <v>       0.33333333       0.08333333       0.08333333 </v>
   <v>       0.41666667       0.08333333       0.08333333 </v>
   <v>       0.50000000       0.08333333       0.08333333 </v>
   <v>       0.16666667       0.16666667       0.08333333 </v>
   <v>       0.25000000       0.16666667       0.08333333 </v>
   <v>       0.33333333       0.16666667       0.08333333 </v>
   <v>       0.41666667       0.16666667       0.08333333 </v>
   <v>       0.50000000       0.16666667       0.08333333 </v>
   <v>       0.25000000       0.25000000       0.08333333 </v>
   <v>       0.33333333       0.25000000       0.08333333 </v>
   <v>       0.41666667       0.25000000       0.08333333 </v>
   <v>       0.50000000       0.25000000       0.08333333 </v>
   <v>       0.33333333       0.33333333       0.08333333 </v>
   <v>       0.41666667       0.33333333       0.08333333 </v>
   <v>       0.50000000       0.33333333       0.08333333 </v>
   <v>       0.41666667       0.41666667       0.08333333 </v>
   <v>       0.50000000       0.41666667       0.08333333 </v>
   <v>       0.50000000       0.50000000       0.08333333 </v>
   <v>       0.16666667       0.16666667       0.16666667 </v>
   <v>       0.25000000       0.16666667       0.16666667 </v>
   <v>       0.33333333       0.16666667       0.16666667 </v>
   <v>       0.41666667       0.16666667       0.16666667 </v>
   <v>       0.50000000       0.16666667       0.16666667 </v>
   <v>       0.25000000       0.25000000       0.16666667 </v>
   <v>       0.33333333       0.25000000       0.16666667 </v>
   <v>       0.41666667       0.25000000       0.16666667 </v>
   <v>       0.50000000       0.25000000       0.16666667 </v>
   <v>       0.33333333       0.33333333       0.16666667 </v>
   <v>       0.41666667       0.33333333       0.16666667 </v>
   <v>       0.50000000       0.33333333       0.16666667 </v>
   <v>       0.41666667       0.41666667       0.16666667 </v>
   <v>       0.50000000       0.41666667       0.16666667 </v>
   <v>       0.50000000       0.50000000       0.16666667 </v>
   <v>       0.25000000       0.25000000       0.25000000 </v>
   <v>       0.33333333       0.25000000       0.25000000 </v>
   <v>       0.41666667       0.25000000       0.25000000 </v>
   <v>       0.50000000       0.25000000       0.25000000 </v>
   <v>       0.33333333       0.33333333       0.25000000 </v>
   <v>       0.41666667       0.33333333       0.25000000 </v>
   <v>       0.50000000       0.33333333       0.25000000 </v>
   <v>       0.41666667       0.41666667       0.25000000 </v>
   <v>       0.50000000       0.41666667       0.25000000 </v>
   <v>       0.50000000       0.50000000       0.25000000 </v>
   <v>       0.33333333       0.33333333       0.33333333 </v>
   <v>       0.41666667       0.33333333       0.33333333 </v>
   <v>       0.50000000       0.33333333       0.33333333 </v>
   <v>       0.41666667       0.41666667       0.33333333 </v>
   <v>       0.50000000       0.41666667       0.33333333 </v>
   <v>       0.50000000       0.50000000       0.33333333 </v>
   <v>       0.41666667       0.41666667       0.41666667 </v>
   <v>       0.50000000       0.41666667       0.41666667 </v>
   <v>       0.50000000       0.50000000       0.41666667 </v>
   <v>       0.50000000       0.50000000       0.50000000 </v>
  </varray>
  <varray name="weights" >
   <v>       0.00057870 </v>
   <v>       0.00347222 </v>
   <v>       0.00347222 </v>
   <v>       0.00347222 </v>
   <v>       0.00347222 </v>
   <v>       0.00347222 </v>
   <v>       0.00173611 </v>
   <v>       0.00694444 </v>
   <v>       0.01388889 </v>
   <v>       0.01388889 </v>
   <v>       0.01388889 </v>
   <v>       0.01388889 </v>
   <v>       0.00694444 </v>
   <v>       0.00694444 </v>
   <v>       0.01388889 </v>
   <v>       0.01388889 </v>
   <v>       0.01388889 </v>
   <v>       0.00694444 </v>
   <v>       0.00694444 </v>
   <v>       0.01388889 </v>
   <v>       0.01388889 </v>
   <v>       0.00694444 </v>
   <v>       0.00694444 </v>
   <v>       0.01388889 </v>
   <v>       0.00694444 </v>
   <v>       0.00694444 </v>
   <v>       0.00694444 </v>
   <v>       0.00173611 </v>
   <v>       0.00462963 </v>
   <v>       0.01388889 </v>
   <v>       0.01388889 </v>
   <v>       0.01388889 </v>
   <v>       0.01388889 </v>
   <v>       0.00694444 </v>
   <v>       0.01388889 </v>
   <v>       0.02777778 </v>
   <v>       0.02777778 </v>
   <v>       0.02777778 </v>
   <v>       0.01388889 </v>
   <v>       0.01388889 </v>
   <v>       0.02777778 </v>
   <v>       0.02777778 </v>
   <v>       0.01388889 </v>
   <v>       0.01388889 </v>
   <v>       0.02777778 </v>
   <v>       0.01388889 </v>
   <v>       0.01388889 </v>
   <v>       0.01388889 </v>
   <v>       0.00347222 </v>
   <v>       0.00462963 </v>
   <v>       0.01388889 </v>
   <v>       0.01388889 </v>
   <v>       0.01388889 </v>
   <v>       0.00694444 </v>
   <v>       0.01388889 </v>
   <v>       0.02777778 </v>
   <v>       0.02777778 </v>
   <v>       0.01388889 </v>
   <v>       0.01388889 </v>
   <v>       0.02777778 </v>
   <v>       0.01388889 </v>
   <v>       0.01388889 </v>
   <v>       0.01388889 </v>
   <v>       0.00347222 </v>
   <v>       0.00462963 </v>
   <v>       0.01388889 </v>
   <v>       0.01388889 </v>
   <v>       0.00694444 </v>
   <v>       0.01388889 </v>
   <v>       0.02777778 </v>
   <v>       0.01388889 </v>
   <v>       0.01388889 </v>
   <v>       0.01388889 </v>
   <v>       0.00347222 </v>
   <v>       0.00462963 </v>
   <v>       0.01388889 </v>
   <v>       0.00694444 </v>
   <v>       0.01388889 </v>
   <v>       0.01388889 </v>
   <v>       0.00347222 </v>
   <v>       0.00462963 </v>
   <v>       0.00694444 </v>
   <v>       0.00347222 </v>
   <v>       0.00057870 </v>
  </varray>
 </kpoints>
 <parameters>
  <separator name="general" >
   <i type="string" name="SYSTEM">Cu</i>
   <i type="logical" name="LCOMPAT"> F  </i>
  </separator>
  <separator name="electronic" >
   <i type="string" name="PREC">normal</i>
   <i name="ENMAX">    384.07980000</i>
   <i name="ENAUG">    586.98000000</i>
   <i name="EDIFF">      0.00010000</i>
   <i type="int" name="IALGO">    38</i>
   <i type="int" name="IWAVPR">    10</i>
   <i type="int" name="NBANDS">    48</i>
   <i type="int" name="NBANDSLOW">    -1</i>
   <i type="int" name="NBANDSHIGH">    -1</i>
   <i name="NELECT">     44.00000000</i>
   <i type="int" name="TURBO">     0</i>
   <i type="int" name="IRESTART">     0</i>
   <i type="int" name="NREBOOT">     0</i>
   <i type="int" name="NMIN">     0</i>
   <i name="EREF">      0.00000000</i>
   <separator name="electronic smearing" >
    <i type="int" name="ISMEAR">     0</i>
    <i name="SIGMA">      0.05000000</i>
    <i name="KSPACING">      0.50000000</i>
    <i type="logical" name="KGAMMA"> T  </i>
    <i type="logical" name="KBLOWUP"> T  </i>
   </separator>
   <separator name="electronic projectors" >
    <i type="logical" name="LREAL"> F  </i>
    <v name="ROPT">      0.00000000</v>
    <i type="int" name="LMAXPAW">  -100</i>
    <i type="int" name="LMAXMIX">     2</i>
    <i type="logical" name="NLSPLINE"> F  </i>
   </separator>
   <separator name="electronic startup" >
    <i type="int" name="ISTART">     1</i>
    <i type="int" name="ICHARG">     0</i>
    <i type="int" name="INIWAV">     1</i>
   </separator>
   <separator name="electronic spin" >
    <i type="int" name="ISPIN">     1</i>
    <i type="logical" name="LNONCOLLINEAR"> F  </i>
    <v name="MAGMOM">      1.00000000      1.00000000      1.00000000      1.00000000</v>
    <i name="NUPDOWN">     -1.00000000</i>
    <i type="logical" name="LSORBIT"> F  </i>
    <v name="SAXIS">      0.00000000      0.00000000      1.00000000</v>
    <i type="logical" name="LSPIRAL"> F  </i>
    <v name="QSPIRAL">      0.00000000      0.00000000      0.00000000</v>
    <i type="logical" name="LZEROZ"> F  </i>
   </separator>
   <separator name="electronic exchange-correlation" >
    <i type="logical" name="LASPH"> F  </i>
   </separator>
   <separator name="electronic convergence" >
    <i type="int" name="NELM">    60</i>
    <i type="int" name="NELMDL">     0</i>
    <i type="int" name="NELMIN">     2</i>
    <i name="ENINI">    384.07980000</i>
    <separator name="electronic convergence detail" >
     <i type="logical" name="LDIAG"> T  </i>
     <i type="logical" name="LSUBROT"> F  </i>
     <i name="WEIMIN">      0.00000000</i>
     <i name="EBREAK">      0.00000052</i>
     <i name="DEPER">      0.30000000</i>
     <i type="int" name="NRMM">     4</i>
     <i name="TIME">      0.40000000</i>
    </separator>
   </separator>
   <separator name="electronic mixer" >
    <i name="AMIX">      0.40000000</i>
    <i name="BMIX">      1.00000000</i>
    <i name="AMIN">      0.10000000</i>
    <i name="AMIX_MAG">      1.60000000</i>
    <i name="BMIX_MAG">      1.00000000</i>
    <separator name="electronic mixer details" >
     <i type="int" name="IMIX">     4</i>
     <i type="logical" name="MIXFIRST"> F  </i>
     <i type="int" name="MAXMIX">   -45</i>
     <i name="WC">    100.00000000</i>
     <i type="int" name="INIMIX">     1</i>
     <i type="int" name="MIXPRE">     1</i>
     <i type="int" name="MREMOVE">     5</i>
    </separator>
   </separator>
   <separator name="electronic dipolcorrection" >
    <i type="logical" name="LDIPOL"> F  </i>
    <i type="logical" name="LMONO"> F  </i>
    <i type="int" name="IDIPOL">     0</i>
    <i name="EPSILON">      1.00000000</i>
    <v name="DIPOL">   -100.00000000   -100.00000000   -100.00000000</v>
    <i name="EFIELD">      0.00000000</i>
    <i type="logical" name="LVACPOTAV"> F  </i>
   </separator>
  </separator>
  <separator name="grids" >
   <i type="int" name="NGX">    18</i>
   <i type="int" name="NGY">    18</i>
   <i type="int" name="NGZ">    18</i>
   <i type="int" name="NGXF">    36</i>
   <i type="int" name="NGYF">    36</i>
   <i type="int" name="NGZF">    36</i>
   <i type="logical" name="ADDGRID"> F  </i>
  </separator>
  <separator name="ionic" >
   <i type="int" name="NSW">     0</i>
   <i type="int" name="IBRION">    -1</i>
   <i type="int" name="MDALGO">     0</i>
   <i type="int" name="ISIF">     2</i>
   <i name="PSTRESS">      0.00000000</i>
   <i name="EDIFFG">      0.00100000</i>
   <i type="int" name="NFREE">     0</i>
   <i name="POTIM">      0.50000000</i>
   <i name="SMASS">     -3.00000000</i>
   <i name="SCALEE">      1.00000000</i>
  </separator>
  <separator name="ionic md" >
   <i name="TEBEG">      0.00010000</i>
   <i name="TEEND">      0.00010000</i>
   <i type="int" name="NBLOCK">     1</i>
   <i type="int" name="KBLOCK">     1</i>
   <i type="int" name="NPACO">   256</i>
   <i name="APACO">     10.00000000</i>
  </separator>
  <separator name="symmetry" >
   <i type="int" name="ISYM">     2</i>
   <i name="SYMPREC">      0.00001000</i>
  </separator>
  <separator name="dos" >
   <i type="int" name="LORBIT">     0</i>
   <v name="RWIGS">     -1.00000000</v>
   <i type="int" name="NEDOS">   301</i>
   <i name="EMIN">     10.00000000</i>
   <i name="EMAX">    -10.00000000</i>
   <i name="EFERMI">      0.00000000</i>
  </separator>
  <separator name="writing" >
   <i type="int" name="NWRITE">     2</i>
   <i type="logical" name="LWAVE"> T  </i>
   <i type="logical" name="LDOWNSAMPLE"> F  </i>
   <i type="logical" name="LCHARG"> T  </i>
   <i type="logical" name="LPARD"> F  </i>
   <i type="logical" name="LVTOT"> F  </i>
   <i type="logical" name="LVHAR"> F  </i>
   <i type="logical" name="LELF"> F  </i>
   <i type="logical" name="LOPTICS"> F  </i>
   <v name="STM">      0.00000000      0.00000000      0.00000000      0.00000000      0.00000000      0.00000000      0.00000000</v>
  </separator>
  <separator name="performance" >
   <i type="int" name="NPAR">    48</i>
   <i type="int" name="NSIM">     4</i>
   <i type="int" name="NBLK">    -1</i>
   <i type="logical" name="LPLANE"> T  </i>
   <i type="logical" name="LSCALAPACK"> T  </i>
   <i type="logical" name="LSCAAWARE"> T  </i>
   <i type="logical" name="LSCALU"> F  </i>
   <i type="logical" name="LASYNC"> F  </i>
   <i type="logical" name="LORBITALREAL"> F  </i>
  </separator>
  <separator name="miscellaneous" >
   <i type="int" name="IDIOT">     3</i>
   <i type="int" name="PHON_NSTRUCT">    -1</i>
   <i type="logical" name="LMUSIC"> F  </i>
   <v name="POMASS">     63.54600000</v>
   <v name="DARWINR">      0.00000000</v>
   <v name="DARWINV">      1.00000000</v>
   <i type="logical" name="LCORR"> T  </i>
  </separator>
  <i type="logical" name="GGA_COMPAT"> T  </i>
  <i type="logical" name="LBERRY"> F  </i>
  <i type="int" name="ICORELEVEL">     0</i>
  <i type="logical" name="LDAU"> F  </i>
  <i type="int" name="I_CONSTRAINED_M">     0</i>
  <separator name="electronic exchange-correlation" >
   <i type="string" name="GGA    ">PE</i>
   <i type="string" name="XC_C">1</i>
   <i type="int" name="VOSKOWN">     0</i>
   <i type="logical" name="LHFCALC"> F  </i>
   <i type="string" name="PRECFOCK"></i>
   <i type="logical" name="LSYMGRAD"> F  </i>
   <i type="logical" name="LHFONE"> F  </i>
   <i type="logical" name="LRHFCALC"> F  </i>
   <i type="logical" name="LTHOMAS"> F  </i>
   <i type="logical" name="LMODELHF"> F  </i>
   <i type="logical" name="LFOCKACE"> F  </i>
   <i name="ENCUT4O">     -1.00000000</i>
   <i type="int" name="EXXOEP">     0</i>
   <i type="int" name="FOURORBIT">     0</i>
   <i name="AEXX">      0.00000000</i>
   <i name="HFALPHA">      0.00000000</i>
   <i name="MCALPHA">      0.00000000</i>
   <i name="ALDAX">      1.00000000</i>
   <i name="AGGAX">      1.00000000</i>
   <i name="AMGGAX">      1.00000000</i>
   <i name="ALDAC">      1.00000000</i>
   <i name="AGGAC">      1.00000000</i>
   <i name="AMGGAC">      1.00000000</i>
   <i type="int" name="NKREDX">     1</i>
   <i type="int" name="NKREDY">     1</i>
   <i type="int" name="NKREDZ">     1</i>
   <i type="logical" name="SHIFTRED"> F  </i>
   <i type="logical" name="ODDONLY"> F  </i>
   <i type="logical" name="EVENONLY"> F  </i>
   <i type="int" name="LMAXFOCK">     0</i>
   <i type="int" name="NMAXFOCKAE">     0</i>
   <i type="logical" name="LFOCKAEDFT"> F  </i>
   <i name="HFSCREEN">      0.00000000</i>
   <i name="HFSCREENC">      0.00000000</i>
   <i type="int" name="NBANDSGWLOW">     0</i>
  </separator>
  <separator name="vdW DFT" >
   <i type="logical" name="LUSE_VDW"> F  </i>
   <i type="int" name="IVDW_NL">    -1</i>
   <i type="logical" name="LSPIN_VDW"> F  </i>
   <i name="ZAB_VDW">     -0.84910000</i>
   <i name="GAMMA_VDW">      1.39626340</i>
   <i name="ALPHA_VDW">      0.00000000</i>
   <i name="PARAM1">      0.12340000</i>
   <i name="PARAM2">      1.00000000</i>
   <i name="BPARAM">      6.30000000</i>
   <i name="CPARAM">      0.00930000</i>
  </separator>
  <separator name="model GW" >
   <i type="int" name="MODEL_GW">     0</i>
   <i name="MODEL_EPS0">      7.21575462</i>
   <i name="MODEL_ALPHA">      1.00000000</i>
  </separator>
  <separator name="linear response parameters" >
   <i type="logical" name="LEPSILON"> F  </i>
   <i type="logical" name="LRPA"> F  </i>
   <i type="logical" name="LNABLA"> F  </i>
   <i type="logical" name="LVEL"> F  </i>
   <i name="CSHIFT">      0.10000000</i>
   <i name="OMEGAMAX">     -1.00000000</i>
   <i name="DEG_THRESHOLD">      0.00200000</i>
   <i name="RTIME">     -0.10000000</i>
   <i name="WPLASMAI">      0.00000000</i>
   <v name="DFIELD">      0.00000000      0.00000000      0.00000000</v>
   <v name="WPLASMA">      0.00000000      0.00000000      0.00000000      0.00000000      0.00000000      0.00000000      0.00000000      0.00000000      0.00000000</v>
  </separator>
  <separator name="orbital magnetization" >
   <i type="logical" name="NUCIND"> F  </i>
   <v name="MAGPOS">      0.00000000      0.00000000      0.00000000</v>
   <i type="logical" name="LNICSALL"> T  </i>
   <i type="logical" name="ORBITALMAG"> F  </i>
   <i type="logical" name="LMAGBLOCH"> F  </i>
   <i type="logical" name="LCHIMAG"> F  </i>
   <i type="logical" name="LGAUGE"> T  </i>
   <i type="int" name="MAGATOM">     0</i>
   <v name="MAGDIPOL">      0.00000000      0.00000000      0.00000000</v>
   <v name="AVECCONST">      0.00000000      0.00000000      0.00000000</v>
  </separator>
  <separator name="response functions" >
   <i type="logical" name="LALL_IN_ONE"> F  </i>
   <i type="int" name="IALL_IN_ONE">    -1</i>
   <i type="int" name="NBANDS_WAVE">    -1</i>
   <i type="logical" name="LFINITE_TEMPERATURE"> F  </i>
   <i type="logical" name="LADDER"> F  </i>
   <i type="logical" name="LRPAFORCE"> F  </i>
   <i type="logical" name="LFXC"> F  </i>
   <i type="logical" name="LHARTREE"> T  </i>
   <i type="int" name="IBSE">     0</i>
   <v type="int" name="KPOINT">    -1     0     0     0</v>
   <i type="logical" name="LTCTC"> F  </i>
   <i type="logical" name="LTCTE"> F  </i>
   <i type="logical" name="LTETE"> F  </i>
   <i type="logical" name="LTRIPLET"> F  </i>
   <i type="logical" name="LFXCEPS"> F  </i>
   <i type="logical" name="LFXHEG"> F  </i>
   <i type="int" name="NATURALO">     2</i>
   <i type="logical" name="LHOLEGF"> F  </i>
   <i type="logical" name="L2ORDER"> F  </i>
   <i type="logical" name="LDMP1"> F  </i>
   <i type="logical" name="LMP2LT"> F  </i>
   <i type="logical" name="LSMP2LT"> F  </i>
   <i type="logical" name="LGWLF"> F  </i>
   <i name="ENCUTGW">     -1.60000002</i>
   <i name="ENCUTGWSOFT">     -1.60000002</i>
   <i name="ENCUTLF">     -1.00000000</i>
   <i type="logical" name="ESF_SPLINES"> F  </i>
   <i name="ESF_CONV">      0.01000000</i>
   <i type="int" name="ESF_NINTER">    15</i>
   <i type="int" name="LMAXMP2">    -1</i>
   <i name="SCISSOR">      0.00000000</i>
   <i type="int" name="NOMEGA">     0</i>
   <i type="int" name="NOMEGAR">     0</i>
   <i type="int" name="NBANDSGW">    -1</i>
   <i type="int" name="NBANDSO">    -1</i>
   <i type="int" name="NBANDSV">    -1</i>
   <i type="int" name="NELMGW">     1</i>
   <i type="int" name="NELMHF">     1</i>
   <i type="int" name="DIM">     3</i>
   <i type="int" name="IESPILON">     4</i>
   <i type="int" name="ANTIRES">     0</i>
   <i name="OMEGAMAX">    -30.00000000</i>
   <i name="OMEGAMIN">    -30.00000000</i>
   <i name="OMEGATL">   -200.00000000</i>
   <i type="int" name="OMEGAGRID">     0</i>
   <i name="CSHIFT">     -0.10000000</i>
   <i type="logical" name="LSELFENERGY"> F  </i>
   <i type="logical" name="LSPECTRAL"> F  </i>
   <i type="logical" name="LSPECTRALGW"> F  </i>
   <i type="logical" name="LSINGLES"> F  </i>
   <i type="logical" name="LFERMIGW"> F  </i>
   <i type="logical" name="ODDONLYGW"> F  </i>
   <i type="logical" name="EVENONLYGW"> F  </i>
   <i type="int" name="NKREDLFX">     1</i>
   <i type="int" name="NKREDLFY">     1</i>
   <i type="int" name="NKREDLFZ">     1</i>
   <i type="int" name="MAXMEM">  2800</i>
   <i type="int" name="TELESCOPE">     0</i>
   <i type="int" name="NTAUPAR">    -1</i>
   <i type="int" name="NOMEGAPAR">    -1</i>
   <i name="DAMP_NEWTON">      0.80000001</i>
   <i name="LAMBDA">      1.00000000</i>
  </separator>
  <separator name="External order field" >
   <i name="OFIELD_KAPPA">      0.00000000</i>
   <v name="OFIELD_K">      0.00000000      0.00000000      0.00000000</v>
   <i name="OFIELD_Q6_NEAR">      0.00000000</i>
   <i name="OFIELD_Q6_FAR">      0.00000000</i>
   <i name="OFIELD_A">      0.00000000</i>
  </separator>
  <separator name="optional k-points parameters" >
   <i type="int" name="KPOINTS_OPT_MODE">     1</i>
   <i type="logical" name="LKPOINTS_OPT"> T  </i>
  </separator>
 </parameters>
 <atominfo>
  <atoms>       4 </atoms>
  <types>       1 </types>
  <array name="atoms" >
   <dimension dim="1">ion</dimension>
   <field type="string">element</field>
   <field type="int">atomtype</field>
   <set>
    <rc><c>Cu</c><c>   1</c></rc>
    <rc><c>Cu</c><c>   1</c></rc>
    <rc><c>Cu</c><c>   1</c></rc>
    <rc><c>Cu</c><c>   1</c></rc>
   </set>
  </array>
  <array name="atomtypes" >
   <dimension dim="1">type</dimension>
   <field type="int">atomspertype</field>
   <field type="string">element</field>
   <field>mass</field>
   <field>valence</field>
   <field type="string">pseudopotential</field>
   <set>
    <rc><c>   4</c><c>Cu</c><c>     63.54600000</c><c>     11.00000000</c><c>PAW_PBE Cu 22Jun2005                    </c></rc>
   </set>
  </array>
 </atominfo>
 <structure name="initialpos" >
  <crystal>
   <varray name="basis" >
    <v>       3.63689000       0.00000000       0.00000000 </v>
    <v>       0.00000000       3.63689000       0.00000000 </v>
    <v>       0.00000000       0.00000000       3.63689000 </v>
   </varray>
   <i name="volume">     48.10503082 </i>
   <varray name="rec_basis" >
    <v>       0.27496020      -0.00000000       0.00000000 </v>
    <v>       0.00000000       0.27496020       0.00000000 </v>
    <v>      -0.00000000      -0.00000000       0.27496020 </v>
   </varray>
  </crystal>
  <varray name="positions" >
   <v>       0.00000000       0.00000000       0.00000000 </v>
   <v>       0.00000000       0.50000000       0.50000000 </v>
   <v>       0.50000000       0.00000000       0.50000000 </v>
   <v>       0.50000000       0.50000000       0.00000000 </v>
  </varray>
 </structure>
 <calculation>
  <scstep>
   <time name="dav">    0.64    0.64</time>
   <time name="total">    0.66    0.66</time>
   <energy>
    <i name="alphaZ">    243.24376042 </i>
    <i name="ewald">  -4393.06423324 </i>
    <i name="hartreedc">  -1369.50389025 </i>
    <i name="XCdc">    178.57275259 </i>
    <i name="pawpsdc">   5241.75956691 </i>
    <i name="pawaedc">  -5672.83234513 </i>
    <i name="eentropy">     -0.00088137 </i>
    <i name="bandstr">    193.08389629 </i>
    <i name="atom">   5563.81121641 </i>
    <i name="e_fr_energy">    -14.93015739 </i>
    <i name="e_wo_entrp">    -14.92927601 </i>
    <i name="e_0_energy">    -14.92971670 </i>
   </energy>
  </scstep>
  <scstep>
   <time name="dav">    0.57    0.57</time>
   <time name="total">    0.57    0.57</time>
   <energy>
    <i name="alphaZ">    243.24376042 </i>
    <i name="ewald">  -4393.06423324 </i>
    <i name="hartreedc">  -1369.37450728 </i>
    <i name="XCdc">    178.56619958 </i>
    <i name="pawpsdc">   5241.65024908 </i>
    <i name="pawaedc">  -5672.67629453 </i>
    <i name="eentropy">     -0.00087770 </i>
    <i name="bandstr">    192.91433355 </i>
    <i name="atom">   5563.81121641 </i>
    <i name="e_fr_energy">    -14.93015371 </i>
    <i name="e_wo_entrp">    -14.92927601 </i>
    <i name="e_0_energy">    -14.92971486 </i>
   </energy>
  </scstep>
  <structure>
   <crystal>
    <varray name="basis" >
     <v>       3.63689000       0.00000000       0.00000000 </v>
     <v>       0.00000000       3.63689000       0.00000000 </v>
     <v>       0.00000000       0.00000000       3.63689000 </v>
    </varray>
    <i name="volume">     48.10503082 </i>
    <varray name="rec_basis" >
     <v>       0.27496020      -0.00000000       0.00000000 </v>
     <v>       0.00000000       0.27496020       0.00000000 </v>
     <v>      -0.00000000      -0.00000000       0.27496020 </v>
    </varray>
   </crystal>
   <varray name="positions" >
    <v>       0.00000000       0.00000000       0.00000000 </v>
    <v>       0.00000000       0.50000000       0.50000000 </v>
    <v>       0.50000000       0.00000000       0.50000000 </v>
    <v>       0.50000000       0.50000000       0.00000000 </v>
   </varray>
  </structure>
  <varray name="forces" >
   <v>       0.00000000       0.00000000      -0.00000000 </v>
   <v>      -0.00000000       0.00000000      -0.00000000 </v>
   <v>       0.00000000      -0.00000000      -0.00000000 </v>
   <v>      -0.00000000       0.00000000       0.00000000 </v>
  </varray>
  <varray name="stress" >
   <v>       1.95201918      -0.00000000      -0.00000000 </v>
   <v>       0.00000000       1.95201918       0.00000000 </v>
   <v>       0.00000000       0.00000000       1.95201918 </v>
  </varray>
  <energy>
   <i name="e_fr_energy">    -14.93015371 </i>
   <i name="e_wo_entrp">    -14.92927601 </i>
   <i name="e_0_energy">    -14.92971486 </i>
  </energy>
  <dos comment="kpoints_opt">
   <i name="efermi">      7.18483160 </i>
   <total>
    <array>
     <dimension dim="1">gridpoints</dimension>
     <dimension dim="2">spin</dimension>
     <field>energy</field>
     <field>total</field>
     <field>integrated</field>
     <set>
      <set comment="spin 1">
       <r>    -4.1051     0.0000     0.0000 </r>
       <r>    -3.9400     0.0000     0.0000 </r>
       <r>    -3.7748     0.0000     0.0000 </r>
       <r>    -3.6097     0.0000     0.0000 </r>
       <r>    -3.4445     0.0000     0.0000 </r>
       <r>    -3.2794     0.0000     0.0000 </r>
       <r>    -3.1142     0.0000     0.0000 </r>
       <r>    -2.9491     0.0000     0.0000 </r>
       <r>    -2.7839     0.0000     0.0000 </r>
       <r>    -2.6188     0.0000     0.0000 </r>
       <r>    -2.4536     0.0000     0.0000 </r>
       <r>    -2.2885     0.0000     0.0000 </r>
       <r>    -2.1233     0.0000     0.0000 </r>
       <r>    -1.9582     0.0005     0.0001 </r>
       <r>    -1.7930     0.7389     0.1221 </r>
       <r>    -1.6278     0.6963     0.2371 </r>
       <r>    -1.4627     0.4357     0.3091 </r>
       <r>    -1.2975     0.3521     0.3672 </r>
       <r>    -1.1324     0.2993     0.4166 </r>
       <r>    -0.9672     0.2771     0.4624 </r>
       <r>    -0.8021     0.2434     0.5026 </r>
       <r>    -0.6369     0.2294     0.5405 </r>
       <r>    -0.4718     0.2294     0.5784 </r>
       <r>    -0.3066     0.2079     0.6127 </r>
       <r>    -0.1415     0.2105     0.6475 </r>
       <r>     0.0237     0.1874     0.6784 </r>
       <r>     0.1888     0.1819     0.7085 </r>
       <r>     0.3540     0.1894     0.7397 </r>
       <r>     0.5191     0.1822     0.7698 </r>
       <r>     0.6843     0.1674     0.7975 </r>
       <r>     0.8494     0.1601     0.8239 </r>
       <r>     1.0146     0.1629     0.8508 </r>
       <r>     1.1797     0.1712     0.8791 </r>
       <r>     1.3449     0.1780     0.9085 </r>
       <r>     1.5100     0.1839     0.9389 </r>
       <r>     1.6752     0.8371     1.0771 </r>
       <r>     1.8403     0.9931     1.2411 </r>
       <r>     2.0055     0.8652     1.3840 </r>
       <r>     2.1706     0.8474     1.5240 </r>
       <r>     2.3358     0.8172     1.6590 </r>
       <r>     2.5009     0.8578     1.8006 </r>
       <r>     2.6661     7.4676     3.0339 </r>
       <r>     2.8312    16.1593     5.7026 </r>
       <r>     2.9964     8.0411     7.0306 </r>
       <r>     3.1615     9.4383     8.5894 </r>
       <r>     3.3267     4.9935     9.4141 </r>
       <r>     3.4919     3.7206    10.0285 </r>
       <r>     3.6570     2.4574    10.4344 </r>
       <r>     3.8222     2.4227    10.8345 </r>
       <r>     3.9873    12.9759    12.9775 </r>
       <r>     4.1525    21.3738    16.5074 </r>
       <r>     4.3176    15.3296    19.0391 </r>
       <r>     4.4828    16.8373    21.8198 </r>
       <r>     4.6479    11.6024    23.7360 </r>
       <r>     4.8131    12.8881    25.8645 </r>
       <r>     4.9782    13.0238    28.0154 </r>
       <r>     5.1434     7.3477    29.2289 </r>
       <r>     5.3085    17.8082    32.1699 </r>
       <r>     5.4737    12.6531    34.2596 </r>
       <r>     5.6388    14.8789    36.7169 </r>
       <r>     5.8040    16.8424    39.4984 </r>
       <r>     5.9691     9.9472    41.1412 </r>
       <r>     6.1343     1.0210    41.3098 </r>
       <r>     6.2994     0.8824    41.4556 </r>
       <r>     6.4646     0.8234    41.5916 </r>
       <r>     6.6297     0.7490    41.7153 </r>
       <r>     6.7949     0.7155    41.8334 </r>
       <r>     6.9600     0.9397    41.9886 </r>
       <r>     7.1252     9.9277    43.6282 </r>
       <r>     7.2903     5.0231    44.4578 </r>
       <r>     7.4555     2.3200    44.8409 </r>
       <r>     7.6206     1.6662    45.1161 </r>
       <r>     7.7858     1.5064    45.3649 </r>
       <r>     7.9509     1.2924    45.5783 </r>
       <r>     8.1161     1.2859    45.7907 </r>
       <r>     8.2812     1.2211    45.9924 </r>
       <r>     8.4464     1.1168    46.1768 </r>
       <r>     8.6115     1.2635    46.3855 </r>
       <r>     8.7767     1.4479    46.6246 </r>
       <r>     8.9419     2.7898    47.0853 </r>
       <r>     9.1070     0.9188    47.2371 </r>
       <r>     9.2722     0.4050    47.3040 </r>
       <r>     9.4373     0.3600    47.3634 </r>
       <r>     9.6025     0.3175    47.4159 </r>
       <r>     9.7676     0.3750    47.4778 </r>
       <r>     9.9328     0.2522    47.5194 </r>
       <r>    10.0979     0.3551    47.5781 </r>
       <r>    10.2631     0.2771    47.6239 </r>
       <r>    10.4282     0.3055    47.6743 </r>
       <r>    10.5934     0.3604    47.7338 </r>
       <r>    10.7585     0.3613    47.7935 </r>
       <r>    10.9237     0.3637    47.8536 </r>
       <r>    11.0888     0.0848    47.8676 </r>
       <r>    11.2540     0.1551    47.8932 </r>
       <r>    11.4191     0.4116    47.9612 </r>
       <r>    11.5843     0.5652    48.0545 </r>
       <r>    11.7494     0.3736    48.1162 </r>
       <r>    11.9146     0.4279    48.1869 </r>
       <r>    12.0797     0.6232    48.2898 </r>
       <r>    12.2449     0.4484    48.3639 </r>
       <r>    12.4100     0.4441    48.4372 </r>
       <r>    12.5752     0.3586    48.4964 </r>
       <r>    12.7403     0.4215    48.5660 </r>
       <r>    12.9055     0.3767    48.6282 </r>
       <r>    13.0706     0.4077    48.6956 </r>
       <r>    13.2358     0.7487    48.8192 </r>
       <r>    13.4009     1.4217    49.0540 </r>
       <r>    13.5661     1.1672    49.2468 </r>
       <r>    13.7312     1.1258    49.4327 </r>
       <r>    13.8964     1.0021    49.5982 </r>
       <r>    14.0616     0.9298    49.7518 </r>
       <r>    14.2267     0.8938    49.8994 </r>
       <r>    14.3919     2.3577    50.2888 </r>
       <r>    14.5570     2.7616    50.7449 </r>
       <r>    14.7222     1.7265    51.0300 </r>
       <r>    14.8873     1.2488    51.2362 </r>
       <r>    15.0525     1.7042    51.5177 </r>
       <r>    15.2176     1.3528    51.7411 </r>
       <r>    15.3828     1.0847    51.9203 </r>
       <r>    15.5479     1.4537    52.1603 </r>
       <r>    15.7131     1.1472    52.3498 </r>
       <r>    15.8782     1.2366    52.5540 </r>
       <r>    16.0434     1.7173    52.8376 </r>
       <r>    16.2085     1.6901    53.1168 </r>
       <r>    16.3737     1.6847    53.3950 </r>
       <r>    16.5388     1.2808    53.6065 </r>
       <r>    16.7040     1.7153    53.8898 </r>
       <r>    16.8691     1.4697    54.1325 </r>
       <r>    17.0343     3.0898    54.6428 </r>
       <r>    17.1994     1.7355    54.9295 </r>
       <r>    17.3646     1.1093    55.1127 </r>
       <r>    17.5297     0.9632    55.2717 </r>
       <r>    17.6949     0.9826    55.4340 </r>
       <r>    17.8600     0.7396    55.5562 </r>
       <r>    18.0252     1.1658    55.7487 </r>
       <r>    18.1903     3.1193    56.2639 </r>
       <r>    18.3555     2.6891    56.7080 </r>
       <r>    18.5206     2.2049    57.0721 </r>
       <r>    18.6858     1.8835    57.3832 </r>
       <r>    18.8509     1.9760    57.7095 </r>
       <r>    19.0161     1.4620    57.9510 </r>
       <r>    19.1813     1.5900    58.2135 </r>
       <r>    19.3464     1.7462    58.5019 </r>
       <r>    19.5116     1.5632    58.7601 </r>
       <r>    19.6767     1.8420    59.0643 </r>
       <r>    19.8419     1.5449    59.3194 </r>
       <r>    20.0070     1.9400    59.6398 </r>
       <r>    20.1722     1.9241    59.9576 </r>
       <r>    20.3373     4.5903    60.7157 </r>
       <r>    20.5025     3.0841    61.2250 </r>
       <r>    20.6676     1.8966    61.5383 </r>
       <r>    20.8328     1.5658    61.7969 </r>
       <r>    20.9979     1.5930    62.0600 </r>
       <r>    21.1631     1.3013    62.2749 </r>
       <r>    21.3282     1.3920    62.5048 </r>
       <r>    21.4934     1.3120    62.7214 </r>
       <r>    21.6585     1.1619    62.9133 </r>
       <r>    21.8237     1.0808    63.0918 </r>
       <r>    21.9888     1.1632    63.2839 </r>
       <r>    22.1540     0.9864    63.4468 </r>
       <r>    22.3191     1.0815    63.6254 </r>
       <r>    22.4843     1.0963    63.8065 </r>
       <r>    22.6494     0.8113    63.9405 </r>
       <r>    22.8146     1.0435    64.1128 </r>
       <r>    22.9797     0.9530    64.2702 </r>
       <r>    23.1449     0.9154    64.4214 </r>
       <r>    23.3100     0.9249    64.5741 </r>
       <r>    23.4752     1.1027    64.7563 </r>
       <r>    23.6403     0.8477    64.8963 </r>
       <r>    23.8055     0.6802    65.0086 </r>
       <r>    23.9706     0.5075    65.0924 </r>
       <r>    24.1358     0.7876    65.2225 </r>
       <r>    24.3009     1.2425    65.4277 </r>
       <r>    24.4661     0.8923    65.5750 </r>
       <r>    24.6313     0.9990    65.7400 </r>
       <r>    24.7964     1.7054    66.0217 </r>
       <r>    24.9616     2.1384    66.3748 </r>
       <r>    25.1267     1.4181    66.6090 </r>
       <r>    25.2919     1.4797    66.8534 </r>
       <r>    25.4570     1.7078    67.1354 </r>
       <r>    25.6222     1.9730    67.4613 </r>
       <r>    25.7873     2.1100    67.8098 </r>
       <r>    25.9525     1.9357    68.1294 </r>
       <r>    26.1176     1.9270    68.4477 </r>
       <r>    26.2828     2.1105    68.7962 </r>
       <r>    26.4479     1.7511    69.0854 </r>
       <r>    26.6131     1.7658    69.3771 </r>
       <r>    26.7782     1.6794    69.6544 </r>
       <r>    26.9434     1.6073    69.9199 </r>
       <r>    27.1085     1.5054    70.1685 </r>
       <r>    27.2737     1.7734    70.4614 </r>
       <r>    27.4388     2.9821    70.9539 </r>
       <r>    27.6040     3.4699    71.5269 </r>
       <r>    27.7691     2.6970    71.9723 </r>
       <r>    27.9343     2.4722    72.3806 </r>
       <r>    28.0994     1.8735    72.6900 </r>
       <r>    28.2646     1.9171    73.0066 </r>
       <r>    28.4297     1.7540    73.2963 </r>
       <r>    28.5949     1.5552    73.5531 </r>
       <r>    28.7600     1.7567    73.8433 </r>
       <r>    28.9252     2.7885    74.3038 </r>
       <r>    29.0903     2.4502    74.7085 </r>
       <r>    29.2555     2.5420    75.1283 </r>
       <r>    29.4206     2.2992    75.5080 </r>
       <r>    29.5858     2.5632    75.9313 </r>
       <r>    29.7510     2.8565    76.4031 </r>
       <r>    29.9161     3.9385    77.0535 </r>
       <r>    30.0813     2.1684    77.4116 </r>
       <r>    30.2464     1.9907    77.7404 </r>
       <r>    30.4116     1.6242    78.0087 </r>
       <r>    30.5767     2.1193    78.3587 </r>
       <r>    30.7419     2.7755    78.8170 </r>
       <r>    30.9070     1.6737    79.0935 </r>
       <r>    31.0722     0.7276    79.2136 </r>
       <r>    31.2373     0.7576    79.3387 </r>
       <r>    31.4025     1.1947    79.5360 </r>
       <r>    31.5676     2.0305    79.8714 </r>
       <r>    31.7328     1.0036    80.0371 </r>
       <r>    31.8979     1.0762    80.2149 </r>
       <r>    32.0631     0.9174    80.3664 </r>
       <r>    32.2282     0.8563    80.5078 </r>
       <r>    32.3934     2.4358    80.9101 </r>
       <r>    32.5585     1.4517    81.1498 </r>
       <r>    32.7237     1.0948    81.3306 </r>
       <r>    32.8888     1.7394    81.6179 </r>
       <r>    33.0540     1.0923    81.7983 </r>
       <r>    33.2191     1.3128    82.0151 </r>
       <r>    33.3843     0.8446    82.1546 </r>
       <r>    33.5494     0.6545    82.2627 </r>
       <r>    33.7146     0.9205    82.4147 </r>
       <r>    33.8797     0.8681    82.5581 </r>
       <r>    34.0449     1.0869    82.7376 </r>
       <r>    34.2100     2.4547    83.1430 </r>
       <r>    34.3752     2.4117    83.5413 </r>
       <r>    34.5403     2.1686    83.8994 </r>
       <r>    34.7055     2.2862    84.2770 </r>
       <r>    34.8706     4.0513    84.9461 </r>
       <r>    35.0358     3.1877    85.4725 </r>
       <r>    35.2010     2.9839    85.9653 </r>
       <r>    35.3661     2.6024    86.3951 </r>
       <r>    35.5313     2.0237    86.7293 </r>
       <r>    35.6964     1.7336    87.0156 </r>
       <r>    35.8616     2.1886    87.3771 </r>
       <r>    36.0267     1.5644    87.6354 </r>
       <r>    36.1919     1.7350    87.9220 </r>
       <r>    36.3570     1.0966    88.1031 </r>
       <r>    36.5222     1.6099    88.3690 </r>
       <r>    36.6873     1.1266    88.5550 </r>
       <r>    36.8525     1.5049    88.8036 </r>
       <r>    37.0176     1.3186    89.0213 </r>
       <r>    37.1828     1.8777    89.3314 </r>
       <r>    37.3479     2.9622    89.8206 </r>
       <r>    37.5131     2.1875    90.1819 </r>
       <r>    37.6782     1.8280    90.4838 </r>
       <r>    37.8434     1.9096    90.7992 </r>
       <r>    38.0085     2.8613    91.2717 </r>
       <r>    38.1737     3.6545    91.8753 </r>
       <r>    38.3388     3.2816    92.4172 </r>
       <r>    38.5040     2.6211    92.8501 </r>
       <r>    38.6691     2.9356    93.3349 </r>
       <r>    38.8343     2.4588    93.7410 </r>
       <r>    38.9994     2.1692    94.0993 </r>
       <r>    39.1646     2.8509    94.5701 </r>
       <r>    39.3297     1.0261    94.7396 </r>
       <r>    39.4949     0.3835    94.8029 </r>
       <r>    39.6600     0.7038    94.9191 </r>
       <r>    39.8252     0.6061    95.0192 </r>
       <r>    39.9903     0.2927    95.0676 </r>
       <r>    40.1555     0.5616    95.1603 </r>
       <r>    40.3207     0.6730    95.2715 </r>
       <r>    40.4858     0.5220    95.3577 </r>
       <r>    40.6510     1.0810    95.5362 </r>
       <r>    40.8161     0.7215    95.6554 </r>
       <r>    40.9813     0.3663    95.7159 </r>
       <r>    41.1464     0.2444    95.7562 </r>
       <r>    41.3116     0.1359    95.7787 </r>
       <r>    41.4767     0.0696    95.7902 </r>
       <r>    41.6419     0.2237    95.8271 </r>
       <r>    41.8070     0.0694    95.8386 </r>
       <r>    41.9722     0.0863    95.8528 </r>
       <r>    42.1373     0.1496    95.8775 </r>
       <r>    42.3025     0.0051    95.8784 </r>
       <r>    42.4676     0.1392    95.9014 </r>
       <r>    42.6328     0.0320    95.9067 </r>
       <r>    42.7979     0.0834    95.9204 </r>
       <r>    42.9631     0.1334    95.9425 </r>
       <r>    43.1282     0.1402    95.9656 </r>
       <r>    43.2934     0.2078    96.0000 </r>
       <r>    43.4585     0.0002    96.0000 </r>
       <r>    43.6237     0.0000    96.0000 </r>
       <r>    43.7888     0.0000    96.0000 </r>
       <r>    43.9540     0.0000    96.0000 </r>
       <r>    44.1191     0.0000    96.0000 </r>
       <r>    44.2843     0.0000    96.0000 </r>
       <r>    44.4494     0.0000    96.0000 </r>
       <r>    44.6146     0.0000    96.0000 </r>
       <r>    44.7797     0.0000    96.0000 </r>
       <r>    44.9449     0.0000    96.0000 </r>
       <r>    45.1100     0.0000    96.0000 </r>
       <r>    45.2752     0.0000    96.0000 </r>
       <r>    45.4404     0.0000    96.0000 </r>
      </set>
     </set>
    </array>
   </total>
  </dos>
  <eigenvalues_kpoints_opt comment="kpoints_opt">
   <kpoints>
    <varray name="kpointlist" >
     <v>       0.00000000       0.00000000       0.00000000 </v>
     <v>       0.01041667       0.00000000       0.01041667 </v>
     <v>       0.02083333       0.00000000       0.02083333 </v>
     <v>       0.03125000       0.00000000       0.03125000 </v>
     <v>       0.04166667       0.00000000       0.04166667 </v>
     <v>       0.05208333       0.00000000       0.05208333 </v>
     <v>       0.06250000       0.00000000       0.06250000 </v>
     <v>       0.07291667       0.00000000       0.07291667 </v>
     <v>       0.08333333       0.00000000       0.08333333 </v>
     <v>       0.09375000       0.00000000       0.09375000 </v>
     <v>       0.10416667       0.00000000       0.10416667 </v>
     <v>       0.11458333       0.00000000       0.11458333 </v>
     <v>       0.12500000       0.00000000       0.12500000 </v>
     <v>       0.13541667       0.00000000       0.13541667 </v>
     <v>       0.14583333       0.00000000       0.14583333 </v>
     <v>       0.15625000       0.00000000       0.15625000 </v>
     <v>       0.16666667       0.00000000       0.16666667 </v>
     <v>       0.17708333       0.00000000       0.17708333 </v>
     <v>       0.18750000       0.00000000       0.18750000 </v>
     <v>       0.19791667       0.00000000       0.19791667 </v>
     <v>       0.20833333       0.00000000       0.20833333 </v>
     <v>       0.21875000       0.00000000       0.21875000 </v>
     <v>       0.22916667       0.00000000       0.22916667 </v>
     <v>       0.23958333       0.00000000       0.23958333 </v>
     <v>       0.25000000       0.00000000       0.25000000 </v>
     <v>       0.26041667       0.00000000       0.26041667 </v>
     <v>       0.27083333       0.00000000       0.27083333 </v>
     <v>       0.28125000       0.00000000       0.28125000 </v>
     <v>       0.29166667       0.00000000       0.29166667 </v>
     <v>       0.30208333       0.00000000       0.30208333 </v>
     <v>       0.31250000       0.00000000       0.31250000 </v>
     <v>       0.32291667       0.00000000       0.32291667 </v>
     <v>       0.33333333       0.00000000       0.33333333 </v>
     <v>       0.34375000       0.00000000       0.34375000 </v>
     <v>       0.35416667       0.00000000       0.35416667 </v>
     <v>       0.36458333       0.00000000       0.36458333 </v>
     <v>       0.37500000       0.00000000       0.37500000 </v>
     <v>       0.38541667       0.00000000       0.38541667 </v>
     <v>       0.39583333       0.00000000       0.39583333 </v>
     <v>       0.40625000       0.00000000       0.40625000 </v>
     <v>       0.41666667       0.00000000       0.41666667 </v>
     <v>       0.42708333       0.00000000       0.42708333 </v>
     <v>       0.43750000       0.00000000       0.43750000 </v>
     <v>       0.44791667       0.00000000       0.44791667 </v>
     <v>       0.45833333       0.00000000       0.45833333 </v>
     <v>       0.46875000       0.00000000       0.46875000 </v>
     <v>       0.47916667       0.00000000       0.47916667 </v>
     <v>       0.48958333       0.00000000       0.48958333 </v>
     <v>       0.50000000       0.00000000       0.50000000 </v>
     <v>       0.50000000       0.00000000       0.50000000 </v>
     <v>       0.50260417       0.00520833       0.50260417 </v>
     <v>       0.50520833       0.01041667       0.50520833 </v>
     <v>       0.50781250       0.01562500       0.50781250 </v>
     <v>       0.51041667       0.02083333       0.51041667 </v>
     <v>       0.51302083       0.02604167       0.51302083 </v>
     <v>       0.51562500       0.03125000       0.51562500 </v>
     <v>       0.51822917       0.03645833       0.51822917 </v>
     <v>       0.52083333       0.04166667       0.52083333 </v>
     <v>       0.52343750       0.04687500       0.52343750 </v>
     <v>       0.52604167       0.05208333       0.52604167 </v>
     <v>       0.52864583       0.05729167       0.52864583 </v>
     <v>       0.53125000       0.06250000       0.53125000 </v>
     <v>       0.53385417       0.06770833       0.53385417 </v>
     <v>       0.53645833       0.07291667       0.53645833 </v>
     <v>       0.53906250       0.07812500       0.53906250 </v>
     <v>       0.54166667       0.08333333       0.54166667 </v>
     <v>       0.54427083       0.08854167       0.54427083 </v>
     <v>       0.54687500       0.09375000       0.54687500 </v>
     <v>       0.54947917       0.09895833       0.54947917 </v>
     <v>       0.55208333       0.10416667       0.55208333 </v>
     <v>       0.55468750       0.10937500       0.55468750 </v>
     <v>       0.55729167       0.11458333       0.55729167 </v>
     <v>       0.55989583       0.11979167       0.55989583 </v>
     <v>       0.56250000       0.12500000       0.56250000 </v>
     <v>       0.56510417       0.13020833       0.56510417 </v>
     <v>       0.56770833       0.13541667       0.56770833 </v>
     <v>       0.57031250       0.14062500       0.57031250 </v>
     <v>       0.57291667       0.14583333       0.57291667 </v>
     <v>       0.57552083       0.15104167       0.57552083 </v>
     <v>       0.57812500       0.15625000       0.57812500 </v>
     <v>       0.58072917       0.16145833       0.58072917 </v>
     <v>       0.58333333       0.16666667       0.58333333 </v>
     <v>       0.58593750       0.17187500       0.58593750 </v>
     <v>       0.58854167       0.17708333       0.58854167 </v>
     <v>       0.59114583       0.18229167       0.59114583 </v>
     <v>       0.59375000       0.18750000       0.59375000 </v>
     <v>       0.59635417       0.19270833       0.59635417 </v>
     <v>       0.59895833       0.19791667       0.59895833 </v>
     <v>       0.60156250       0.20312500       0.60156250 </v>
     <v>       0.60416667       0.20833333       0.60416667 </v>
     <v>       0.60677083       0.21354167       0.60677083 </v>
     <v>       0.60937500       0.21875000       0.60937500 </v>
     <v>       0.61197917       0.22395833       0.61197917 </v>
     <v>       0.61458333       0.22916667       0.61458333 </v>
     <v>       0.61718750       0.23437500       0.61718750 </v>
     <v>       0.61979167       0.23958333       0.61979167 </v>
     <v>       0.62239583       0.24479167       0.62239583 </v>
     <v>       0.62500000       0.25000000       0.62500000 </v>
     <v>       0.62500000       0.25000000       0.62500000 </v>
     <v>       0.61197917       0.24479167       0.61197917 </v>
     <v>       0.59895833       0.23958333       0.59895833 </v>
     <v>       0.58593750       0.23437500       0.58593750 </v>
     <v>       0.57291667       0.22916667       0.57291667 </v>
     <v>       0.55989583       0.22395833       0.55989583 </v>
     <v>       0.54687500       0.21875000       0.54687500 </v>
     <v>       0.53385417       0.21354167       0.53385417 </v>
     <v>       0.52083333       0.20833333       0.52083333 </v>
     <v>       0.50781250       0.20312500       0.50781250 </v>
     <v>       0.49479167       0.19791667       0.49479167 </v>
     <v>       0.48177083       0.19270833       0.48177083 </v>
     <v>       0.46875000       0.18750000       0.46875000 </v>
     <v>       0.45572917       0.18229167       0.45572917 </v>
     <v>       0.44270833       0.17708333       0.44270833 </v>
     <v>       0.42968750       0.17187500       0.42968750 </v>
     <v>       0.41666667       0.16666667       0.41666667 </v>
     <v>       0.40364583       0.16145833       0.40364583 </v>
     <v>       0.39062500       0.15625000       0.39062500 </v>
     <v>       0.37760417       0.15104167       0.37760417 </v>
     <v>       0.36458333       0.14583333       0.36458333 </v>
     <v>       0.35156250       0.14062500       0.35156250 </v>
     <v>       0.33854167       0.13541667       0.33854167 </v>
     <v>       0.32552083       0.13020833       0.32552083 </v>
     <v>       0.31250000       0.12500000       0.31250000 </v>
     <v>       0.29947917       0.11979167       0.29947917 </v>
     <v>       0.28645833       0.11458333       0.28645833 </v>
     <v>       0.27343750       0.10937500       0.27343750 </v>
     <v>       0.26041667       0.10416667       0.26041667 </v>
     <v>       0.24739583       0.09895833       0.24739583 </v>
     <v>       0.23437500       0.09375000       0.23437500 </v>
     <v>       0.22135417       0.08854167       0.22135417 </v>
     <v>       0.20833333       0.08333333       0.20833333 </v>
     <v>       0.19531250       0.07812500       0.19531250 </v>
     <v>       0.18229167       0.07291667       0.18229167 </v>
     <v>       0.16927083       0.06770833       0.16927083 </v>
     <v>       0.15625000       0.06250000       0.15625000 </v>
     <v>       0.14322917       0.05729167       0.14322917 </v>
     <v>       0.13020833       0.05208333       0.13020833 </v>
     <v>       0.11718750       0.04687500       0.11718750 </v>
     <v>       0.10416667       0.04166667       0.10416667 </v>
     <v>       0.09114583       0.03645833       0.09114583 </v>
     <v>       0.07812500       0.03125000       0.07812500 </v>
     <v>       0.06510417       0.02604167       0.06510417 </v>
     <v>       0.05208333       0.02083333       0.05208333 </v>
     <v>       0.03906250       0.01562500       0.03906250 </v>
     <v>       0.02604167       0.01041667       0.02604167 </v>
     <v>       0.01302083       0.00520833       0.01302083 </v>
     <v>      -0.00000000       0.00000000      -0.00000000 </v>
    </varray>
    <varray name="weights" >
     <v>       0.00680272 </v>
     <v>       0.00680272 </v>
     <v>       0.00680272 </v>
     <v>       0.00680272 </v>
     <v>       0.00680272 </v>
     <v>       0.00680272 </v>
     <v>       0.00680272 </v>
     <v>       0.00680272 </v>
     <v>       0.00680272 </v>
     <v>       0.00680272 </v>
     <v>       0.00680272 </v>
     <v>       0.00680272 </v>
     <v>       0.00680272 </v>
     <v>       0.00680272 </v>
     <v>       0.00680272 </v>
     <v>       0.00680272 </v>
     <v>       0.00680272 </v>
     <v>       0.00680272 </v>
     <v>       0.00680272 </v>
     <v>       0.00680272 </v>
     <v>       0.00680272 </v>
     <v>       0.00680272 </v>
     <v>       0.00680272 </v>
     <v>       0.00680272 </v>
     <v>       0.00680272 </v>
     <v>       0.00680272 </v>
     <v>       0.00680272 </v>
     <v>       0.00680272 </v>
     <v>       0.00680272 </v>
     <v>       0.00680272 </v>
     <v>       0.00680272 </v>
     <v>       0.00680272 </v>
     <v>       0.00680272 </v>
     <v>       0.00680272 </v>
     <v>       0.00680272 </v>
     <v>       0.00680272 </v>
     <v>       0.00680272 </v>
     <v>       0.00680272 </v>
     <v>       0.00680272 </v>
     <v>       0.00680272 </v>
     <v>       0.00680272 </v>
     <v>       0.00680272 </v>
     <v>       0.00680272 </v>
     <v>       0.00680272 </v>
     <v>       0.00680272 </v>
     <v>       0.00680272 </v>
     <v>       0.00680272 </v>
     <v>       0.00680272 </v>
     <v>       0.00680272 </v>
     <v>       0.00680272 </v>
     <v>       0.00680272 </v>
     <v>       0.00680272 </v>
     <v>       0.00680272 </v>
     <v>       0.00680272 </v>
     <v>       0.00680272 </v>
     <v>       0.00680272 </v>
     <v>       0.00680272 </v>
     <v>       0.00680272 </v>
     <v>       0.00680272 </v>
     <v>       0.00680272 </v>
     <v>       0.00680272 </v>
     <v>       0.00680272 </v>
     <v>       0.00680272 </v>
     <v>       0.00680272 </v>
     <v>       0.00680272 </v>
     <v>       0.00680272 </v>
     <v>       0.00680272 </v>
     <v>       0.00680272 </v>
     <v>       0.00680272 </v>
     <v>       0.00680272 </v>
     <v>       0.00680272 </v>
     <v>       0.00680272 </v>
     <v>       0.00680272 </v>
     <v>       0.00680272 </v>
     <v>       0.00680272 </v>
     <v>       0.00680272 </v>
     <v>       0.00680272 </v>
     <v>       0.00680272 </v>
     <v>       0.00680272 </v>
     <v>       0.00680272 </v>
     <v>       0.00680272 </v>
     <v>       0.00680272 </v>
     <v>       0.00680272 </v>
     <v>       0.00680272 </v>
     <v>       0.00680272 </v>
     <v>       0.00680272 </v>
     <v>       0.00680272 </v>
     <v>       0.00680272 </v>
     <v>       0.00680272 </v>
     <v>       0.00680272 </v>
     <v>       0.00680272 </v>
     <v>       0.00680272 </v>
     <v>       0.00680272 </v>
     <v>       0.00680272 </v>
     <v>       0.00680272 </v>
     <v>       0.00680272 </v>
     <v>       0.00680272 </v>
     <v>       0.00680272 </v>
     <v>       0.00680272 </v>
     <v>       0.00680272 </v>
     <v>       0.00680272 </v>
     <v>       0.00680272 </v>
     <v>       0.00680272 </v>
     <v>       0.00680272 </v>
     <v>       0.00680272 </v>
     <v>       0.00680272 </v>
     <v>       0.00680272 </v>
     <v>       0.00680272 </v>
     <v>       0.00680272 </v>
     <v>       0.00680272 </v>
     <v>       0.00680272 </v>
     <v>       0.00680272 </v>
     <v>       0.00680272 </v>
     <v>       0.00680272 </v>
     <v>       0.00680272 </v>
     <v>       0.00680272 </v>
     <v>       0.00680272 </v>
     <v>       0.00680272 </v>
     <v>       0.00680272 </v>
     <v>       0.00680272 </v>
     <v>       0.00680272 </v>
     <v>       0.00680272 </v>
     <v>       0.00680272 </v>
     <v>       0.00680272 </v>
     <v>       0.00680272 </v>
     <v>       0.00680272 </v>
     <v>       0.00680272 </v>
     <v>       0.00680272 </v>
     <v>       0.00680272 </v>
     <v>       0.00680272 </v>
     <v>       0.00680272 </v>
     <v>       0.00680272 </v>
     <v>       0.00680272 </v>
     <v>       0.00680272 </v>
     <v>       0.00680272 </v>
     <v>       0.00680272 </v>
     <v>       0.00680272 </v>
     <v>       0.00680272 </v>
     <v>       0.00680272 </v>
     <v>       0.00680272 </v>
     <v>       0.00680272 </v>
     <v>       0.00680272 </v>
     <v>       0.00680272 </v>
     <v>       0.00680272 </v>
     <v>       0.00680272 </v>
     <v>       0.00680272 </v>
     <v>       0.00680272 </v>
    </varray>
   </kpoints>
   <eigenvalues>
    <array>
     <dimension dim="1">band</dimension>
     <dimension dim="2">kpoint</dimension>
     <dimension dim="3">spin</dimension>
     <field>eigene</field>
     <set>
      <set comment="spin 1">
       <set comment="kpoint 1">
        <r>   -1.8530 </r>
        <r>    2.5955 </r>
        <r>    2.5955 </r>
        <r>    2.5955 </r>
        <r>    3.0407 </r>
        <r>    3.0407 </r>
        <r>    3.0407 </r>
        <r>    4.3963 </r>
        <r>    4.3963 </r>
        <r>    4.3963 </r>
        <r>    5.2007 </r>
        <r>    5.2007 </r>
        <r>    5.7349 </r>
        <r>    5.7349 </r>
        <r>    5.7349 </r>
        <r>    5.8859 </r>
        <r>    5.8859 </r>
        <r>    5.8859 </r>
        <r>    5.8859 </r>
        <r>    5.8859 </r>
        <r>    5.8859 </r>
        <r>    8.8732 </r>
        <r>    8.8732 </r>
        <r>    8.8732 </r>
        <r>   14.3523 </r>
        <r>   14.3523 </r>
        <r>   14.3523 </r>
        <r>   20.3023 </r>
        <r>   20.3023 </r>
        <r>   20.3023 </r>
        <r>   20.3023 </r>
        <r>   20.3023 </r>
        <r>   20.3023 </r>
        <r>   24.7544 </r>
        <r>   24.7544 </r>
        <r>   24.7544 </r>
        <r>   27.3232 </r>
        <r>   27.3232 </r>
        <r>   27.3232 </r>
        <r>   29.8135 </r>
        <r>   32.3133 </r>
        <r>   32.3133 </r>
        <r>   32.3133 </r>
        <r>   34.7931 </r>
        <r>   34.7931 </r>
        <r>   34.7931 </r>
        <r>   38.5574 </r>
        <r>   43.1885 </r>
       </set>
       <set comment="kpoint 2">
        <r>   -1.8504 </r>
        <r>    2.5961 </r>
        <r>    2.5961 </r>
        <r>    2.5967 </r>
        <r>    3.0414 </r>
        <r>    3.0414 </r>
        <r>    3.0414 </r>
        <r>    4.3957 </r>
        <r>    4.3968 </r>
        <r>    4.3969 </r>
        <r>    5.2002 </r>
        <r>    5.2007 </r>
        <r>    5.7340 </r>
        <r>    5.7343 </r>
        <r>    5.7343 </r>
        <r>    5.8814 </r>
        <r>    5.8830 </r>
        <r>    5.8830 </r>
        <r>    5.8854 </r>
        <r>    5.8854 </r>
        <r>    5.8856 </r>
        <r>    8.8676 </r>
        <r>    8.8676 </r>
        <r>    8.8803 </r>
        <r>   14.3532 </r>
        <r>   14.3645 </r>
        <r>   14.3645 </r>
        <r>   20.2666 </r>
        <r>   20.2943 </r>
        <r>   20.2943 </r>
        <r>   20.2981 </r>
        <r>   20.2981 </r>
        <r>   20.3060 </r>
        <r>   24.7665 </r>
        <r>   24.7665 </r>
        <r>   24.7772 </r>
        <r>   27.3327 </r>
        <r>   27.3327 </r>
        <r>   27.3412 </r>
        <r>   29.8030 </r>
        <r>   32.2600 </r>
        <r>   32.2756 </r>
        <r>   32.3170 </r>
        <r>   34.7944 </r>
        <r>   34.8321 </r>
        <r>   34.8469 </r>
        <r>   38.5678 </r>
        <r>   43.1266 </r>
       </set>
       <set comment="kpoint 3">
        <r>   -1.8426 </r>
        <r>    2.5979 </r>
        <r>    2.5979 </r>
        <r>    2.6003 </r>
        <r>    3.0434 </r>
        <r>    3.0434 </r>
        <r>    3.0434 </r>
        <r>    4.3939 </r>
        <r>    4.3981 </r>
        <r>    4.3987 </r>
        <r>    5.1989 </r>
        <r>    5.2008 </r>
        <r>    5.7312 </r>
        <r>    5.7324 </r>
        <r>    5.7324 </r>
        <r>    5.8679 </r>
        <r>    5.8741 </r>
        <r>    5.8741 </r>
        <r>    5.8837 </r>
        <r>    5.8837 </r>
        <r>    5.8846 </r>
        <r>    8.8511 </r>
        <r>    8.8511 </r>
        <r>    8.9017 </r>
        <r>   14.3561 </r>
        <r>   14.4008 </r>
        <r>   14.4008 </r>
        <r>   20.1628 </r>
        <r>   20.2705 </r>
        <r>   20.2705 </r>
        <r>   20.2856 </r>
        <r>   20.2856 </r>
        <r>   20.3173 </r>
        <r>   24.8026 </r>
        <r>   24.8026 </r>
        <r>   24.8419 </r>
        <r>   27.3610 </r>
        <r>   27.3610 </r>
        <r>   27.3958 </r>
        <r>   29.7704 </r>
        <r>   32.1106 </r>
        <r>   32.1738 </r>
        <r>   32.3281 </r>
        <r>   34.7984 </r>
        <r>   34.9379 </r>
        <r>   34.9979 </r>
        <r>   38.5996 </r>
        <r>   42.9368 </r>
       </set>
       <set comment="kpoint 4">
        <r>   -1.8295 </r>
        <r>    2.6009 </r>
        <r>    2.6009 </r>
        <r>    2.6064 </r>
        <r>    3.0468 </r>
        <r>    3.0468 </r>
        <r>    3.0470 </r>
        <r>    4.3908 </r>
        <r>    4.4004 </r>
        <r>    4.4017 </r>
        <r>    5.1966 </r>
        <r>    5.2010 </r>
        <r>    5.7267 </r>
        <r>    5.7292 </r>
        <r>    5.7292 </r>
        <r>    5.8461 </r>
        <r>    5.8596 </r>
        <r>    5.8596 </r>
        <r>    5.8810 </r>
        <r>    5.8810 </r>
        <r>    5.8829 </r>
        <r>    8.8242 </r>
        <r>    8.8242 </r>
        <r>    8.9368 </r>
        <r>   14.3609 </r>
        <r>   14.4608 </r>
        <r>   14.4608 </r>
        <r>   19.9987 </r>
        <r>   20.2317 </r>
        <r>   20.2317 </r>
        <r>   20.2650 </r>
        <r>   20.2650 </r>
        <r>   20.3361 </r>
        <r>   24.8618 </r>
        <r>   24.8618 </r>
        <r>   24.9387 </r>
        <r>   27.4078 </r>
        <r>   27.4078 </r>
        <r>   27.4889 </r>
        <r>   29.7130 </r>
        <r>   31.8885 </r>
        <r>   32.0334 </r>
        <r>   32.3466 </r>
        <r>   34.8050 </r>
        <r>   35.0849 </r>
        <r>   35.2236 </r>
        <r>   38.6544 </r>
        <r>   42.6710 </r>
       </set>
       <set comment="kpoint 5">
        <r>   -1.8113 </r>
        <r>    2.6050 </r>
        <r>    2.6050 </r>
        <r>    2.6148 </r>
        <r>    3.0516 </r>
        <r>    3.0516 </r>
        <r>    3.0520 </r>
        <r>    4.3866 </r>
        <r>    4.4035 </r>
        <r>    4.4059 </r>
        <r>    5.1935 </r>
        <r>    5.2013 </r>
        <r>    5.7205 </r>
        <r>    5.7244 </r>
        <r>    5.7244 </r>
        <r>    5.8166 </r>
        <r>    5.8396 </r>
        <r>    5.8396 </r>
        <r>    5.8773 </r>
        <r>    5.8773 </r>
        <r>    5.8805 </r>
        <r>    8.7879 </r>
        <r>    8.7879 </r>
        <r>    8.9852 </r>
        <r>   14.3676 </r>
        <r>   14.5435 </r>
        <r>   14.5435 </r>
        <r>   19.7851 </r>
        <r>   20.1790 </r>
        <r>   20.1790 </r>
        <r>   20.2367 </r>
        <r>   20.2367 </r>
        <r>   20.3623 </r>
        <r>   24.9430 </r>
        <r>   24.9430 </r>
        <r>   25.0548 </r>
        <r>   27.4728 </r>
        <r>   27.4728 </r>
        <r>   27.6227 </r>
        <r>   29.6265 </r>
        <r>   31.6163 </r>
        <r>   31.8806 </r>
        <r>   32.3725 </r>
        <r>   34.8143 </r>
        <r>   35.2472 </r>
        <r>   35.5016 </r>
        <r>   38.7344 </r>
        <r>   42.3571 </r>
       </set>
       <set comment="kpoint 6">
        <r>   -1.7878 </r>
        <r>    2.6104 </r>
        <r>    2.6104 </r>
        <r>    2.6257 </r>
        <r>    3.0579 </r>
        <r>    3.0579 </r>
        <r>    3.0585 </r>
        <r>    4.3812 </r>
        <r>    4.4076 </r>
        <r>    4.4112 </r>
        <r>    5.1895 </r>
        <r>    5.2018 </r>
        <r>    5.7126 </r>
        <r>    5.7175 </r>
        <r>    5.7175 </r>
        <r>    5.7799 </r>
        <r>    5.8149 </r>
        <r>    5.8149 </r>
        <r>    5.8725 </r>
        <r>    5.8725 </r>
        <r>    5.8775 </r>
        <r>    8.7431 </r>
        <r>    8.7431 </r>
        <r>    9.0460 </r>
        <r>   14.3763 </r>
        <r>   14.6478 </r>
        <r>   14.6478 </r>
        <r>   19.5324 </r>
        <r>   20.1140 </r>
        <r>   20.1140 </r>
        <r>   20.2012 </r>
        <r>   20.2012 </r>
        <r>   20.3960 </r>
        <r>   25.0448 </r>
        <r>   25.0448 </r>
        <r>   25.1778 </r>
        <r>   27.5555 </r>
        <r>   27.5555 </r>
        <r>   27.7991 </r>
        <r>   29.5067 </r>
        <r>   31.3111 </r>
        <r>   31.7360 </r>
        <r>   32.4058 </r>
        <r>   34.8263 </r>
        <r>   35.4039 </r>
        <r>   35.8155 </r>
        <r>   38.8420 </r>
        <r>   42.0154 </r>
       </set>
       <set comment="kpoint 7">
        <r>   -1.7592 </r>
        <r>    2.6170 </r>
        <r>    2.6170 </r>
        <r>    2.6387 </r>
        <r>    3.0656 </r>
        <r>    3.0656 </r>
        <r>    3.0662 </r>
        <r>    4.3746 </r>
        <r>    4.4125 </r>
        <r>    4.4176 </r>
        <r>    5.1846 </r>
        <r>    5.2024 </r>
        <r>    5.7029 </r>
        <r>    5.7072 </r>
        <r>    5.7072 </r>
        <r>    5.7370 </r>
        <r>    5.7870 </r>
        <r>    5.7870 </r>
        <r>    5.8668 </r>
        <r>    5.8668 </r>
        <r>    5.8738 </r>
        <r>    8.6911 </r>
        <r>    8.6911 </r>
        <r>    9.1184 </r>
        <r>   14.3870 </r>
        <r>   14.7723 </r>
        <r>   14.7723 </r>
        <r>   19.2499 </r>
        <r>   20.0383 </r>
        <r>   20.0383 </r>
        <r>   20.1589 </r>
        <r>   20.1589 </r>
        <r>   20.4370 </r>
        <r>   25.1656 </r>
        <r>   25.1656 </r>
        <r>   25.2979 </r>
        <r>   27.6552 </r>
        <r>   27.6552 </r>
        <r>   28.0186 </r>
        <r>   29.3507 </r>
        <r>   30.9840 </r>
        <r>   31.6135 </r>
        <r>   32.4463 </r>
        <r>   34.8409 </r>
        <r>   35.5404 </r>
        <r>   36.1542 </r>
        <r>   38.9783 </r>
        <r>   41.6573 </r>
       </set>
       <set comment="kpoint 8">
        <r>   -1.7254 </r>
        <r>    2.6247 </r>
        <r>    2.6247 </r>
        <r>    2.6541 </r>
        <r>    3.0746 </r>
        <r>    3.0746 </r>
        <r>    3.0754 </r>
        <r>    4.3670 </r>
        <r>    4.4183 </r>
        <r>    4.4249 </r>
        <r>    5.1789 </r>
        <r>    5.2033 </r>
        <r>    5.6887 </r>
        <r>    5.6902 </r>
        <r>    5.6902 </r>
        <r>    5.6917 </r>
        <r>    5.7591 </r>
        <r>    5.7591 </r>
        <r>    5.8600 </r>
        <r>    5.8600 </r>
        <r>    5.8694 </r>
        <r>    8.6333 </r>
        <r>    8.6333 </r>
        <r>    9.2015 </r>
        <r>   14.3996 </r>
        <r>   14.9157 </r>
        <r>   14.9157 </r>
        <r>   18.9451 </r>
        <r>   19.9534 </r>
        <r>   19.9534 </r>
        <r>   20.1107 </r>
        <r>   20.1107 </r>
        <r>   20.4854 </r>
        <r>   25.3037 </r>
        <r>   25.3037 </r>
        <r>   25.4091 </r>
        <r>   27.7712 </r>
        <r>   27.7712 </r>
        <r>   28.2797 </r>
        <r>   29.1585 </r>
        <r>   30.6424 </r>
        <r>   31.5198 </r>
        <r>   32.4942 </r>
        <r>   34.8582 </r>
        <r>   35.6474 </r>
        <r>   36.5105 </r>
        <r>   39.1426 </r>
        <r>   41.2896 </r>
       </set>
       <set comment="kpoint 9">
        <r>   -1.6866 </r>
        <r>    2.6335 </r>
        <r>    2.6335 </r>
        <r>    2.6717 </r>
        <r>    3.0851 </r>
        <r>    3.0851 </r>
        <r>    3.0859 </r>
        <r>    4.3582 </r>
        <r>    4.4250 </r>
        <r>    4.4329 </r>
        <r>    5.1724 </r>
        <r>    5.2043 </r>
        <r>    5.6360 </r>
        <r>    5.6617 </r>
        <r>    5.6617 </r>
        <r>    5.6789 </r>
        <r>    5.7362 </r>
        <r>    5.7362 </r>
        <r>    5.8521 </r>
        <r>    5.8521 </r>
        <r>    5.8643 </r>
        <r>    8.5710 </r>
        <r>    8.5710 </r>
        <r>    9.2945 </r>
        <r>   14.4143 </r>
        <r>   15.0766 </r>
        <r>   15.0766 </r>
        <r>   18.6239 </r>
        <r>   19.8610 </r>
        <r>   19.8610 </r>
        <r>   20.0572 </r>
        <r>   20.0572 </r>
        <r>   20.5411 </r>
        <r>   25.4577 </r>
        <r>   25.4577 </r>
        <r>   25.5088 </r>
        <r>   27.9028 </r>
        <r>   27.9028 </r>
        <r>   28.5794 </r>
        <r>   28.9333 </r>
        <r>   30.2912 </r>
        <r>   31.4564 </r>
        <r>   32.5494 </r>
        <r>   34.8782 </r>
        <r>   35.7197 </r>
        <r>   36.8795 </r>
        <r>   39.3309 </r>
        <r>   40.9164 </r>
       </set>
       <set comment="kpoint 10">
        <r>   -1.6426 </r>
        <r>    2.6433 </r>
        <r>    2.6433 </r>
        <r>    2.6913 </r>
        <r>    3.0967 </r>
        <r>    3.0967 </r>
        <r>    3.0978 </r>
        <r>    4.3484 </r>
        <r>    4.4325 </r>
        <r>    4.4421 </r>
        <r>    5.1652 </r>
        <r>    5.2058 </r>
        <r>    5.5796 </r>
        <r>    5.6207 </r>
        <r>    5.6207 </r>
        <r>    5.6646 </r>
        <r>    5.7195 </r>
        <r>    5.7195 </r>
        <r>    5.8433 </r>
        <r>    5.8433 </r>
        <r>    5.8586 </r>
        <r>    8.5053 </r>
        <r>    8.5053 </r>
        <r>    9.3965 </r>
        <r>   14.4310 </r>
        <r>   15.2536 </r>
        <r>   15.2536 </r>
        <r>   18.2909 </r>
        <r>   19.7625 </r>
        <r>   19.7625 </r>
        <r>   19.9990 </r>
        <r>   19.9990 </r>
        <r>   20.6039 </r>
        <r>   25.5967 </r>
        <r>   25.6259 </r>
        <r>   25.6259 </r>
        <r>   28.0491 </r>
        <r>   28.0491 </r>
        <r>   28.6803 </r>
        <r>   28.9133 </r>
        <r>   29.9338 </r>
        <r>   31.4213 </r>
        <r>   32.6117 </r>
        <r>   34.9010 </r>
        <r>   35.7561 </r>
        <r>   37.2577 </r>
        <r>   39.5361 </r>
        <r>   40.5402 </r>
       </set>
       <set comment="kpoint 11">
        <r>   -1.5935 </r>
        <r>    2.6542 </r>
        <r>    2.6542 </r>
        <r>    2.7130 </r>
        <r>    3.1097 </r>
        <r>    3.1097 </r>
        <r>    3.1108 </r>
        <r>    4.3374 </r>
        <r>    4.4408 </r>
        <r>    4.4518 </r>
        <r>    5.1570 </r>
        <r>    5.2077 </r>
        <r>    5.5204 </r>
        <r>    5.5705 </r>
        <r>    5.5705 </r>
        <r>    5.6488 </r>
        <r>    5.7062 </r>
        <r>    5.7062 </r>
        <r>    5.8334 </r>
        <r>    5.8334 </r>
        <r>    5.8522 </r>
        <r>    8.4374 </r>
        <r>    8.4374 </r>
        <r>    9.5067 </r>
        <r>   14.4498 </r>
        <r>   15.4453 </r>
        <r>   15.4453 </r>
        <r>   17.9495 </r>
        <r>   19.6592 </r>
        <r>   19.6592 </r>
        <r>   19.9368 </r>
        <r>   19.9368 </r>
        <r>   20.6739 </r>
        <r>   25.6742 </r>
        <r>   25.8071 </r>
        <r>   25.8071 </r>
        <r>   28.2093 </r>
        <r>   28.2093 </r>
        <r>   28.4053 </r>
        <r>   29.2769 </r>
        <r>   29.5725 </r>
        <r>   31.4105 </r>
        <r>   32.6812 </r>
        <r>   34.9264 </r>
        <r>   35.7574 </r>
        <r>   37.6426 </r>
        <r>   39.7479 </r>
        <r>   40.1627 </r>
       </set>
       <set comment="kpoint 12">
        <r>   -1.5394 </r>
        <r>    2.6660 </r>
        <r>    2.6660 </r>
        <r>    2.7366 </r>
        <r>    3.1239 </r>
        <r>    3.1239 </r>
        <r>    3.1251 </r>
        <r>    4.3257 </r>
        <r>    4.4501 </r>
        <r>    4.4623 </r>
        <r>    5.1484 </r>
        <r>    5.2103 </r>
        <r>    5.4589 </r>
        <r>    5.5137 </r>
        <r>    5.5137 </r>
        <r>    5.6317 </r>
        <r>    5.6939 </r>
        <r>    5.6939 </r>
        <r>    5.8226 </r>
        <r>    5.8226 </r>
        <r>    5.8452 </r>
        <r>    8.3682 </r>
        <r>    8.3682 </r>
        <r>    9.6245 </r>
        <r>   14.4705 </r>
        <r>   15.6506 </r>
        <r>   15.6506 </r>
        <r>   17.6024 </r>
        <r>   19.5524 </r>
        <r>   19.5524 </r>
        <r>   19.8714 </r>
        <r>   19.8714 </r>
        <r>   20.7510 </r>
        <r>   25.7430 </r>
        <r>   26.0000 </r>
        <r>   26.0000 </r>
        <r>   28.1136 </r>
        <r>   28.3825 </r>
        <r>   28.3825 </r>
        <r>   29.2090 </r>
        <r>   29.6656 </r>
        <r>   31.4203 </r>
        <r>   32.7578 </r>
        <r>   34.9546 </r>
        <r>   35.7262 </r>
        <r>   38.0322 </r>
        <r>   39.7851 </r>
        <r>   39.9535 </r>
       </set>
       <set comment="kpoint 13">
        <r>   -1.4803 </r>
        <r>    2.6789 </r>
        <r>    2.6789 </r>
        <r>    2.7620 </r>
        <r>    3.1394 </r>
        <r>    3.1394 </r>
        <r>    3.1406 </r>
        <r>    4.3131 </r>
        <r>    4.4601 </r>
        <r>    4.4731 </r>
        <r>    5.1392 </r>
        <r>    5.2135 </r>
        <r>    5.3957 </r>
        <r>    5.4517 </r>
        <r>    5.4517 </r>
        <r>    5.6134 </r>
        <r>    5.6816 </r>
        <r>    5.6816 </r>
        <r>    5.8109 </r>
        <r>    5.8109 </r>
        <r>    5.8375 </r>
        <r>    8.2987 </r>
        <r>    8.2987 </r>
        <r>    9.7493 </r>
        <r>   14.4932 </r>
        <r>   15.8684 </r>
        <r>   15.8684 </r>
        <r>   17.2519 </r>
        <r>   19.4430 </r>
        <r>   19.4430 </r>
        <r>   19.8034 </r>
        <r>   19.8034 </r>
        <r>   20.8349 </r>
        <r>   25.8051 </r>
        <r>   26.2039 </r>
        <r>   26.2039 </r>
        <r>   27.8097 </r>
        <r>   28.5681 </r>
        <r>   28.5681 </r>
        <r>   28.8446 </r>
        <r>   30.0758 </r>
        <r>   31.4473 </r>
        <r>   32.8414 </r>
        <r>   34.9856 </r>
        <r>   35.6654 </r>
        <r>   38.4247 </r>
        <r>   39.4081 </r>
        <r>   40.1397 </r>
       </set>
       <set comment="kpoint 14">
        <r>   -1.4163 </r>
        <r>    2.6924 </r>
        <r>    2.6924 </r>
        <r>    2.7891 </r>
        <r>    3.1560 </r>
        <r>    3.1560 </r>
        <r>    3.1571 </r>
        <r>    4.2996 </r>
        <r>    4.4710 </r>
        <r>    4.4842 </r>
        <r>    5.1294 </r>
        <r>    5.2175 </r>
        <r>    5.3315 </r>
        <r>    5.3853 </r>
        <r>    5.3853 </r>
        <r>    5.5939 </r>
        <r>    5.6687 </r>
        <r>    5.6687 </r>
        <r>    5.7981 </r>
        <r>    5.7981 </r>
        <r>    5.8291 </r>
        <r>    8.2294 </r>
        <r>    8.2294 </r>
        <r>    9.8805 </r>
        <r>   14.5176 </r>
        <r>   16.0977 </r>
        <r>   16.0977 </r>
        <r>   16.8998 </r>
        <r>   19.3319 </r>
        <r>   19.3319 </r>
        <r>   19.7334 </r>
        <r>   19.7334 </r>
        <r>   20.9258 </r>
        <r>   25.8621 </r>
        <r>   26.4176 </r>
        <r>   26.4176 </r>
        <r>   27.4969 </r>
        <r>   28.4802 </r>
        <r>   28.7651 </r>
        <r>   28.7651 </r>
        <r>   30.5041 </r>
        <r>   31.4888 </r>
        <r>   32.9320 </r>
        <r>   35.0194 </r>
        <r>   35.5784 </r>
        <r>   38.8186 </r>
        <r>   39.0323 </r>
        <r>   40.2955 </r>
       </set>
       <set comment="kpoint 15">
        <r>   -1.3474 </r>
        <r>    2.7068 </r>
        <r>    2.7068 </r>
        <r>    2.8177 </r>
        <r>    3.1738 </r>
        <r>    3.1738 </r>
        <r>    3.1747 </r>
        <r>    4.2854 </r>
        <r>    4.4827 </r>
        <r>    4.4953 </r>
        <r>    5.1191 </r>
        <r>    5.2224 </r>
        <r>    5.2667 </r>
        <r>    5.3153 </r>
        <r>    5.3153 </r>
        <r>    5.5733 </r>
        <r>    5.6552 </r>
        <r>    5.6552 </r>
        <r>    5.7845 </r>
        <r>    5.7845 </r>
        <r>    5.8201 </r>
        <r>    8.1610 </r>
        <r>    8.1610 </r>
        <r>   10.0177 </r>
        <r>   14.5435 </r>
        <r>   16.3375 </r>
        <r>   16.3375 </r>
        <r>   16.5476 </r>
        <r>   19.2200 </r>
        <r>   19.2200 </r>
        <r>   19.6620 </r>
        <r>   19.6620 </r>
        <r>   21.0234 </r>
        <r>   25.9155 </r>
        <r>   26.6404 </r>
        <r>   26.6404 </r>
        <r>   27.1779 </r>
        <r>   28.1167 </r>
        <r>   28.9729 </r>
        <r>   28.9729 </r>
        <r>   30.9479 </r>
        <r>   31.5427 </r>
        <r>   33.0294 </r>
        <r>   35.0560 </r>
        <r>   35.4681 </r>
        <r>   38.6582 </r>
        <r>   39.2124 </r>
        <r>   40.4161 </r>
       </set>
       <set comment="kpoint 16">
        <r>   -1.2736 </r>
        <r>    2.7218 </r>
        <r>    2.7218 </r>
        <r>    2.8479 </r>
        <r>    3.1927 </r>
        <r>    3.1927 </r>
        <r>    3.1933 </r>
        <r>    4.2705 </r>
        <r>    4.4952 </r>
        <r>    4.5063 </r>
        <r>    5.1083 </r>
        <r>    5.2017 </r>
        <r>    5.2285 </r>
        <r>    5.2424 </r>
        <r>    5.2424 </r>
        <r>    5.5517 </r>
        <r>    5.6408 </r>
        <r>    5.6408 </r>
        <r>    5.7700 </r>
        <r>    5.7700 </r>
        <r>    5.8105 </r>
        <r>    8.0938 </r>
        <r>    8.0938 </r>
        <r>   10.1604 </r>
        <r>   14.5701 </r>
        <r>   16.1974 </r>
        <r>   16.5871 </r>
        <r>   16.5871 </r>
        <r>   19.1078 </r>
        <r>   19.1078 </r>
        <r>   19.5897 </r>
        <r>   19.5897 </r>
        <r>   21.1276 </r>
        <r>   25.9665 </r>
        <r>   26.8548 </r>
        <r>   26.8718 </r>
        <r>   26.8718 </r>
        <r>   27.7546 </r>
        <r>   29.1905 </r>
        <r>   29.1905 </r>
        <r>   31.4052 </r>
        <r>   31.6075 </r>
        <r>   33.1336 </r>
        <r>   35.0954 </r>
        <r>   35.3375 </r>
        <r>   38.2860 </r>
        <r>   39.6046 </r>
        <r>   40.5042 </r>
       </set>
       <set comment="kpoint 17">
        <r>   -1.1951 </r>
        <r>    2.7375 </r>
        <r>    2.7375 </r>
        <r>    2.8793 </r>
        <r>    3.2127 </r>
        <r>    3.2127 </r>
        <r>    3.2127 </r>
        <r>    4.2547 </r>
        <r>    4.5081 </r>
        <r>    4.5170 </r>
        <r>    5.0969 </r>
        <r>    5.1368 </r>
        <r>    5.1671 </r>
        <r>    5.1671 </r>
        <r>    5.2358 </r>
        <r>    5.5292 </r>
        <r>    5.6256 </r>
        <r>    5.6256 </r>
        <r>    5.7547 </r>
        <r>    5.7547 </r>
[...]
       <r>   32.8797    0.0000 </r>
       <r>   33.0989    0.0000 </r>
       <r>   33.0989    0.0000 </r>
       <r>   33.2077    0.0000 </r>
       <r>   33.2077    0.0000 </r>
       <r>   34.3481    0.0000 </r>
       <r>   34.3481    0.0000 </r>
      </set>
      <set comment="kpoint 83">
       <r>    2.4072    1.0000 </r>
       <r>    2.4072    1.0000 </r>
       <r>    2.4072    1.0000 </r>
       <r>    2.4072    1.0000 </r>
       <r>    4.3490    1.0000 </r>
       <r>    4.3490    1.0000 </r>
       <r>    4.3490    1.0000 </r>
       <r>    4.3490    1.0000 </r>
       <r>    4.3858    1.0000 </r>
       <r>    4.3858    1.0000 </r>
       <r>    4.3858    1.0000 </r>
       <r>    4.3858    1.0000 </r>
       <r>    5.4886    1.0000 </r>
       <r>    5.4886    1.0000 </r>
       <r>    5.4886    1.0000 </r>
       <r>    5.4886    1.0000 </r>
       <r>    5.7236    1.0000 </r>
       <r>    5.7236    1.0000 </r>
       <r>    5.7236    1.0000 </r>
       <r>    5.7236    1.0000 </r>
       <r>    6.5798    1.0000 </r>
       <r>    6.5798    1.0000 </r>
       <r>    6.5798    1.0000 </r>
       <r>    6.5798    1.0000 </r>
       <r>   11.2648    0.0000 </r>
       <r>   11.2648    0.0000 </r>
       <r>   11.2648    0.0000 </r>
       <r>   11.2648    0.0000 </r>
       <r>   27.5732    0.0000 </r>
       <r>   27.5732    0.0000 </r>
       <r>   27.5732    0.0000 </r>
       <r>   27.5732    0.0000 </r>
       <r>   28.7168    0.0000 </r>
       <r>   28.7168    0.0000 </r>
       <r>   28.7168    0.0000 </r>
       <r>   28.7168    0.0000 </r>
       <r>   28.9624    0.0000 </r>
       <r>   28.9624    0.0000 </r>
       <r>   28.9624    0.0000 </r>
       <r>   28.9624    0.0000 </r>
       <r>   32.5146    0.0000 </r>
       <r>   32.5146    0.0000 </r>
       <r>   32.5146    0.0000 </r>
       <r>   32.5146    0.0000 </r>
       <r>   33.1881    0.0000 </r>
       <r>   33.1881    0.0000 </r>
       <r>   33.1881    0.0000 </r>
       <r>   33.1881    0.0000 </r>
      </set>
      <set comment="kpoint 84">
       <r>    2.3889    1.0000 </r>
       <r>    2.3889    1.0000 </r>
       <r>    2.3889    1.0000 </r>
       <r>    2.3889    1.0000 </r>
       <r>    4.3646    1.0000 </r>
       <r>    4.3646    1.0000 </r>
       <r>    4.3646    1.0000 </r>
       <r>    4.3646    1.0000 </r>
       <r>    4.3646    1.0000 </r>
       <r>    4.3646    1.0000 </r>
       <r>    4.3646    1.0000 </r>
       <r>    4.3646    1.0000 </r>
       <r>    5.7472    1.0000 </r>
       <r>    5.7472    1.0000 </r>
       <r>    5.7472    1.0000 </r>
       <r>    5.7472    1.0000 </r>
       <r>    5.7472    1.0000 </r>
       <r>    5.7472    1.0000 </r>
       <r>    5.7472    1.0000 </r>
       <r>    5.7472    1.0000 </r>
       <r>    6.4124    1.0000 </r>
       <r>    6.4124    1.0000 </r>
       <r>    6.4124    1.0000 </r>
       <r>    6.4124    1.0000 </r>
       <r>   11.0277    0.0000 </r>
       <r>   11.0277    0.0000 </r>
       <r>   11.0277    0.0000 </r>
       <r>   11.0277    0.0000 </r>
       <r>   28.3146    0.0000 </r>
       <r>   28.3146    0.0000 </r>
       <r>   28.3146    0.0000 </r>
       <r>   28.3146    0.0000 </r>
       <r>   29.1480    0.0000 </r>
       <r>   29.1480    0.0000 </r>
       <r>   29.1480    0.0000 </r>
       <r>   29.1480    0.0000 </r>
       <r>   29.1480    0.0000 </r>
       <r>   29.1480    0.0000 </r>
       <r>   29.1480    0.0000 </r>
       <r>   29.1480    0.0000 </r>
       <r>   32.1813    0.0000 </r>
       <r>   32.1813    0.0000 </r>
       <r>   32.1813    0.0000 </r>
       <r>   32.1813    0.0000 </r>
       <r>   32.1813    0.0000 </r>
       <r>   32.1813    0.0000 </r>
       <r>   32.1813    0.0000 </r>
       <r>   32.1813    0.0000 </r>
      </set>
     </set>
    </set>
   </array>
  </eigenvalues>
  <separator name="orbital magnetization" >
   <v name="MAGDIPOLOUT">      0.00000000      0.00000000      0.00000000</v>
  </separator>
  <dos>
   <i name="efermi">      7.39420518 </i>
   <total>
    <array>
     <dimension dim="1">gridpoints</dimension>
     <dimension dim="2">spin</dimension>
     <field>energy</field>
     <field>total</field>
     <field>integrated</field>
     <set>
      <set comment="spin 1">
       <r>    -4.1051     0.0000     0.0000 </r>
       <r>    -3.9400     0.0000     0.0000 </r>
       <r>    -3.7748     0.0000     0.0000 </r>
       <r>    -3.6097     0.0000     0.0000 </r>
       <r>    -3.4445     0.0000     0.0000 </r>
       <r>    -3.2794     0.0000     0.0000 </r>
       <r>    -3.1142     0.0000     0.0000 </r>
       <r>    -2.9491     0.0000     0.0000 </r>
       <r>    -2.7839     0.0000     0.0000 </r>
       <r>    -2.6188     0.0000     0.0000 </r>
       <r>    -2.4536     0.0000     0.0000 </r>
       <r>    -2.2885     0.0000     0.0000 </r>
       <r>    -2.1233     0.0000     0.0000 </r>
       <r>    -1.9582     0.0000     0.0000 </r>
       <r>    -1.7930     0.0175     0.0029 </r>
       <r>    -1.6278     0.1256     0.0236 </r>
       <r>    -1.4627     0.1290     0.0449 </r>
       <r>    -1.2975     0.2882     0.0925 </r>
       <r>    -1.1324     0.1536     0.1179 </r>
       <r>    -0.9672     0.3708     0.1791 </r>
       <r>    -0.8021     0.2426     0.2192 </r>
       <r>    -0.6369     0.4285     0.2900 </r>
       <r>    -0.4718     0.2656     0.3338 </r>
       <r>    -0.3066     0.5049     0.4172 </r>
       <r>    -0.1415     0.5178     0.5027 </r>
       <r>     0.0237     0.2404     0.5424 </r>
       <r>     0.1888     0.5569     0.6344 </r>
       <r>     0.3540     0.5486     0.7250 </r>
       <r>     0.5191     0.7441     0.8479 </r>
       <r>     0.6843     0.3344     0.9031 </r>
       <r>     0.8494     0.7999     1.0352 </r>
       <r>     1.0146     0.6907     1.1493 </r>
       <r>     1.1797     0.5770     1.2446 </r>
       <r>     1.3449     0.9924     1.4085 </r>
       <r>     1.5100     0.8325     1.5460 </r>
       <r>     1.6752     0.9027     1.6951 </r>
       <r>     1.8403     0.8570     1.8366 </r>
       <r>     2.0055     1.6744     2.1131 </r>
       <r>     2.1706     1.1220     2.2984 </r>
       <r>     2.3358     2.0968     2.6447 </r>
       <r>     2.5009     2.7123     3.0927 </r>
       <r>     2.6661     3.8195     3.7235 </r>
       <r>     2.8312     4.8974     4.5323 </r>
       <r>     2.9964     5.2607     5.4011 </r>
       <r>     3.1615     6.7813     6.5210 </r>
       <r>     3.3267     8.5800     7.9380 </r>
       <r>     3.4919     9.6604     9.5335 </r>
       <r>     3.6570     8.5861    10.9515 </r>
       <r>     3.8222     8.3827    12.3359 </r>
       <r>     3.9873    10.0888    14.0021 </r>
       <r>     4.1525    11.8069    15.9520 </r>
       <r>     4.3176    14.2417    18.3040 </r>
       <r>     4.4828    16.0010    20.9466 </r>
       <r>     4.6479    18.2124    23.9544 </r>
       <r>     4.8131    11.1632    25.7980 </r>
       <r>     4.9782    11.8166    27.7496 </r>
       <r>     5.1434    14.5388    30.1507 </r>
       <r>     5.3085    14.6809    32.5753 </r>
       <r>     5.4737    13.0378    34.7285 </r>
       <r>     5.6388    15.5946    37.3039 </r>
       <r>     5.8040    21.4119    40.8402 </r>
       <r>     5.9691     7.1474    42.0206 </r>
       <r>     6.1343     1.2951    42.2344 </r>
       <r>     6.2994     2.0614    42.5749 </r>
       <r>     6.4646     1.1490    42.7647 </r>
       <r>     6.6297     1.7934    43.0608 </r>
       <r>     6.7949     1.2369    43.2651 </r>
       <r>     6.9600     0.7930    43.3961 </r>
       <r>     7.1252     2.2368    43.7655 </r>
       <r>     7.2903     1.0039    43.9313 </r>
       <r>     7.4555     0.7853    44.0610 </r>
       <r>     7.6206     1.0027    44.2266 </r>
       <r>     7.7858     1.7031    44.5078 </r>
       <r>     7.9509     1.1174    44.6924 </r>
       <r>     8.1161     1.2106    44.8923 </r>
       <r>     8.2812     0.9053    45.0418 </r>
       <r>     8.4464     0.5964    45.1403 </r>
       <r>     8.6115     1.3646    45.3657 </r>
       <r>     8.7767     1.4925    45.6122 </r>
       <r>     8.9419     0.5203    45.6981 </r>
       <r>     9.1070     1.2873    45.9107 </r>
       <r>     9.2722     1.0160    46.0785 </r>
       <r>     9.4373     0.5686    46.1724 </r>
       <r>     9.6025     1.3394    46.3936 </r>
       <r>     9.7676     0.6991    46.5091 </r>
       <r>     9.9328     1.1466    46.6984 </r>
       <r>    10.0979     0.6773    46.8103 </r>
       <r>    10.2631     0.4162    46.8790 </r>
       <r>    10.4282     1.1160    47.0633 </r>
       <r>    10.5934     0.5849    47.1599 </r>
       <r>    10.7585     0.8578    47.3016 </r>
       <r>    10.9237     0.5339    47.3897 </r>
       <r>    11.0888     0.6484    47.4968 </r>
       <r>    11.2540     0.9668    47.6565 </r>
       <r>    11.4191     1.2449    47.8621 </r>
       <r>    11.5843     0.9888    48.0254 </r>
       <r>    11.7494     1.3358    48.2460 </r>
       <r>    11.9146     1.2765    48.4568 </r>
       <r>    12.0797     1.1448    48.6459 </r>
       <r>    12.2449     1.0750    48.8234 </r>
       <r>    12.4100     0.9101    48.9737 </r>
       <r>    12.5752     1.4103    49.2067 </r>
       <r>    12.7403     1.1715    49.4001 </r>
       <r>    12.9055     0.9511    49.5572 </r>
       <r>    13.0706     1.1270    49.7433 </r>
       <r>    13.2358     0.9573    49.9014 </r>
       <r>    13.4009     0.8223    50.0372 </r>
       <r>    13.5661     1.1266    50.2233 </r>
       <r>    13.7312     1.3215    50.4415 </r>
       <r>    13.8964     0.5128    50.5262 </r>
       <r>    14.0616     1.0061    50.6924 </r>
       <r>    14.2267     1.1725    50.8860 </r>
       <r>    14.3919     0.6163    50.9878 </r>
       <r>    14.5570     1.2048    51.1868 </r>
       <r>    14.7222     1.0299    51.3568 </r>
       <r>    14.8873     1.4988    51.6044 </r>
       <r>    15.0525     1.0379    51.7758 </r>
       <r>    15.2176     1.8786    52.0860 </r>
       <r>    15.3828     1.5148    52.3362 </r>
       <r>    15.5479     1.1532    52.5267 </r>
       <r>    15.7131     0.9551    52.6844 </r>
       <r>    15.8782     1.2816    52.8961 </r>
       <r>    16.0434     2.0539    53.2353 </r>
       <r>    16.2085     1.1419    53.4238 </r>
       <r>    16.3737     2.1210    53.7741 </r>
       <r>    16.5388     0.7709    53.9015 </r>
       <r>    16.7040     0.7886    54.0317 </r>
       <r>    16.8691     2.2340    54.4006 </r>
       <r>    17.0343     1.1601    54.5922 </r>
       <r>    17.1994     1.4464    54.8311 </r>
       <r>    17.3646     1.7403    55.1185 </r>
       <r>    17.5297     1.8031    55.4163 </r>
       <r>    17.6949     1.6964    55.6964 </r>
       <r>    17.8600     1.2565    55.9040 </r>
       <r>    18.0252     1.1417    56.0925 </r>
       <r>    18.1903     1.6985    56.3730 </r>
       <r>    18.3555     1.4309    56.6093 </r>
       <r>    18.5206     0.9129    56.7601 </r>
       <r>    18.6858     1.6881    57.0389 </r>
       <r>    18.8509     1.8873    57.3506 </r>
       <r>    19.0161     2.3127    57.7326 </r>
       <r>    19.1813     1.2285    57.9354 </r>
       <r>    19.3464     1.6278    58.2043 </r>
       <r>    19.5116     1.1668    58.3970 </r>
       <r>    19.6767     2.2297    58.7652 </r>
       <r>    19.8419     1.3318    58.9852 </r>
       <r>    20.0070     2.1165    59.3347 </r>
       <r>    20.1722     1.0938    59.5153 </r>
       <r>    20.3373     2.1706    59.8738 </r>
       <r>    20.5025     1.6731    60.1501 </r>
       <r>    20.6676     1.9309    60.4690 </r>
       <r>    20.8328     1.5542    60.7257 </r>
       <r>    20.9979     1.7098    61.0081 </r>
       <r>    21.1631     1.1937    61.2052 </r>
       <r>    21.3282     2.5658    61.6290 </r>
       <r>    21.4934     1.8359    61.9322 </r>
       <r>    21.6585     2.0328    62.2679 </r>
       <r>    21.8237     1.8533    62.5740 </r>
       <r>    21.9888     1.0061    62.7401 </r>
       <r>    22.1540     1.6649    63.0151 </r>
       <r>    22.3191     0.8715    63.1590 </r>
       <r>    22.4843     2.3096    63.5404 </r>
       <r>    22.6494     1.6904    63.8196 </r>
       <r>    22.8146     2.5727    64.2445 </r>
       <r>    22.9797     0.6320    64.3489 </r>
       <r>    23.1449     0.4588    64.4246 </r>
       <r>    23.3100     1.4855    64.6700 </r>
       <r>    23.4752     1.6816    64.9477 </r>
       <r>    23.6403     1.8191    65.2481 </r>
       <r>    23.8055     1.1689    65.4412 </r>
       <r>    23.9706     2.2967    65.8205 </r>
       <r>    24.1358     0.9552    65.9782 </r>
       <r>    24.3009     0.9754    66.1393 </r>
       <r>    24.4661     2.0879    66.4841 </r>
       <r>    24.6313     1.1538    66.6747 </r>
       <r>    24.7964     0.5676    66.7684 </r>
       <r>    24.9616     1.5235    67.0200 </r>
       <r>    25.1267     1.0772    67.1979 </r>
       <r>    25.2919     0.8834    67.3438 </r>
       <r>    25.4570     1.1646    67.5362 </r>
       <r>    25.6222     2.4383    67.9388 </r>
       <r>    25.7873     1.1719    68.1324 </r>
       <r>    25.9525     0.8830    68.2782 </r>
       <r>    26.1176     2.0803    68.6218 </r>
       <r>    26.2828     1.3157    68.8391 </r>
       <r>    26.4479     1.8489    69.1444 </r>
       <r>    26.6131     2.0207    69.4781 </r>
       <r>    26.7782     1.5880    69.7404 </r>
       <r>    26.9434     1.5513    69.9966 </r>
       <r>    27.1085     2.0755    70.3394 </r>
       <r>    27.2737     1.6594    70.6134 </r>
       <r>    27.4388     1.9966    70.9432 </r>
       <r>    27.6040     2.5961    71.3719 </r>
       <r>    27.7691     1.3468    71.5943 </r>
       <r>    27.9343     2.1928    71.9565 </r>
       <r>    28.0994     2.3754    72.3488 </r>
       <r>    28.2646     2.2627    72.7224 </r>
       <r>    28.4297     1.8363    73.0257 </r>
       <r>    28.5949     2.1727    73.3845 </r>
       <r>    28.7600     2.6304    73.8190 </r>
       <r>    28.9252     2.1864    74.1800 </r>
       <r>    29.0903     2.5664    74.6039 </r>
       <r>    29.2555     1.7527    74.8934 </r>
       <r>    29.4206     3.4976    75.4710 </r>
       <r>    29.5858     2.2271    75.8388 </r>
       <r>    29.7510     1.3455    76.0610 </r>
       <r>    29.9161     2.7120    76.5089 </r>
       <r>    30.0813     2.5560    76.9310 </r>
       <r>    30.2464     1.9426    77.2519 </r>
       <r>    30.4116     2.1345    77.6044 </r>
       <r>    30.5767     0.8018    77.7368 </r>
       <r>    30.7419     2.8560    78.2085 </r>
       <r>    30.9070     2.3825    78.6019 </r>
       <r>    31.0722     1.4064    78.8342 </r>
       <r>    31.2373     1.3843    79.0628 </r>
       <r>    31.4025     1.0445    79.2354 </r>
       <r>    31.5676     2.1414    79.5890 </r>
       <r>    31.7328     0.9576    79.7472 </r>
       <r>    31.8979     0.9529    79.9045 </r>
       <r>    32.0631     1.5815    80.1657 </r>
       <r>    32.2282     2.8168    80.6309 </r>
       <r>    32.3934     1.5941    80.8942 </r>
       <r>    32.5585     1.4217    81.1290 </r>
       <r>    32.7237     0.9070    81.2788 </r>
       <r>    32.8888     1.0708    81.4556 </r>
       <r>    33.0540     1.1848    81.6513 </r>
       <r>    33.2191     2.1209    82.0016 </r>
       <r>    33.3843     1.7706    82.2940 </r>
       <r>    33.5494     0.5736    82.3887 </r>
       <r>    33.7146     1.3481    82.6114 </r>
       <r>    33.8797     1.6153    82.8781 </r>
       <r>    34.0449     2.0339    83.2140 </r>
       <r>    34.2100     3.0975    83.7256 </r>
       <r>    34.3752     3.8530    84.3619 </r>
       <r>    34.5403     2.4829    84.7720 </r>
       <r>    34.7055     1.9743    85.0980 </r>
       <r>    34.8706     1.9265    85.4162 </r>
       <r>    35.0358     1.0278    85.5859 </r>
       <r>    35.2010     2.7791    86.0449 </r>
       <r>    35.3661     2.2295    86.4131 </r>
       <r>    35.5313     1.6304    86.6824 </r>
       <r>    35.6964     1.4845    86.9276 </r>
       <r>    35.8616     1.9170    87.2442 </r>
       <r>    36.0267     2.5436    87.6642 </r>
       <r>    36.1919     3.1385    88.1826 </r>
       <r>    36.3570     1.0382    88.3540 </r>
       <r>    36.5222     1.4173    88.5881 </r>
       <r>    36.6873     0.7548    88.7127 </r>
       <r>    36.8525     2.1616    89.0697 </r>
       <r>    37.0176     1.3508    89.2928 </r>
       <r>    37.1828     1.8797    89.6033 </r>
       <r>    37.3479     2.1645    89.9607 </r>
       <r>    37.5131     2.0211    90.2945 </r>
       <r>    37.6782     2.1569    90.6507 </r>
       <r>    37.8434     1.6080    90.9163 </r>
       <r>    38.0085     1.9863    91.2444 </r>
       <r>    38.1737     2.3232    91.6280 </r>
       <r>    38.3388     2.1976    91.9910 </r>
       <r>    38.5040     4.2551    92.6937 </r>
       <r>    38.6691     1.8656    93.0018 </r>
       <r>    38.8343     1.1627    93.1938 </r>
       <r>    38.9994     1.2421    93.3990 </r>
       <r>    39.1646     1.9540    93.7217 </r>
       <r>    39.3297     1.7375    94.0086 </r>
       <r>    39.4949     2.0010    94.3391 </r>
       <r>    39.6600     1.3692    94.5652 </r>
       <r>    39.8252     1.4762    94.8090 </r>
       <r>    39.9903     0.5953    94.9073 </r>
       <r>    40.1555     1.0029    95.0729 </r>
       <r>    40.3207     1.1007    95.2547 </r>
       <r>    40.4858     0.5125    95.3394 </r>
       <r>    40.6510     0.8549    95.4806 </r>
       <r>    40.8161     0.3909    95.5451 </r>
       <r>    40.9813     0.2930    95.5935 </r>
       <r>    41.1464     0.7279    95.7137 </r>
       <r>    41.3116     0.5453    95.8038 </r>
       <r>    41.4767     0.2696    95.8483 </r>
       <r>    41.6419     0.4470    95.9221 </r>
       <r>    41.8070     0.0019    95.9225 </r>
       <r>    41.9722     0.0000    95.9225 </r>
       <r>    42.1373     0.0001    95.9225 </r>
       <r>    42.3025     0.1301    95.9440 </r>
       <r>    42.4676     0.1257    95.9647 </r>
       <r>    42.6328     0.2048    95.9985 </r>
       <r>    42.7979     0.0019    95.9988 </r>
       <r>    42.9631     0.0000    95.9988 </r>
       <r>    43.1282     0.0003    95.9989 </r>
       <r>    43.2934     0.0067    96.0000 </r>
       <r>    43.4585     0.0000    96.0000 </r>
       <r>    43.6237     0.0000    96.0000 </r>
       <r>    43.7888     0.0000    96.0000 </r>
       <r>    43.9540     0.0000    96.0000 </r>
       <r>    44.1191     0.0000    96.0000 </r>
       <r>    44.2843     0.0000    96.0000 </r>
       <r>    44.4494     0.0000    96.0000 </r>
       <r>    44.6146     0.0000    96.0000 </r>
       <r>    44.7797     0.0000    96.0000 </r>
       <r>    44.9449     0.0000    96.0000 </r>
       <r>    45.1100     0.0000    96.0000 </r>
       <r>    45.2752     0.0000    96.0000 </r>
       <r>    45.4404     0.0000    96.0000 </r>
      </set>
     </set>
    </array>
   </total>
  </dos>
 </calculation>
 <structure name="finalpos" >
  <crystal>
   <varray name="basis" >
    <v>       3.63689000       0.00000000       0.00000000 </v>
    <v>       0.00000000       3.63689000       0.00000000 </v>
    <v>       0.00000000       0.00000000       3.63689000 </v>
   </varray>
   <i name="volume">     48.10503082 </i>
   <varray name="rec_basis" >
    <v>       0.27496020      -0.00000000       0.00000000 </v>
    <v>       0.00000000       0.27496020       0.00000000 </v>
    <v>      -0.00000000      -0.00000000       0.27496020 </v>
   </varray>
  </crystal>
  <varray name="positions" >
   <v>       0.00000000       0.00000000       0.00000000 </v>
   <v>       0.00000000       0.50000000       0.50000000 </v>
   <v>       0.50000000       0.00000000       0.50000000 </v>
   <v>       0.50000000       0.50000000       0.00000000 </v>
  </varray>
 </structure>
</modeling>
