   4   4   1   0
  0.1917938E+02  0.4271630E-09  0.4276820E-09  0.4571480E-09  0.5000000E-15
  1.000000000000000E-004
  CAR 
 O                                       
     36.99364720    -32.05938352  301     -2.79816175      1.00000000
    -32.059  0.0000E+00  0.0000E+00  0.0000E+00  0.0000E+00
    -31.829  0.0000E+00  0.0000E+00  0.0000E+00  0.0000E+00
    -31.599  0.0000E+00  0.0000E+00  0.0000E+00  0.0000E+00
    -31.369  0.0000E+00  0.0000E+00  0.0000E+00  0.0000E+00
    -31.139  0.0000E+00  0.0000E+00  0.0000E+00  0.0000E+00
    -30.908  0.0000E+00  0.0000E+00  0.0000E+00  0.0000E+00
    -30.678  0.0000E+00  0.0000E+00  0.0000E+00  0.0000E+00
    -30.448  0.0000E+00  0.0000E+00  0.0000E+00  0.0000E+00
    -30.218  0.0000E+00  0.0000E+00  0.0000E+00  0.0000E+00
    -29.988  0.0000E+00  0.0000E+00  0.0000E+00  0.0000E+00
    -29.758  0.0000E+00  0.0000E+00  0.0000E+00  0.0000E+00
    -29.527  0.0000E+00  0.0000E+00  0.0000E+00  0.0000E+00
    -29.297  0.0000E+00  0.0000E+00  0.0000E+00  0.0000E+00
    -29.067  0.1872E-04  0.1872E-04  0.4308E-05  0.4308E-05
    -28.837  0.4250E+01  0.4250E+01  0.9782E+00  0.9782E+00
    -28.607  0.9473E-01  0.9473E-01  0.1000E+01  0.1000E+01
    -28.377  0.0000E+00  0.0000E+00  0.1000E+01  0.1000E+01
    -28.146  0.0000E+00  0.0000E+00  0.1000E+01  0.1000E+01
    -27.916  0.6175E-06  0.6175E-06  0.1000E+01  0.1000E+01
    -27.686  0.3969E+01  0.3969E+01  0.1913E+01  0.1913E+01
    -27.456  0.3758E+00  0.3758E+00  0.2000E+01  0.2000E+01
    -27.226  0.0000E+00  0.0000E+00  0.2000E+01  0.2000E+01
    -26.995  0.0000E+00  0.0000E+00  0.2000E+01  0.2000E+01
    -26.765  0.0000E+00  0.0000E+00  0.2000E+01  0.2000E+01
    -26.535  0.0000E+00  0.0000E+00  0.2000E+01  0.2000E+01
    -26.305  0.0000E+00  0.0000E+00  0.2000E+01  0.2000E+01
    -26.075  0.0000E+00  0.0000E+00  0.2000E+01  0.2000E+01
    -25.845  0.0000E+00  0.0000E+00  0.2000E+01  0.2000E+01
    -25.614  0.0000E+00  0.0000E+00  0.2000E+01  0.2000E+01
    -25.384  0.0000E+00  0.0000E+00  0.2000E+01  0.2000E+01
    -25.154  0.0000E+00  0.0000E+00  0.2000E+01  0.2000E+01
    -24.924  0.0000E+00  0.0000E+00  0.2000E+01  0.2000E+01
    -24.694  0.0000E+00  0.0000E+00  0.2000E+01  0.2000E+01
    -24.464  0.0000E+00  0.0000E+00  0.2000E+01  0.2000E+01
    -24.233  0.0000E+00  0.0000E+00  0.2000E+01  0.2000E+01
    -24.003  0.0000E+00  0.0000E+00  0.2000E+01  0.2000E+01
    -23.773  0.0000E+00  0.0000E+00  0.2000E+01  0.2000E+01
    -23.543  0.0000E+00  0.0000E+00  0.2000E+01  0.2000E+01
    -23.313  0.0000E+00  0.0000E+00  0.2000E+01  0.2000E+01
    -23.082  0.0000E+00  0.0000E+00  0.2000E+01  0.2000E+01
    -22.852  0.0000E+00  0.0000E+00  0.2000E+01  0.2000E+01
    -22.622  0.0000E+00  0.0000E+00  0.2000E+01  0.2000E+01
    -22.392  0.0000E+00  0.0000E+00  0.2000E+01  0.2000E+01
    -22.162  0.0000E+00  0.0000E+00  0.2000E+01  0.2000E+01
    -21.932  0.0000E+00  0.0000E+00  0.2000E+01  0.2000E+01
    -21.701  0.0000E+00  0.0000E+00  0.2000E+01  0.2000E+01
    -21.471  0.0000E+00  0.0000E+00  0.2000E+01  0.2000E+01
    -21.241  0.0000E+00  0.0000E+00  0.2000E+01  0.2000E+01
    -21.011  0.0000E+00  0.0000E+00  0.2000E+01  0.2000E+01
    -20.781  0.0000E+00  0.0000E+00  0.2000E+01  0.2000E+01
    -20.551  0.0000E+00  0.0000E+00  0.2000E+01  0.2000E+01
    -20.320  0.0000E+00  0.0000E+00  0.2000E+01  0.2000E+01
    -20.090  0.0000E+00  0.0000E+00  0.2000E+01  0.2000E+01
    -19.860  0.0000E+00  0.0000E+00  0.2000E+01  0.2000E+01
    -19.630  0.0000E+00  0.0000E+00  0.2000E+01  0.2000E+01
    -19.400  0.0000E+00  0.0000E+00  0.2000E+01  0.2000E+01
    -19.169  0.0000E+00  0.0000E+00  0.2000E+01  0.2000E+01
    -18.939  0.0000E+00  0.0000E+00  0.2000E+01  0.2000E+01
    -18.709  0.0000E+00  0.0000E+00  0.2000E+01  0.2000E+01
    -18.479  0.0000E+00  0.0000E+00  0.2000E+01  0.2000E+01
    -18.249  0.0000E+00  0.0000E+00  0.2000E+01  0.2000E+01
    -18.019  0.0000E+00  0.0000E+00  0.2000E+01  0.2000E+01
    -17.788  0.0000E+00  0.0000E+00  0.2000E+01  0.2000E+01
    -17.558  0.0000E+00  0.0000E+00  0.2000E+01  0.2000E+01
    -17.328  0.0000E+00  0.0000E+00  0.2000E+01  0.2000E+01
    -17.098  0.1354E-02  0.1354E-02  0.2000E+01  0.2000E+01
    -16.868  0.4176E+01  0.4176E+01  0.2961E+01  0.2961E+01
    -16.638  0.1673E+00  0.1673E+00  0.3000E+01  0.3000E+01
    -16.407  0.0000E+00  0.0000E+00  0.3000E+01  0.3000E+01
    -16.177  0.0000E+00  0.0000E+00  0.3000E+01  0.3000E+01
    -15.947  0.0000E+00  0.0000E+00  0.3000E+01  0.3000E+01
    -15.717  0.0000E+00  0.0000E+00  0.3000E+01  0.3000E+01
    -15.487  0.1278E-09  0.1278E-09  0.3000E+01  0.3000E+01
    -15.256  0.8837E+00  0.8837E+00  0.3203E+01  0.3203E+01
    -15.026  0.3461E+01  0.3461E+01  0.4000E+01  0.4000E+01
    -14.796  0.1204E-04  0.1204E-04  0.4000E+01  0.4000E+01
    -14.566  0.0000E+00  0.0000E+00  0.4000E+01  0.4000E+01
    -14.336  0.0000E+00  0.0000E+00  0.4000E+01  0.4000E+01
    -14.106  0.0000E+00  0.0000E+00  0.4000E+01  0.4000E+01
    -13.875  0.0000E+00  0.0000E+00  0.4000E+01  0.4000E+01
    -13.645  0.0000E+00  0.0000E+00  0.4000E+01  0.4000E+01
    -13.415  0.0000E+00  0.0000E+00  0.4000E+01  0.4000E+01
    -13.185  0.0000E+00  0.0000E+00  0.4000E+01  0.4000E+01
    -12.955  0.0000E+00  0.0000E+00  0.4000E+01  0.4000E+01
    -12.725  0.0000E+00  0.0000E+00  0.4000E+01  0.4000E+01
    -12.494  0.0000E+00  0.0000E+00  0.4000E+01  0.4000E+01
    -12.264  0.0000E+00  0.0000E+00  0.4000E+01  0.4000E+01
    -12.034  0.0000E+00  0.0000E+00  0.4000E+01  0.4000E+01
    -11.804  0.0000E+00  0.0000E+00  0.4000E+01  0.4000E+01
    -11.574  0.0000E+00  0.0000E+00  0.4000E+01  0.4000E+01
    -11.343  0.0000E+00  0.0000E+00  0.4000E+01  0.4000E+01
    -11.113  0.0000E+00  0.0000E+00  0.4000E+01  0.4000E+01
    -10.883  0.0000E+00  0.0000E+00  0.4000E+01  0.4000E+01
    -10.653  0.0000E+00  0.0000E+00  0.4000E+01  0.4000E+01
    -10.423  0.0000E+00  0.0000E+00  0.4000E+01  0.4000E+01
    -10.193  0.2728E-11  0.2728E-11  0.4000E+01  0.4000E+01
     -9.962  0.1072E+00  0.1072E+00  0.4025E+01  0.4025E+01
     -9.732  0.6063E+01  0.6063E+01  0.5420E+01  0.5420E+01
     -9.502  0.6859E+01  0.6859E+01  0.6999E+01  0.6999E+01
     -9.272  0.3909E-02  0.3909E-02  0.7000E+01  0.7000E+01
     -9.042  0.1574E-06  0.1574E-06  0.7000E+01  0.7000E+01
     -8.812  0.1454E+01  0.1454E+01  0.7335E+01  0.7335E+01
     -8.581  0.2890E+01  0.2890E+01  0.8000E+01  0.8000E+01
     -8.351  0.8775E-03  0.8775E-03  0.8000E+01  0.8000E+01
     -8.121  0.2670E-12  0.2670E-12  0.8000E+01  0.8000E+01
     -7.891  0.1733E+00  0.1733E+00  0.8040E+01  0.8040E+01
     -7.661  0.7314E+01  0.7314E+01  0.9723E+01  0.9723E+01
     -7.430  0.1202E+01  0.1202E+01  0.1000E+02  0.1000E+02
     -7.200  0.0000E+00  0.0000E+00  0.1000E+02  0.1000E+02
     -6.970  0.0000E+00  0.0000E+00  0.1000E+02  0.1000E+02
     -6.740  0.0000E+00  0.0000E+00  0.1000E+02  0.1000E+02
     -6.510  0.0000E+00  0.0000E+00  0.1000E+02  0.1000E+02
     -6.280  0.0000E+00  0.0000E+00  0.1000E+02  0.1000E+02
     -6.049  0.0000E+00  0.0000E+00  0.1000E+02  0.1000E+02
     -5.819  0.0000E+00  0.0000E+00  0.1000E+02  0.1000E+02
     -5.589  0.0000E+00  0.0000E+00  0.1000E+02  0.1000E+02
     -5.359  0.0000E+00  0.0000E+00  0.1000E+02  0.1000E+02
     -5.129  0.0000E+00  0.0000E+00  0.1000E+02  0.1000E+02
     -4.899  0.0000E+00  0.0000E+00  0.1000E+02  0.1000E+02
     -4.668  0.0000E+00  0.0000E+00  0.1000E+02  0.1000E+02
     -4.438  0.0000E+00  0.0000E+00  0.1000E+02  0.1000E+02
     -4.208  0.0000E+00  0.0000E+00  0.1000E+02  0.1000E+02
     -3.978  0.0000E+00  0.0000E+00  0.1000E+02  0.1000E+02
     -3.748  0.0000E+00  0.0000E+00  0.1000E+02  0.1000E+02
     -3.517  0.5928E-03  0.5928E-03  0.1000E+02  0.1000E+02
     -3.287  0.4960E+01  0.4960E+01  0.1114E+02  0.1114E+02
     -3.057  0.3728E+01  0.3728E+01  0.1200E+02  0.1200E+02
     -2.827  0.8876E-04  0.8876E-04  0.1200E+02  0.1200E+02
     -2.597  0.0000E+00  0.0000E+00  0.1200E+02  0.1200E+02
     -2.367  0.0000E+00  0.0000E+00  0.1200E+02  0.1200E+02
     -2.136  0.0000E+00  0.0000E+00  0.1200E+02  0.1200E+02
     -1.906  0.0000E+00  0.0000E+00  0.1200E+02  0.1200E+02
     -1.676  0.0000E+00  0.0000E+00  0.1200E+02  0.1200E+02
     -1.446  0.9158E-11  0.9158E-11  0.1200E+02  0.1200E+02
     -1.216  0.3733E-01  0.3733E-01  0.1201E+02  0.1201E+02
     -0.986  0.5354E+01  0.5354E+01  0.1324E+02  0.1324E+02
     -0.755  0.3297E+01  0.3297E+01  0.1400E+02  0.1400E+02
     -0.525  0.3474E-04  0.3474E-04  0.1400E+02  0.1400E+02
     -0.295  0.0000E+00  0.0000E+00  0.1400E+02  0.1400E+02
     -0.065  0.0000E+00  0.0000E+00  0.1400E+02  0.1400E+02
      0.165  0.0000E+00  0.0000E+00  0.1400E+02  0.1400E+02
      0.396  0.0000E+00  0.0000E+00  0.1400E+02  0.1400E+02
      0.626  0.0000E+00  0.0000E+00  0.1400E+02  0.1400E+02
      0.856  0.0000E+00  0.0000E+00  0.1400E+02  0.1400E+02
      1.086  0.0000E+00  0.0000E+00  0.1400E+02  0.1400E+02
      1.316  0.0000E+00  0.0000E+00  0.1400E+02  0.1400E+02
      1.546  0.0000E+00  0.0000E+00  0.1400E+02  0.1400E+02
      1.777  0.0000E+00  0.0000E+00  0.1400E+02  0.1400E+02
      2.007  0.0000E+00  0.0000E+00  0.1400E+02  0.1400E+02
      2.237  0.0000E+00  0.0000E+00  0.1400E+02  0.1400E+02
      2.467  0.0000E+00  0.0000E+00  0.1400E+02  0.1400E+02
      2.697  0.0000E+00  0.0000E+00  0.1400E+02  0.1400E+02
      2.927  0.0000E+00  0.0000E+00  0.1400E+02  0.1400E+02
      3.158  0.0000E+00  0.0000E+00  0.1400E+02  0.1400E+02
      3.388  0.0000E+00  0.0000E+00  0.1400E+02  0.1400E+02
      3.618  0.1168E-03  0.1168E-03  0.1400E+02  0.1400E+02
      3.848  0.6311E-01  0.6311E-01  0.1401E+02  0.1401E+02
      4.078  0.2265E+00  0.2265E+00  0.1407E+02  0.1407E+02
      4.309  0.4234E+00  0.4234E+00  0.1416E+02  0.1416E+02
      4.539  0.3603E+00  0.3603E+00  0.1425E+02  0.1425E+02
      4.769  0.5216E+00  0.5216E+00  0.1437E+02  0.1437E+02
      4.999  0.4696E+00  0.4696E+00  0.1448E+02  0.1448E+02
      5.229  0.6032E+00  0.6032E+00  0.1461E+02  0.1461E+02
      5.459  0.6836E+00  0.6836E+00  0.1477E+02  0.1477E+02
      5.690  0.6372E+00  0.6372E+00  0.1492E+02  0.1492E+02
      5.920  0.6070E+00  0.6070E+00  0.1506E+02  0.1506E+02
      6.150  0.1070E+01  0.1070E+01  0.1530E+02  0.1530E+02
      6.380  0.1253E+01  0.1253E+01  0.1559E+02  0.1559E+02
      6.610  0.1216E+01  0.1216E+01  0.1587E+02  0.1587E+02
      6.840  0.9083E+00  0.9083E+00  0.1608E+02  0.1608E+02
      7.071  0.8479E+00  0.8479E+00  0.1628E+02  0.1628E+02
      7.301  0.6187E+00  0.6187E+00  0.1642E+02  0.1642E+02
      7.531  0.1127E+01  0.1127E+01  0.1668E+02  0.1668E+02
      7.761  0.1343E+01  0.1343E+01  0.1699E+02  0.1699E+02
      7.991  0.1093E+01  0.1093E+01  0.1724E+02  0.1724E+02
      8.222  0.1602E+01  0.1602E+01  0.1761E+02  0.1761E+02
      8.452  0.1155E+01  0.1155E+01  0.1787E+02  0.1787E+02
      8.682  0.4984E+00  0.4984E+00  0.1799E+02  0.1799E+02
      8.912  0.1387E+00  0.1387E+00  0.1802E+02  0.1802E+02
      9.142  0.6371E+00  0.6371E+00  0.1817E+02  0.1817E+02
      9.372  0.1572E+01  0.1572E+01  0.1853E+02  0.1853E+02
      9.603  0.1490E+01  0.1490E+01  0.1887E+02  0.1887E+02
      9.833  0.8553E+00  0.8553E+00  0.1907E+02  0.1907E+02
     10.063  0.1010E+01  0.1010E+01  0.1930E+02  0.1930E+02
     10.293  0.1177E+01  0.1177E+01  0.1957E+02  0.1957E+02
     10.523  0.6307E+00  0.6307E+00  0.1972E+02  0.1972E+02
     10.753  0.1003E+01  0.1003E+01  0.1995E+02  0.1995E+02
     10.984  0.1203E+01  0.1203E+01  0.2022E+02  0.2022E+02
     11.214  0.1048E+01  0.1048E+01  0.2047E+02  0.2047E+02
     11.444  0.1116E+01  0.1116E+01  0.2072E+02  0.2072E+02
     11.674  0.1191E+01  0.1191E+01  0.2100E+02  0.2100E+02
     11.904  0.9592E+00  0.9592E+00  0.2122E+02  0.2122E+02
     12.135  0.1081E+01  0.1081E+01  0.2147E+02  0.2147E+02
     12.365  0.1319E+01  0.1319E+01  0.2177E+02  0.2177E+02
     12.595  0.9895E+00  0.9895E+00  0.2200E+02  0.2200E+02
     12.825  0.1251E+01  0.1251E+01  0.2229E+02  0.2229E+02
     13.055  0.9911E+00  0.9911E+00  0.2251E+02  0.2251E+02
     13.285  0.9579E+00  0.9579E+00  0.2273E+02  0.2273E+02
     13.516  0.1079E+01  0.1079E+01  0.2298E+02  0.2298E+02
     13.746  0.8985E+00  0.8985E+00  0.2319E+02  0.2319E+02
     13.976  0.7191E+00  0.7191E+00  0.2336E+02  0.2336E+02
     14.206  0.7820E+00  0.7820E+00  0.2354E+02  0.2354E+02
     14.436  0.7484E+00  0.7484E+00  0.2371E+02  0.2371E+02
     14.667  0.1047E+01  0.1047E+01  0.2395E+02  0.2395E+02
     14.897  0.1167E+01  0.1167E+01  0.2422E+02  0.2422E+02
     15.127  0.1543E+01  0.1543E+01  0.2457E+02  0.2457E+02
     15.357  0.1038E+01  0.1038E+01  0.2481E+02  0.2481E+02
     15.587  0.1261E+01  0.1261E+01  0.2510E+02  0.2510E+02
     15.817  0.1367E+01  0.1367E+01  0.2542E+02  0.2542E+02
     16.048  0.9846E+00  0.9846E+00  0.2564E+02  0.2564E+02
     16.278  0.1092E+01  0.1092E+01  0.2589E+02  0.2589E+02
     16.508  0.1116E+01  0.1116E+01  0.2615E+02  0.2615E+02
     16.738  0.9789E+00  0.9789E+00  0.2638E+02  0.2638E+02
     16.968  0.9652E+00  0.9652E+00  0.2660E+02  0.2660E+02
     17.198  0.1008E+01  0.1008E+01  0.2683E+02  0.2683E+02
     17.429  0.9178E+00  0.9178E+00  0.2704E+02  0.2704E+02
     17.659  0.1196E+01  0.1196E+01  0.2732E+02  0.2732E+02
     17.889  0.1220E+01  0.1220E+01  0.2760E+02  0.2760E+02
     18.119  0.1220E+01  0.1220E+01  0.2788E+02  0.2788E+02
     18.349  0.1166E+01  0.1166E+01  0.2815E+02  0.2815E+02
     18.580  0.9957E+00  0.9957E+00  0.2838E+02  0.2838E+02
     18.810  0.9548E+00  0.9548E+00  0.2860E+02  0.2860E+02
     19.040  0.1009E+01  0.1009E+01  0.2883E+02  0.2883E+02
     19.270  0.1197E+01  0.1197E+01  0.2910E+02  0.2910E+02
     19.500  0.9134E+00  0.9134E+00  0.2931E+02  0.2931E+02
     19.730  0.1403E+01  0.1403E+01  0.2964E+02  0.2964E+02
     19.961  0.1317E+01  0.1317E+01  0.2994E+02  0.2994E+02
     20.191  0.1158E+01  0.1158E+01  0.3021E+02  0.3021E+02
     20.421  0.1222E+01  0.1222E+01  0.3049E+02  0.3049E+02
     20.651  0.8606E+00  0.8606E+00  0.3069E+02  0.3069E+02
     20.881  0.1472E+01  0.1472E+01  0.3103E+02  0.3103E+02
     21.111  0.1579E+01  0.1579E+01  0.3139E+02  0.3139E+02
     21.342  0.1444E+01  0.1444E+01  0.3172E+02  0.3172E+02
     21.572  0.1213E+01  0.1213E+01  0.3200E+02  0.3200E+02
     21.802  0.1502E+01  0.1502E+01  0.3235E+02  0.3235E+02
     22.032  0.1239E+01  0.1239E+01  0.3263E+02  0.3263E+02
     22.262  0.1590E+01  0.1590E+01  0.3300E+02  0.3300E+02
     22.493  0.1404E+01  0.1404E+01  0.3332E+02  0.3332E+02
     22.723  0.1238E+01  0.1238E+01  0.3360E+02  0.3360E+02
     22.953  0.1459E+01  0.1459E+01  0.3394E+02  0.3394E+02
     23.183  0.1143E+01  0.1143E+01  0.3420E+02  0.3420E+02
     23.413  0.1325E+01  0.1325E+01  0.3451E+02  0.3451E+02
     23.643  0.1304E+01  0.1304E+01  0.3481E+02  0.3481E+02
     23.874  0.1440E+01  0.1440E+01  0.3514E+02  0.3514E+02
     24.104  0.1260E+01  0.1260E+01  0.3543E+02  0.3543E+02
     24.334  0.1001E+01  0.1001E+01  0.3566E+02  0.3566E+02
     24.564  0.1493E+01  0.1493E+01  0.3600E+02  0.3600E+02
     24.794  0.1197E+01  0.1197E+01  0.3628E+02  0.3628E+02
     25.024  0.1004E+01  0.1004E+01  0.3651E+02  0.3651E+02
     25.255  0.1124E+01  0.1124E+01  0.3677E+02  0.3677E+02
     25.485  0.1256E+01  0.1256E+01  0.3706E+02  0.3706E+02
     25.715  0.1352E+01  0.1352E+01  0.3737E+02  0.3737E+02
     25.945  0.1298E+01  0.1298E+01  0.3767E+02  0.3767E+02
     26.175  0.9705E+00  0.9705E+00  0.3789E+02  0.3789E+02
     26.406  0.1046E+01  0.1046E+01  0.3813E+02  0.3813E+02
     26.636  0.1900E+01  0.1900E+01  0.3857E+02  0.3857E+02
     26.866  0.1468E+01  0.1468E+01  0.3891E+02  0.3891E+02
     27.096  0.1495E+01  0.1495E+01  0.3925E+02  0.3925E+02
     27.326  0.1763E+01  0.1763E+01  0.3966E+02  0.3966E+02
     27.556  0.1990E+01  0.1990E+01  0.4012E+02  0.4012E+02
     27.787  0.1604E+01  0.1604E+01  0.4049E+02  0.4049E+02
     28.017  0.1730E+01  0.1730E+01  0.4088E+02  0.4088E+02
     28.247  0.2544E+01  0.2544E+01  0.4147E+02  0.4147E+02
     28.477  0.2298E+01  0.2298E+01  0.4200E+02  0.4200E+02
     28.707  0.1650E+01  0.1650E+01  0.4238E+02  0.4238E+02
     28.937  0.1770E+01  0.1770E+01  0.4279E+02  0.4279E+02
     29.168  0.1506E+01  0.1506E+01  0.4313E+02  0.4313E+02
     29.398  0.1801E+01  0.1801E+01  0.4355E+02  0.4355E+02
     29.628  0.1915E+01  0.1915E+01  0.4399E+02  0.4399E+02
     29.858  0.1476E+01  0.1476E+01  0.4433E+02  0.4433E+02
     30.088  0.1644E+01  0.1644E+01  0.4471E+02  0.4471E+02
     30.319  0.2211E+01  0.2211E+01  0.4521E+02  0.4521E+02
     30.549  0.2223E+01  0.2223E+01  0.4573E+02  0.4573E+02
     30.779  0.1989E+01  0.1989E+01  0.4618E+02  0.4618E+02
     31.009  0.1910E+01  0.1910E+01  0.4662E+02  0.4662E+02
     31.239  0.2080E+01  0.2080E+01  0.4710E+02  0.4710E+02
     31.469  0.1247E+01  0.1247E+01  0.4739E+02  0.4739E+02
     31.700  0.8424E+00  0.8424E+00  0.4758E+02  0.4758E+02
     31.930  0.4239E+00  0.4239E+00  0.4768E+02  0.4768E+02
     32.160  0.4461E+00  0.4461E+00  0.4778E+02  0.4778E+02
     32.390  0.3612E+00  0.3612E+00  0.4787E+02  0.4787E+02
     32.620  0.1947E+00  0.1947E+00  0.4791E+02  0.4791E+02
     32.850  0.1837E+00  0.1840E+00  0.4795E+02  0.4795E+02
     33.081  0.9276E-01  0.9255E-01  0.4797E+02  0.4797E+02
     33.311  0.2850E-01  0.2850E-01  0.4798E+02  0.4798E+02
     33.541  0.4706E-01  0.4706E-01  0.4799E+02  0.4799E+02
     33.771  0.1530E-02  0.1530E-02  0.4799E+02  0.4799E+02
     34.001  0.3328E-01  0.3328E-01  0.4800E+02  0.4800E+02
     34.232  0.3216E-06  0.3216E-06  0.4800E+02  0.4800E+02
     34.462  0.0000E+00  0.0000E+00  0.4800E+02  0.4800E+02
     34.692  0.0000E+00  0.0000E+00  0.4800E+02  0.4800E+02
     34.922  0.0000E+00  0.0000E+00  0.4800E+02  0.4800E+02
     35.152  0.0000E+00  0.0000E+00  0.4800E+02  0.4800E+02
     35.382  0.0000E+00  0.0000E+00  0.4800E+02  0.4800E+02
     35.613  0.0000E+00  0.0000E+00  0.4800E+02  0.4800E+02
     35.843  0.0000E+00  0.0000E+00  0.4800E+02  0.4800E+02
     36.073  0.0000E+00  0.0000E+00  0.4800E+02  0.4800E+02
     36.303  0.0000E+00  0.0000E+00  0.4800E+02  0.4800E+02
     36.533  0.0000E+00  0.0000E+00  0.4800E+02  0.4800E+02
     36.763  0.0000E+00  0.0000E+00  0.4800E+02  0.4800E+02
     36.994  0.0000E+00  0.0000E+00  0.4800E+02  0.4800E+02
     36.99364720    -32.05938352  301     -2.79816175      1.00000000
    -32.059  0.0000E+00  0.0000E+00  0.0000E+00  0.0000E+00  0.0000E+00  0.0000E+00  0.0000E+00  0.0000E+00  0.0000E+00  0.0000E+00  0.0000E+00  0.0000E+00  0.0000E+00  0.0000E+00  0.0000E+00  0.0000E+00  0.0000E+00  0.0000E+00
    -31.829  0.0000E+00  0.0000E+00  0.0000E+00  0.0000E+00  0.0000E+00  0.0000E+00  0.0000E+00  0.0000E+00  0.0000E+00  0.0000E+00  0.0000E+00  0.0000E+00  0.0000E+00  0.0000E+00  0.0000E+00  0.0000E+00  0.0000E+00  0.0000E+00
    -31.599  0.0000E+00  0.0000E+00  0.0000E+00  0.0000E+00  0.0000E+00  0.0000E+00  0.0000E+00  0.0000E+00  0.0000E+00  0.0000E+00  0.0000E+00  0.0000E+00  0.0000E+00  0.0000E+00  0.0000E+00  0.0000E+00  0.0000E+00  0.0000E+00
    -31.369  0.0000E+00  0.0000E+00  0.0000E+00  0.0000E+00  0.0000E+00  0.0000E+00  0.0000E+00  0.0000E+00  0.0000E+00  0.0000E+00  0.0000E+00  0.0000E+00  0.0000E+00  0.0000E+00  0.0000E+00  0.0000E+00  0.0000E+00  0.0000E+00
    -31.139  0.0000E+00  0.0000E+00  0.0000E+00  0.0000E+00  0.0000E+00  0.0000E+00  0.0000E+00  0.0000E+00  0.0000E+00  0.0000E+00  0.0000E+00  0.0000E+00  0.0000E+00  0.0000E+00  0.0000E+00  0.0000E+00  0.0000E+00  0.0000E+00
    -30.908  0.0000E+00  0.0000E+00  0.0000E+00  0.0000E+00  0.0000E+00  0.0000E+00  0.0000E+00  0.0000E+00  0.0000E+00  0.0000E+00  0.0000E+00  0.0000E+00  0.0000E+00  0.0000E+00  0.0000E+00  0.0000E+00  0.0000E+00  0.0000E+00
    -30.678  0.0000E+00  0.0000E+00  0.0000E+00  0.0000E+00  0.0000E+00  0.0000E+00  0.0000E+00  0.0000E+00  0.0000E+00  0.0000E+00  0.0000E+00  0.0000E+00  0.0000E+00  0.0000E+00  0.0000E+00  0.0000E+00  0.0000E+00  0.0000E+00
    -30.448  0.0000E+00  0.0000E+00  0.0000E+00  0.0000E+00  0.0000E+00  0.0000E+00  0.0000E+00  0.0000E+00  0.0000E+00  0.0000E+00  0.0000E+00  0.0000E+00  0.0000E+00  0.0000E+00  0.0000E+00  0.0000E+00  0.0000E+00  0.0000E+00
    -30.218  0.0000E+00  0.0000E+00  0.0000E+00  0.0000E+00  0.0000E+00  0.0000E+00  0.0000E+00  0.0000E+00  0.0000E+00  0.0000E+00  0.0000E+00  0.0000E+00  0.0000E+00  0.0000E+00  0.0000E+00  0.0000E+00  0.0000E+00  0.0000E+00
    -29.988  0.0000E+00  0.0000E+00  0.0000E+00  0.0000E+00  0.0000E+00  0.0000E+00  0.0000E+00  0.0000E+00  0.0000E+00  0.0000E+00  0.0000E+00  0.0000E+00  0.0000E+00  0.0000E+00  0.0000E+00  0.0000E+00  0.0000E+00  0.0000E+00
    -29.758  0.0000E+00  0.0000E+00  0.0000E+00  0.0000E+00  0.0000E+00  0.0000E+00  0.0000E+00  0.0000E+00  0.0000E+00  0.0000E+00  0.0000E+00  0.0000E+00  0.0000E+00  0.0000E+00  0.0000E+00  0.0000E+00  0.0000E+00  0.0000E+00
    -29.527  0.0000E+00  0.0000E+00  0.0000E+00  0.0000E+00  0.0000E+00  0.0000E+00  0.0000E+00  0.0000E+00  0.0000E+00  0.0000E+00  0.0000E+00  0.0000E+00  0.0000E+00  0.0000E+00  0.0000E+00  0.0000E+00  0.0000E+00  0.0000E+00
    -29.297  0.0000E+00  0.0000E+00  0.0000E+00  0.0000E+00  0.0000E+00  0.0000E+00  0.0000E+00  0.0000E+00  0.0000E+00  0.0000E+00  0.0000E+00  0.0000E+00  0.0000E+00  0.0000E+00  0.0000E+00  0.0000E+00  0.0000E+00  0.0000E+00
    -29.067  0.7428E-05  0.2391E-07  0.2371E-12  0.3991E-10  0.1514E-05  0.4935E-08  0.2818E-06  0.9499E-09  0.0000E+00  0.0000E+00  0.0000E+00  0.0000E+00  0.0000E+00  0.0000E+00  0.0000E+00  0.0000E+00  0.0000E+00  0.0000E+00
    -28.837  0.1689E+01  0.3318E-02  0.4571E-07  0.1024E-04  0.3444E+00  0.6868E-03  0.6411E-01  0.1361E-03  0.0000E+00  0.0000E+00  0.0000E+00  0.0000E+00  0.0000E+00  0.0000E+00  0.0000E+00  0.0000E+00  0.0000E+00  0.0000E+00
    -28.607  0.3768E-01  0.5536E-04  0.9058E-09  0.2335E-06  0.7684E-02  0.1148E-04  0.1430E-02  0.2326E-05  0.0000E+00  0.0000E+00  0.0000E+00  0.0000E+00  0.0000E+00  0.0000E+00  0.0000E+00  0.0000E+00  0.0000E+00  0.0000E+00
    -28.377  0.0000E+00  0.0000E+00  0.0000E+00  0.0000E+00  0.0000E+00  0.0000E+00  0.0000E+00  0.0000E+00  0.0000E+00  0.0000E+00  0.0000E+00  0.0000E+00  0.0000E+00  0.0000E+00  0.0000E+00  0.0000E+00  0.0000E+00  0.0000E+00
    -28.146  0.0000E+00  0.0000E+00  0.0000E+00  0.0000E+00  0.0000E+00  0.0000E+00  0.0000E+00  0.0000E+00  0.0000E+00  0.0000E+00  0.0000E+00  0.0000E+00  0.0000E+00  0.0000E+00  0.0000E+00  0.0000E+00  0.0000E+00  0.0000E+00
    -27.916  0.4221E-09  0.2415E-06  0.2593E-11  0.1320E-14  0.9631E-10  0.5521E-07  0.2001E-10  0.1028E-07  0.0000E+00  0.0000E+00  0.0000E+00  0.0000E+00  0.0000E+00  0.0000E+00  0.0000E+00  0.0000E+00  0.0000E+00  0.0000E+00
    -27.686  0.3620E-02  0.1552E+01  0.1491E-04  0.9121E-08  0.8237E-03  0.3548E+00  0.1655E-03  0.6604E-01  0.0000E+00  0.0000E+00  0.0000E+00  0.0000E+00  0.0000E+00  0.0000E+00  0.0000E+00  0.0000E+00  0.0000E+00  0.0000E+00
    -27.456  0.3852E-03  0.1469E+00  0.1346E-05  0.8915E-09  0.8758E-04  0.3359E-01  0.1740E-04  0.6252E-02  0.0000E+00  0.0000E+00  0.0000E+00  0.0000E+00  0.0000E+00  0.0000E+00  0.0000E+00  0.0000E+00  0.0000E+00  0.0000E+00
    -27.226  0.0000E+00  0.0000E+00  0.0000E+00  0.0000E+00  0.0000E+00  0.0000E+00  0.0000E+00  0.0000E+00  0.0000E+00  0.0000E+00  0.0000E+00  0.0000E+00  0.0000E+00  0.0000E+00  0.0000E+00  0.0000E+00  0.0000E+00  0.0000E+00
    -26.995  0.0000E+00  0.0000E+00  0.0000E+00  0.0000E+00  0.0000E+00  0.0000E+00  0.0000E+00  0.0000E+00  0.0000E+00  0.0000E+00  0.0000E+00  0.0000E+00  0.0000E+00  0.0000E+00  0.0000E+00  0.0000E+00  0.0000E+00  0.0000E+00
    -26.765  0.0000E+00  0.0000E+00  0.0000E+00  0.0000E+00  0.0000E+00  0.0000E+00  0.0000E+00  0.0000E+00  0.0000E+00  0.0000E+00  0.0000E+00  0.0000E+00  0.0000E+00  0.0000E+00  0.0000E+00  0.0000E+00  0.0000E+00  0.0000E+00
    -26.535  0.0000E+00  0.0000E+00  0.0000E+00  0.0000E+00  0.0000E+00  0.0000E+00  0.0000E+00  0.0000E+00  0.0000E+00  0.0000E+00  0.0000E+00  0.0000E+00  0.0000E+00  0.0000E+00  0.0000E+00  0.0000E+00  0.0000E+00  0.0000E+00
    -26.305  0.0000E+00  0.0000E+00  0.0000E+00  0.0000E+00  0.0000E+00  0.0000E+00  0.0000E+00  0.0000E+00  0.0000E+00  0.0000E+00  0.0000E+00  0.0000E+00  0.0000E+00  0.0000E+00  0.0000E+00  0.0000E+00  0.0000E+00  0.0000E+00
    -26.075  0.0000E+00  0.0000E+00  0.0000E+00  0.0000E+00  0.0000E+00  0.0000E+00  0.0000E+00  0.0000E+00  0.0000E+00  0.0000E+00  0.0000E+00  0.0000E+00  0.0000E+00  0.0000E+00  0.0000E+00  0.0000E+00  0.0000E+00  0.0000E+00
    -25.845  0.0000E+00  0.0000E+00  0.0000E+00  0.0000E+00  0.0000E+00  0.0000E+00  0.0000E+00  0.0000E+00  0.0000E+00  0.0000E+00  0.0000E+00  0.0000E+00  0.0000E+00  0.0000E+00  0.0000E+00  0.0000E+00  0.0000E+00  0.0000E+00
    -25.614  0.0000E+00  0.0000E+00  0.0000E+00  0.0000E+00  0.0000E+00  0.0000E+00  0.0000E+00  0.0000E+00  0.0000E+00  0.0000E+00  0.0000E+00  0.0000E+00  0.0000E+00  0.0000E+00  0.0000E+00  0.0000E+00  0.0000E+00  0.0000E+00
    -25.384  0.0000E+00  0.0000E+00  0.0000E+00  0.0000E+00  0.0000E+00  0.0000E+00  0.0000E+00  0.0000E+00  0.0000E+00  0.0000E+00  0.0000E+00  0.0000E+00  0.0000E+00  0.0000E+00  0.0000E+00  0.0000E+00  0.0000E+00  0.0000E+00
    -25.154  0.0000E+00  0.0000E+00  0.0000E+00  0.0000E+00  0.0000E+00  0.0000E+00  0.0000E+00  0.0000E+00  0.0000E+00  0.0000E+00  0.0000E+00  0.0000E+00  0.0000E+00  0.0000E+00  0.0000E+00  0.0000E+00  0.0000E+00  0.0000E+00
    -24.924  0.0000E+00  0.0000E+00  0.0000E+00  0.0000E+00  0.0000E+00  0.0000E+00  0.0000E+00  0.0000E+00  0.0000E+00  0.0000E+00  0.0000E+00  0.0000E+00  0.0000E+00  0.0000E+00  0.0000E+00  0.0000E+00  0.0000E+00  0.0000E+00
    -24.694  0.0000E+00  0.0000E+00  0.0000E+00  0.0000E+00  0.0000E+00  0.0000E+00  0.0000E+00  0.0000E+00  0.0000E+00  0.0000E+00  0.0000E+00  0.0000E+00  0.0000E+00  0.0000E+00  0.0000E+00  0.0000E+00  0.0000E+00  0.0000E+00
    -24.464  0.0000E+00  0.0000E+00  0.0000E+00  0.0000E+00  0.0000E+00  0.0000E+00  0.0000E+00  0.0000E+00  0.0000E+00  0.0000E+00  0.0000E+00  0.0000E+00  0.0000E+00  0.0000E+00  0.0000E+00  0.0000E+00  0.0000E+00  0.0000E+00
    -24.233  0.0000E+00  0.0000E+00  0.0000E+00  0.0000E+00  0.0000E+00  0.0000E+00  0.0000E+00  0.0000E+00  0.0000E+00  0.0000E+00  0.0000E+00  0.0000E+00  0.0000E+00  0.0000E+00  0.0000E+00  0.0000E+00  0.0000E+00  0.0000E+00
    -24.003  0.0000E+00  0.0000E+00  0.0000E+00  0.0000E+00  0.0000E+00  0.0000E+00  0.0000E+00  0.0000E+00  0.0000E+00  0.0000E+00  0.0000E+00  0.0000E+00  0.0000E+00  0.0000E+00  0.0000E+00  0.0000E+00  0.0000E+00  0.0000E+00
    -23.773  0.0000E+00  0.0000E+00  0.0000E+00  0.0000E+00  0.0000E+00  0.0000E+00  0.0000E+00  0.0000E+00  0.0000E+00  0.0000E+00  0.0000E+00  0.0000E+00  0.0000E+00  0.0000E+00  0.0000E+00  0.0000E+00  0.0000E+00  0.0000E+00
    -23.543  0.0000E+00  0.0000E+00  0.0000E+00  0.0000E+00  0.0000E+00  0.0000E+00  0.0000E+00  0.0000E+00  0.0000E+00  0.0000E+00  0.0000E+00  0.0000E+00  0.0000E+00  0.0000E+00  0.0000E+00  0.0000E+00  0.0000E+00  0.0000E+00
    -23.313  0.0000E+00  0.0000E+00  0.0000E+00  0.0000E+00  0.0000E+00  0.0000E+00  0.0000E+00  0.0000E+00  0.0000E+00  0.0000E+00  0.0000E+00  0.0000E+00  0.0000E+00  0.0000E+00  0.0000E+00  0.0000E+00  0.0000E+00  0.0000E+00
    -23.082  0.0000E+00  0.0000E+00  0.0000E+00  0.0000E+00  0.0000E+00  0.0000E+00  0.0000E+00  0.0000E+00  0.0000E+00  0.0000E+00  0.0000E+00  0.0000E+00  0.0000E+00  0.0000E+00  0.0000E+00  0.0000E+00  0.0000E+00  0.0000E+00
    -22.852  0.0000E+00  0.0000E+00  0.0000E+00  0.0000E+00  0.0000E+00  0.0000E+00  0.0000E+00  0.0000E+00  0.0000E+00  0.0000E+00  0.0000E+00  0.0000E+00  0.0000E+00  0.0000E+00  0.0000E+00  0.0000E+00  0.0000E+00  0.0000E+00
    -22.622  0.0000E+00  0.0000E+00  0.0000E+00  0.0000E+00  0.0000E+00  0.0000E+00  0.0000E+00  0.0000E+00  0.0000E+00  0.0000E+00  0.0000E+00  0.0000E+00  0.0000E+00  0.0000E+00  0.0000E+00  0.0000E+00  0.0000E+00  0.0000E+00
    -22.392  0.0000E+00  0.0000E+00  0.0000E+00  0.0000E+00  0.0000E+00  0.0000E+00  0.0000E+00  0.0000E+00  0.0000E+00  0.0000E+00  0.0000E+00  0.0000E+00  0.0000E+00  0.0000E+00  0.0000E+00  0.0000E+00  0.0000E+00  0.0000E+00
    -22.162  0.0000E+00  0.0000E+00  0.0000E+00  0.0000E+00  0.0000E+00  0.0000E+00  0.0000E+00  0.0000E+00  0.0000E+00  0.0000E+00  0.0000E+00  0.0000E+00  0.0000E+00  0.0000E+00  0.0000E+00  0.0000E+00  0.0000E+00  0.0000E+00
    -21.932  0.0000E+00  0.0000E+00  0.0000E+00  0.0000E+00  0.0000E+00  0.0000E+00  0.0000E+00  0.0000E+00  0.0000E+00  0.0000E+00  0.0000E+00  0.0000E+00  0.0000E+00  0.0000E+00  0.0000E+00  0.0000E+00  0.0000E+00  0.0000E+00
    -21.701  0.0000E+00  0.0000E+00  0.0000E+00  0.0000E+00  0.0000E+00  0.0000E+00  0.0000E+00  0.0000E+00  0.0000E+00  0.0000E+00  0.0000E+00  0.0000E+00  0.0000E+00  0.0000E+00  0.0000E+00  0.0000E+00  0.0000E+00  0.0000E+00
    -21.471  0.0000E+00  0.0000E+00  0.0000E+00  0.0000E+00  0.0000E+00  0.0000E+00  0.0000E+00  0.0000E+00  0.0000E+00  0.0000E+00  0.0000E+00  0.0000E+00  0.0000E+00  0.0000E+00  0.0000E+00  0.0000E+00  0.0000E+00  0.0000E+00
    -21.241  0.0000E+00  0.0000E+00  0.0000E+00  0.0000E+00  0.0000E+00  0.0000E+00  0.0000E+00  0.0000E+00  0.0000E+00  0.0000E+00  0.0000E+00  0.0000E+00  0.0000E+00  0.0000E+00  0.0000E+00  0.0000E+00  0.0000E+00  0.0000E+00
    -21.011  0.0000E+00  0.0000E+00  0.0000E+00  0.0000E+00  0.0000E+00  0.0000E+00  0.0000E+00  0.0000E+00  0.0000E+00  0.0000E+00  0.0000E+00  0.0000E+00  0.0000E+00  0.0000E+00  0.0000E+00  0.0000E+00  0.0000E+00  0.0000E+00
    -20.781  0.0000E+00  0.0000E+00  0.0000E+00  0.0000E+00  0.0000E+00  0.0000E+00  0.0000E+00  0.0000E+00  0.0000E+00  0.0000E+00  0.0000E+00  0.0000E+00  0.0000E+00  0.0000E+00  0.0000E+00  0.0000E+00  0.0000E+00  0.0000E+00
    -20.551  0.0000E+00  0.0000E+00  0.0000E+00  0.0000E+00  0.0000E+00  0.0000E+00  0.0000E+00  0.0000E+00  0.0000E+00  0.0000E+00  0.0000E+00  0.0000E+00  0.0000E+00  0.0000E+00  0.0000E+00  0.0000E+00  0.0000E+00  0.0000E+00