Cs                                      
   1.00000000000000     
     6.161530    0.000000    0.000000
     0.000000    6.161530    0.000000
     0.000000    0.000000    6.161530
   Cs
     2
Direct
  0.000000  0.000000  0.000000
  0.500000  0.500000  0.500000
 
   56   56   56
 -288.07     -250.00     -147.25     -9.7776      125.21      226.27      276.76      277.02      240.17      184.96    
  129.25      85.458      55.350      35.652      23.093      15.166      10.188      7.0927      5.1979      4.0548    
  3.3720      2.9648      2.7189      2.5681      2.4773      2.4255      2.3963      2.3795      2.3736      2.3795    
  2.3963      2.4255      2.4773      2.5681      2.7189      2.9648      3.3720      4.0548      5.1979      7.0927    
  10.188      15.166      23.093      35.652      55.350      85.458      129.25      184.96      240.17      277.02    
  276.76      226.27      125.21     -9.7776     -147.25     -250.00     -250.00     -213.89     -116.56      13.259    
  139.99      233.65      278.58      275.43      237.07      181.74      126.72      83.821      54.350      35.058    
  22.745      14.961      10.068      7.0235      5.1585      4.0328      3.3597      2.9579      2.7150      2.5660    
  2.4762      2.4250      2.3960      2.3794      2.3735      2.3794      2.3960      2.4250      2.4762      2.5660    
  2.7150      2.9579      3.3597      4.0328      5.1585      7.0235      10.068      14.961      22.745      35.058    
  54.350      83.821      126.72      181.74      237.07      275.43      278.58      233.65      139.99      13.259    
 -116.56     -213.89     -147.25     -116.56     -34.210      74.541      178.59      252.05      281.93      269.70    
  227.56      172.24      119.41      79.114      51.475      33.349      21.738      14.369      9.7209      6.8224    
  5.0439      3.9685      3.3239      2.9378      2.7037      2.5599      2.4731      2.4235      2.3953      2.3791    
  2.3734      2.3791      2.3953      2.4235      2.4731      2.5599      2.7037      2.9378      3.3239      3.9685    
  5.0439      6.8224      9.7209      14.369      21.738      33.349      51.475      79.114      119.41      172.24    
  227.56      269.70      281.93      252.05      178.59      74.541     -34.210     -116.56     -9.7776      13.259    
  74.541      153.78      226.28      271.98      281.57      257.60      211.23      156.99      108.15      71.911    
  47.069      30.719      20.181      13.448      9.1795      6.5080      4.8644      3.8676      3.2675      2.9059    
  2.6857      2.5502      2.4683      2.4211      2.3941      2.3786      2.3732      2.3786      2.3941      2.4211    
  2.4683      2.5502      2.6857      2.9059      3.2675      3.8676      4.8644      6.5080      9.1795      13.448    
  20.181      30.719      47.069      71.911      108.15      156.99      211.23      257.60      281.57      271.98    
  226.28      153.78      74.541      13.259      125.21      139.99      178.59      226.28      265.47      282.43    
  271.79      237.13      188.25      137.17      94.254      63.040      41.628      27.449      18.229      12.286    
  8.4930      6.1080      4.6353      3.7381      3.1947      2.8646      2.6623      2.5376      2.4621      2.4182    
  2.3928      2.3783      2.3733      2.3783      2.3928      2.4182      2.4621      2.5376      2.6623      2.8646    
  3.1947      3.7381      4.6353      6.1080      8.4930      12.286      18.229      27.449      41.628      63.040    
  94.254      137.17      188.25      237.13      271.79      282.43      265.47      226.28      178.59      139.99    
  226.27      233.65      252.05      271.98      282.43      275.48      249.24      207.97      160.02      114.81    
  79.165      53.420      35.696      23.850      16.058      10.983      7.7184      5.6549      4.3746      3.5900    
  3.1106      2.8167      2.6351      2.5230      2.4550      2.4150      2.3914      2.3781      2.3735      2.3781    
  2.3914      2.4150      2.4550      2.5230      2.6351      2.8167      3.1106      3.5900      4.3746      5.6549    
  7.7184      10.983      16.058      23.850      35.696      53.420      79.165      114.81      160.02      207.97    
  249.24      275.48      282.43      271.98      252.05      233.65      276.76      278.58      281.93      281.57    
  271.79      249.24      214.57      172.32      129.34      92.466      64.265      43.901      29.773      20.213    
  13.837      9.6372      6.9133      5.1816      4.1008      3.4331      3.0208      2.7651      2.6059      2.5073    
  2.4473      2.4115      2.3901      2.3779      2.3738      2.3779      2.3901      2.4115      2.4473      2.5073    
  2.6059      2.7651      3.0208      3.4331      4.1008      5.1816      6.9133      9.6372      13.837      20.213    
  29.773      43.901      64.265      92.466      129.34      172.32      214.57      249.24      271.79      281.57    
  281.93      278.58      277.02      275.43      269.70      257.60      237.13      207.97      172.32      134.55    
  100.02      71.978      50.628      35.129      24.246      16.768      11.706      8.3334      6.1285      4.7177    
  3.8304      3.2766      2.9303      2.7127      2.5762      2.4914      2.4396      2.4081      2.3889      2.3779    
  2.3742      2.3779      2.3889      2.4081      2.4396      2.4914      2.5762      2.7127      2.9303      3.2766    
  3.8304      4.7177      6.1285      8.3334      11.706      16.768      24.246      35.129      50.628      71.978    
  100.02      134.55      172.32      207.97      237.13      257.60      269.70      275.43      240.17      237.07    
  227.56      211.23      188.25      160.02      129.34      100.02      74.778      54.442      38.904      27.499    
  19.362      13.674      9.7679      7.1366      5.4034      4.2861      3.5766      3.1279      2.8432      2.6621    
  2.5475      2.4761      2.4320      2.4048      2.3877      2.3779      2.3746      2.3779      2.3877      2.4048    
  2.4320      2.4761      2.5475      2.6621      2.8432      3.1279      3.5766      4.2861      5.4034      7.1366    
  9.7679      13.674      19.362      27.499      38.904      54.442      74.778      100.02      129.34      160.02    
  188.25      211.23      227.56      237.07      184.96      181.74      172.24      156.99      137.17      114.81    
  92.466      71.978      54.442      40.269      29.326      21.165      15.235      11.019      8.0841      6.0886    
  4.7638      3.9021      3.3480      2.9922      2.7629      2.6151      2.5209      2.4618      2.4249      2.4016    
  2.3867      2.3780      2.3752      2.3780      2.3867      2.4016      2.4249      2.4618      2.5209      2.6151    
  2.7629      2.9922      3.3480      3.9021      4.7638      6.0886      8.0841      11.019      15.235      21.165    
  29.326      40.269      54.442      71.978      92.466      114.81      137.17      156.99      172.24      181.74    
  129.25      126.72      119.41      108.15      94.254      79.165      64.265      50.628      38.904      29.326    
  21.812      16.102      11.878      8.8277      6.6809      5.2084      4.2223      3.5733      3.1495      2.8725    
  2.6912      2.5731      2.4971      2.4490      2.4184      2.3986      2.3858      2.3783      2.3758      2.3783    
  2.3858      2.3986      2.4184      2.4490      2.4971      2.5731      2.6912      2.8725      3.1495      3.5733    
  4.2223      5.2084      6.6809      8.8277      11.878      16.102      21.812      29.326      38.904      50.628    
  64.265      79.165      94.254      108.15      119.41      126.72      85.458      83.821      79.114      71.911    
  63.040      53.420      43.901      35.129      27.499      21.165      16.102      12.184      9.2382      7.0850    
  5.5551      4.4965      3.7796      3.3006      2.9820      2.7701      2.6294      2.5367      2.4765      2.4377    
  2.4124      2.3958      2.3849      2.3786      2.3765      2.3786      2.3849      2.3958      2.4124      2.4377    
  2.4765      2.5367      2.6294      2.7701      2.9820      3.3006      3.7796      4.4965      5.5551      7.0850    
  9.2382      12.184      16.102      21.165      27.499      35.129      43.901      53.420      63.040      71.911    
  79.114      83.821      55.350      54.350      51.475      47.069      41.628      35.696      29.773      24.246    
  19.362      15.235      11.878      9.2382      7.2288      5.7458      4.6826      3.9389      3.4280      3.0802    
  2.8444      2.6848      2.5775      2.5061      2.4589      2.4278      2.4070      2.3931      2.3841      2.3790    
  2.3773      2.3790      2.3841      2.3931      2.4070      2.4278      2.4589      2.5061      2.5775      2.6848    
  2.8444      3.0802      3.4280      3.9389      4.6826      5.7458      7.2288      9.2382      11.878      15.235    
  19.362      24.246      29.773      35.696      41.628      47.069      51.475      54.350      35.652      35.058    
  33.349      30.719      27.449      23.850      20.213      16.768      13.674      11.019      8.8277      7.0850    
  5.7458      4.7486      4.0262      3.5137      3.1549      2.9057      2.7335      2.6153      2.5350      2.4808    
  2.4442      2.4193      2.4021      2.3905      2.3832      2.3792      2.3779      2.3792      2.3832      2.3905    
  2.4021      2.4193      2.4442      2.4808      2.5350      2.6153      2.7335      2.9057      3.1549      3.5137    
  4.0262      4.7486      5.7458      7.0850      8.8277      11.019      13.674      16.768      20.213      23.850    
  27.449      30.719      33.349      35.058      23.093      22.745      21.738      20.181      18.229      16.058    
  13.837      11.706      9.7679      8.0841      6.6809      5.5551      4.6826      4.0262      3.5440      3.1955    
  2.9465      2.7699      2.6460      2.5600      2.5009      2.4602      2.4319      2.4118      2.3976      2.3880    
  2.3821      2.3790      2.3781      2.3790      2.3821      2.3880      2.3976      2.4118      2.4319      2.4602    
  2.5009      2.5600      2.6460      2.7699      2.9465      3.1955      3.5440      4.0262      4.6826      5.5551    
  6.6809      8.0841      9.7679      11.706      13.837      16.058      18.229      20.181      21.738      22.745    
  15.166      14.961      14.369      13.448      12.286      10.983      9.6372      8.3334      7.1366      6.0886    
  5.2084      4.4965      3.9389      3.5137      3.1955      2.9608      2.7895      2.6659      2.5781      2.5166    
  2.4738      2.4435      2.4215      2.4053      2.3936      2.3856      2.3809      2.3786      2.3779      2.3786    
  2.3809      2.3856      2.3936      2.4053      2.4215      2.4435      2.4738      2.5166      2.5781      2.6659    
  2.7895      2.9608      3.1955      3.5137      3.9389      4.4965      5.2084      6.0886      7.1366      8.3334    
  9.6372      10.983      12.286      13.448      14.369      14.961      10.188      10.068      9.7209      9.1795    
  8.4930      7.7184      6.9133      6.1285      5.4034      4.7638      4.2223      3.7796      3.4280      3.1549    
  2.9465      2.7895      2.6729      2.5877      2.5265      2.4831      2.4522      2.4296      2.4126      2.3996    
  2.3900      2.3835      2.3797      2.3778      2.3773      2.3778      2.3797      2.3835      2.3900      2.3996    
  2.4126      2.4296      2.4522      2.4831      2.5265      2.5877      2.6729      2.7895      2.9465      3.1549    
  3.4280      3.7796      4.2223      4.7638      5.4034      6.1285      6.9133      7.7184      8.4930      9.1795    
  9.7209      10.068      7.0927      7.0235      6.8224      6.5080      6.1080      5.6549      5.1816      4.7177    
  4.2861      3.9021      3.5733      3.3006      3.0802      2.9057      2.7699      2.6659      2.5877      2.5298    
  2.4878      2.4574      2.4350      2.4181      2.4049      2.3946      2.3869      2.3817      2.3785      2.3770    
  2.3765      2.3770      2.3785      2.3817      2.3869      2.3946      2.4049      2.4181      2.4350      2.4574    
  2.4878      2.5298      2.5877      2.6659      2.7699      2.9057      3.0802      3.3006      3.5733      3.9021    
  4.2861      4.7177      5.1816      5.6549      6.1080      6.5080      6.8224      7.0235      5.1979      5.1585    
  5.0439      4.8644      4.6353      4.3746      4.1008      3.8304      3.5766      3.3480      3.1495      2.9820    
  2.8444      2.7335      2.6460      2.5781      2.5265      2.4878      2.4590      2.4375      2.4212      2.4084    
  2.3983      2.3903      2.3844      2.3802      2.3776      2.3762      2.3758      2.3762      2.3776      2.3802    
  2.3844      2.3903      2.3983      2.4084      2.4212      2.4375      2.4590      2.4878      2.5265      2.5781    
  2.6460      2.7335      2.8444      2.9820      3.1495      3.3480      3.5766      3.8304      4.1008      4.3746    
  4.6353      4.8644      5.0439      5.1585      4.0548      4.0328      3.9685      3.8676      3.7381      3.5900    
  3.4331      3.2766      3.1279      2.9922      2.8725      2.7701      2.6848      2.6153      2.5600      2.5166    
  2.4831      2.4574      2.4375      2.4221      2.4099      2.4003      2.3927      2.3868      2.3823      2.3791    
  2.3769      2.3756      2.3752      2.3756      2.3769      2.3791      2.3823      2.3868      2.3927      2.4003    
  2.4099      2.4221      2.4375      2.4574      2.4831      2.5166      2.5600      2.6153      2.6848      2.7701    
  2.8725      2.9922      3.1279      3.2766      3.4331      3.5900      3.7381      3.8676      3.9685      4.0328    
  3.3720      3.3597      3.3239      3.2675      3.1947      3.1106      3.0208      2.9303      2.8432      2.7629    
  2.6912      2.6294      2.5775      2.5350      2.5009      2.4738      2.4522      2.4350      2.4212      2.4099    
  2.4009      2.3937      2.3882      2.3839      2.3807      2.3781      2.3762      2.3751      2.3746      2.3751    
  2.3762      2.3781      2.3807      2.3839      2.3882      2.3937      2.4009      2.4099      2.4212      2.4350    
  2.4522      2.4738      2.5009      2.5350      2.5775      2.6294      2.6912      2.7629      2.8432      2.9303    
  3.0208      3.1106      3.1947      3.2675      3.3239      3.3597      2.9648      2.9579      2.9378      2.9059    
  2.8646      2.8167      2.7651      2.7127      2.6621      2.6151      2.5731      2.5367      2.5061      2.4808    
  2.4602      2.4435      2.4296      2.4181      2.4084      2.4003      2.3937      2.3886      2.3847      2.3817    
  2.3792      2.3772      2.3756      2.3746      2.3742      2.3746      2.3756      2.3772      2.3792      2.3817    
  2.3847      2.3886      2.3937      2.4003      2.4084      2.4181      2.4296      2.4435      2.4602      2.4808    
  2.5061      2.5367      2.5731      2.6151      2.6621      2.7127      2.7651      2.8167      2.8646      2.9059    
  2.9378      2.9579      2.7189      2.7150      2.7037      2.6857      2.6623      2.6351      2.6059      2.5762    
  2.5475      2.5209      2.4971      2.4765      2.4589      2.4442      2.4319      2.4215      2.4126      2.4049    
  2.3983      2.3927      2.3882      2.3847      2.3819      2.3798      2.3779      2.3763      2.3750      2.3741    
  2.3738      2.3741      2.3750      2.3763      2.3779      2.3798      2.3819      2.3847      2.3882      2.3927    
  2.3983      2.4049      2.4126      2.4215      2.4319      2.4442      2.4589      2.4765      2.4971      2.5209    
  2.5475      2.5762      2.6059      2.6351      2.6623      2.6857      2.7037      2.7150      2.5681      2.5660    
  2.5599      2.5502      2.5376      2.5230      2.5073      2.4914      2.4761      2.4618      2.4490      2.4377    
  2.4278      2.4193      2.4118      2.4053      2.3996      2.3946      2.3903      2.3868      2.3839      2.3817    
  2.3798      2.3782      2.3767      2.3754      2.3744      2.3737      2.3735      2.3737      2.3744      2.3754    
  2.3767      2.3782      2.3798      2.3817      2.3839      2.3868      2.3903      2.3946      2.3996      2.4053    
  2.4118      2.4193      2.4278      2.4377      2.4490      2.4618      2.4761      2.4914      2.5073      2.5230    
  2.5376      2.5502      2.5599      2.5660      2.4773      2.4762      2.4731      2.4683      2.4621      2.4550    
  2.4473      2.4396      2.4320      2.4249      2.4184      2.4124      2.4070      2.4021      2.3976      2.3936    
  2.3900      2.3869      2.3844      2.3823      2.3807      2.3792      2.3779      2.3767      2.3756      2.3746    
  2.3739      2.3734      2.3733      2.3734      2.3739      2.3746      2.3756      2.3767      2.3779      2.3792    
  2.3807      2.3823      2.3844      2.3869      2.3900      2.3936      2.3976      2.4021      2.4070      2.4124    
  2.4184      2.4249      2.4320      2.4396      2.4473      2.4550      2.4621      2.4683      2.4731      2.4762    
  2.4255      2.4250      2.4235      2.4211      2.4182      2.4150      2.4115      2.4081      2.4048      2.4016    
  2.3986      2.3958      2.3931      2.3905      2.3880      2.3856      2.3835      2.3817      2.3802      2.3791    
  2.3781      2.3772      2.3763      2.3754      2.3746      2.3740      2.3735      2.3733      2.3732      2.3733    
  2.3735      2.3740      2.3746      2.3754      2.3763      2.3772      2.3781      2.3791      2.3802      2.3817    
  2.3835      2.3856      2.3880      2.3905      2.3931      2.3958      2.3986      2.4016      2.4048      2.4081    
  2.4115      2.4150      2.4182      2.4211      2.4235      2.4250      2.3963      2.3960      2.3953      2.3941    
  2.3928      2.3914      2.3901      2.3889      2.3877      2.3867      2.3858      2.3849      2.3841      2.3832    
  2.3821      2.3809      2.3797      2.3785      2.3776      2.3769      2.3762      2.3756      2.3750      2.3744    
  2.3739      2.3735      2.3734      2.3733      2.3734      2.3733      2.3734      2.3735      2.3739      2.3744    
  2.3750      2.3756      2.3762      2.3769      2.3776      2.3785      2.3797      2.3809      2.3821      2.3832    
  2.3841      2.3849      2.3858      2.3867      2.3877      2.3889      2.3901      2.3914      2.3928      2.3941    
  2.3953      2.3960      2.3795      2.3794      2.3791      2.3786      2.3783      2.3781      2.3779      2.3779    
  2.3779      2.3780      2.3783      2.3786      2.3790      2.3792      2.3790      2.3786      2.3778      2.3770    
  2.3762      2.3756      2.3751      2.3746      2.3741      2.3737      2.3734      2.3733      2.3733      2.3734    
  2.3735      2.3734      2.3733      2.3733      2.3734      2.3737      2.3741      2.3746      2.3751      2.3756    
  2.3762      2.3770      2.3778      2.3786      2.3790      2.3792      2.3790      2.3786      2.3783      2.3780    
  2.3779      2.3779      2.3779      2.3781      2.3783      2.3786      2.3791      2.3794      2.3736      2.3735    
  2.3734      2.3732      2.3733      2.3735      2.3738      2.3742      2.3746      2.3752      2.3758      2.3765    
  2.3773      2.3779      2.3781      2.3779      2.3773      2.3765      2.3758      2.3752      2.3746      2.3742    
  2.3738      2.3735      2.3733      2.3732      2.3734      2.3735      2.3736      2.3735      2.3734      2.3732    
  2.3733      2.3735      2.3738      2.3742      2.3746      2.3752      2.3758      2.3765      2.3773      2.3779    
  2.3781      2.3779      2.3773      2.3765      2.3758      2.3752      2.3746      2.3742      2.3738      2.3735    
  2.3733      2.3732      2.3734      2.3735      2.3795      2.3794      2.3791      2.3786      2.3783      2.3781    
  2.3779      2.3779      2.3779      2.3780      2.3783      2.3786      2.3790      2.3792      2.3790      2.3786    
  2.3778      2.3770      2.3762      2.3756      2.3751      2.3746      2.3741      2.3737      2.3734      2.3733    
  2.3733      2.3734      2.3735      2.3734      2.3733      2.3733      2.3734      2.3737      2.3741      2.3746    
  2.3751      2.3756      2.3762      2.3770      2.3778      2.3786      2.3790      2.3792      2.3790      2.3786    
  2.3783      2.3780      2.3779      2.3779      2.3779      2.3781      2.3783      2.3786      2.3791      2.3794    
  2.3963      2.3960      2.3953      2.3941      2.3928      2.3914      2.3901      2.3889      2.3877      2.3867    
  2.3858      2.3849      2.3841      2.3832      2.3821      2.3809      2.3797      2.3785      2.3776      2.3769    
  2.3762      2.3756      2.3750      2.3744      2.3739      2.3735      2.3734      2.3733      2.3734      2.3733    
  2.3734      2.3735      2.3739      2.3744      2.3750      2.3756      2.3762      2.3769      2.3776      2.3785    
  2.3797      2.3809      2.3821      2.3832      2.3841      2.3849      2.3858      2.3867      2.3877      2.3889    
  2.3901      2.3914      2.3928      2.3941      2.3953      2.3960      2.4255      2.4250      2.4235      2.4211    
  2.4182      2.4150      2.4115      2.4081      2.4048      2.4016      2.3986      2.3958      2.3931      2.3905    
  2.3880      2.3856      2.3835      2.3817      2.3802      2.3791      2.3781      2.3772      2.3763      2.3754    
  2.3746      2.3740      2.3735      2.3733      2.3732      2.3733      2.3735      2.3740      2.3746      2.3754    
  2.3763      2.3772      2.3781      2.3791      2.3802      2.3817      2.3835      2.3856      2.3880      2.3905    
  2.3931      2.3958      2.3986      2.4016      2.4048      2.4081      2.4115      2.4150      2.4182      2.4211    
  2.4235      2.4250      2.4773      2.4762      2.4731      2.4683      2.4621      2.4550      2.4473      2.4396    
  2.4320      2.4249      2.4184      2.4124      2.4070      2.4021      2.3976      2.3936      2.3900      2.3869    
  2.3844      2.3823      2.3807      2.3792      2.3779      2.3767      2.3756      2.3746      2.3739      2.3734    
  2.3733      2.3734      2.3739      2.3746      2.3756      2.3767      2.3779      2.3792      2.3807      2.3823    
  2.3844      2.3869      2.3900      2.3936      2.3976      2.4021      2.4070      2.4124      2.4184      2.4249    
  2.4320      2.4396      2.4473      2.4550      2.4621      2.4683      2.4731      2.4762      2.5681      2.5660    
  2.5599      2.5502      2.5376      2.5230      2.5073      2.4914      2.4761      2.4618      2.4490      2.4377    
  2.4278      2.4193      2.4118      2.4053      2.3996      2.3946      2.3903      2.3868      2.3839      2.3817    
  2.3798      2.3782      2.3767      2.3754      2.3744      2.3737      2.3735      2.3737      2.3744      2.3754    
  2.3767      2.3782      2.3798      2.3817      2.3839      2.3868      2.3903      2.3946      2.3996      2.4053    
  2.4118      2.4193      2.4278      2.4377      2.4490      2.4618      2.4761      2.4914      2.5073      2.5230    
  2.5376      2.5502      2.5599      2.5660      2.7189      2.7150      2.7037      2.6857      2.6623      2.6351    
  2.6059      2.5762      2.5475      2.5209      2.4971      2.4765      2.4589      2.4442      2.4319      2.4215    
  2.4126      2.4049      2.3983      2.3927      2.3882      2.3847      2.3819      2.3798      2.3779      2.3763    
  2.3750      2.3741      2.3738      2.3741      2.3750      2.3763      2.3779      2.3798      2.3819      2.3847    
  2.3882      2.3927      2.3983      2.4049      2.4126      2.4215      2.4319      2.4442      2.4589      2.4765    
  2.4971      2.5209      2.5475      2.5762      2.6059      2.6351      2.6623      2.6857      2.7037      2.7150    
  2.9648      2.9579      2.9378      2.9059      2.8646      2.8167      2.7651      2.7127      2.6621      2.6151    
  2.5731      2.5367      2.5061      2.4808      2.4602      2.4435      2.4296      2.4181      2.4084      2.4003    
  2.3937      2.3886      2.3847      2.3817      2.3792      2.3772      2.3756      2.3746      2.3742      2.3746    
  2.3756      2.3772      2.3792      2.3817      2.3847      2.3886      2.3937      2.4003      2.4084      2.4181    
  2.4296      2.4435      2.4602      2.4808      2.5061      2.5367      2.5731      2.6151      2.6621      2.7127    
  2.7651      2.8167      2.8646      2.9059      2.9378      2.9579      3.3720      3.3597      3.3239      3.2675    
  3.1947      3.1106      3.0208      2.9303      2.8432      2.7629      2.6912      2.6294      2.5775      2.5350    
  2.5009      2.4738      2.4522      2.4350      2.4212      2.4099      2.4009      2.3937      2.3882      2.3839    
  2.3807      2.3781      2.3762      2.3751      2.3746      2.3751      2.3762      2.3781      2.3807      2.3839    
  2.3882      2.3937      2.4009      2.4099      2.4212      2.4350      2.4522      2.4738      2.5009      2.5350    
  2.5775      2.6294      2.6912      2.7629      2.8432      2.9303      3.0208      3.1106      3.1947      3.2675    
  3.3239      3.3597      4.0548      4.0328      3.9685      3.8676      3.7381      3.5900      3.4331      3.2766    
  3.1279      2.9922      2.8725      2.7701      2.6848      2.6153      2.5600      2.5166      2.4831      2.4574    
  2.4375      2.4221      2.4099      2.4003      2.3927      2.3868      2.3823      2.3791      2.3769      2.3756    
  2.3752      2.3756      2.3769      2.3791      2.3823      2.3868      2.3927      2.4003      2.4099      2.4221    
  2.4375      2.4574      2.4831      2.5166      2.5600      2.6153      2.6848      2.7701      2.8725      2.9922    
  3.1279      3.2766      3.4331      3.5900      3.7381      3.8676      3.9685      4.0328      5.1979      5.1585    
  5.0439      4.8644      4.6353      4.3746      4.1008      3.8304      3.5766      3.3480      3.1495      2.9820    
  2.8444      2.7335      2.6460      2.5781      2.5265      2.4878      2.4590      2.4375      2.4212      2.4084    
  2.3983      2.3903      2.3844      2.3802      2.3776      2.3762      2.3758      2.3762      2.3776      2.3802    
  2.3844      2.3903      2.3983      2.4084      2.4212      2.4375      2.4590      2.4878      2.5265      2.5781    
  2.6460      2.7335      2.8444      2.9820      3.1495      3.3480      3.5766      3.8304      4.1008      4.3746    
  4.6353      4.8644      5.0439      5.1585      7.0927      7.0235      6.8224      6.5080      6.1080      5.6549    
  5.1816      4.7177      4.2861      3.9021      3.5733      3.3006      3.0802      2.9057      2.7699      2.6659    
  2.5877      2.5298      2.4878      2.4574      2.4350      2.4181      2.4049      2.3946      2.3869      2.3817    
  2.3785      2.3770      2.3765      2.3770      2.3785      2.3817      2.3869      2.3946      2.4049      2.4181    
  2.4350      2.4574      2.4878      2.5298      2.5877      2.6659      2.7699      2.9057      3.0802      3.3006    
  3.5733      3.9021      4.2861      4.7177      5.1816      5.6549      6.1080      6.5080      6.8224      7.0235    
  10.188      10.068      9.7209      9.1795      8.4930      7.7184      6.9133      6.1285      5.4034      4.7638    
  4.2223      3.7796      3.4280      3.1549      2.9465      2.7895      2.6729      2.5877      2.5265      2.4831    
  2.4522      2.4296      2.4126      2.3996      2.3900      2.3835      2.3797      2.3778      2.3773      2.3778    
  2.3797      2.3835      2.3900      2.3996      2.4126      2.4296      2.4522      2.4831      2.5265      2.5877    
  2.6729      2.7895      2.9465      3.1549      3.4280      3.7796      4.2223      4.7638      5.4034      6.1285    
  6.9133      7.7184      8.4930      9.1795      9.7209      10.068      15.166      14.961      14.369      13.448    
  12.286      10.983      9.6372      8.3334      7.1366      6.0886      5.2084      4.4965      3.9389      3.5137    
  3.1955      2.9608      2.7895      2.6659      2.5781      2.5166      2.4738      2.4435      2.4215      2.4053    
  2.3936      2.3856      2.3809      2.3786      2.3779      2.3786      2.3809      2.3856      2.3936      2.4053    
  2.4215      2.4435      2.4738      2.5166      2.5781      2.6659      2.7895      2.9608      3.1955      3.5137    
  3.9389      4.4965      5.2084      6.0886      7.1366      8.3334      9.6372      10.983      12.286      13.448    
  14.369      14.961      23.093      22.745      21.738      20.181      18.229      16.058      13.837      11.706    
  9.7679      8.0841      6.6809      5.5551      4.6826      4.0262      3.5440      3.1955      2.9465      2.7699    
  2.6460      2.5600      2.5009      2.4602      2.4319      2.4118      2.3976      2.3880      2.3821      2.3790    
  2.3781      2.3790      2.3821      2.3880      2.3976      2.4118      2.4319      2.4602      2.5009      2.5600    
  2.6460      2.7699      2.9465      3.1955      3.5440      4.0262      4.6826      5.5551      6.6809      8.0841    
  9.7679      11.706      13.837      16.058      18.229      20.181      21.738      22.745      35.652      35.058    
  33.349      30.719      27.449      23.850      20.213      16.768      13.674      11.019      8.8277      7.0850    
  5.7458      4.7486      4.0262      3.5137      3.1549      2.9057      2.7335      2.6153      2.5350      2.4808    
  2.4442      2.4193      2.4021      2.3905      2.3832      2.3792      2.3779      2.3792      2.3832      2.3905    
  2.4021      2.4193      2.4442      2.4808      2.5350      2.6153      2.7335      2.9057      3.1549      3.5137    