Cs                                      
   1.00000000000000     
     6.161530    0.000000    0.000000
     0.000000    6.161530    0.000000
     0.000000    0.000000    6.161530
   Cs
     2
Direct
  0.000000  0.000000  0.000000
  0.500000  0.500000  0.500000
 
   56   56   56
 -.28807145040E+03 -.24999781374E+03 -.14724532719E+03 -.97776464892E+01 0.12521322911E+03
 0.22626786446E+03 0.27675959013E+03 0.27702348983E+03 0.24017198909E+03 0.18495694867E+03
 0.12924795474E+03 0.85458231952E+02 0.55350081030E+02 0.35651595046E+02 0.23093477519E+02
 0.15165830913E+02 0.10187587404E+02 0.70927215333E+01 0.51979319063E+01 0.40548352707E+01
 0.33719819635E+01 0.29647632677E+01 0.27189164863E+01 0.25680981844E+01 0.24772549575E+01
 0.24255117511E+01 0.23963356457E+01 0.23795305167E+01 0.23735527007E+01 0.23795305167E+01
 0.23963356457E+01 0.24255117511E+01 0.24772549575E+01 0.25680981844E+01 0.27189164863E+01
 0.29647632677E+01 0.33719819635E+01 0.40548352707E+01 0.51979319063E+01 0.70927215333E+01
 0.10187587404E+02 0.15165830913E+02 0.23093477519E+02 0.35651595046E+02 0.55350081030E+02
 0.85458231952E+02 0.12924795474E+03 0.18495694867E+03 0.24017198909E+03 0.27702348983E+03
 0.27675959013E+03 0.22626786446E+03 0.12521322911E+03 -.97776464892E+01 -.14724532719E+03
 -.24999781374E+03 -.24999781374E+03 -.21388759790E+03 -.11656054762E+03 0.13258991722E+02
 0.13998734074E+03 0.23364689062E+03 0.27857834258E+03 0.27542804029E+03 0.23707498975E+03
 0.18174273942E+03 0.12671855597E+03 0.83820989297E+02 0.54350220277E+02 0.35058321769E+02
 0.22744968215E+02 0.14961337361E+02 0.10067982290E+02 0.70235042952E+01 0.51585301530E+01
 0.40327788457E+01 0.33597242985E+01 0.29578865472E+01 0.27150377646E+01 0.25659997208E+01
 0.24762014989E+01 0.24249807387E+01 0.23960490392E+01 0.23794000470E+01 0.23734901434E+01
 0.23794000470E+01 0.23960490392E+01 0.24249807387E+01 0.24762014989E+01 0.25659997208E+01
 0.27150377646E+01 0.29578865472E+01 0.33597242985E+01 0.40327788457E+01 0.51585301530E+01
 0.70235042952E+01 0.10067982290E+02 0.14961337361E+02 0.22744968215E+02 0.35058321769E+02
 0.54350220277E+02 0.83820989297E+02 0.12671855597E+03 0.18174273942E+03 0.23707498975E+03
 0.27542804029E+03 0.27857834258E+03 0.23364689062E+03 0.13998734074E+03 0.13258991722E+02
 -.11656054762E+03 -.21388759790E+03 -.14724532719E+03 -.11656054762E+03 -.34210138190E+02
 0.74541282964E+02 0.17858576657E+03 0.25204909724E+03 0.28192793574E+03 0.26969656009E+03
 0.22755542480E+03 0.17224014524E+03 0.11940627207E+03 0.79114149846E+02 0.51474764353E+02
 0.33348839741E+02 0.21738061264E+02 0.14369021300E+02 0.97209071910E+01 0.68224055652E+01
 0.50439350205E+01 0.39685350597E+01 0.33239465875E+01 0.29377755615E+01 0.27036865421E+01
 0.25598640860E+01 0.24731338933E+01 0.24234561795E+01 0.23952515867E+01 0.23790623270E+01
 0.23733501527E+01 0.23790623270E+01 0.23952515867E+01 0.24234561795E+01 0.24731338933E+01
 0.25598640860E+01 0.27036865421E+01 0.29377755615E+01 0.33239465875E+01 0.39685350597E+01
 0.50439350205E+01 0.68224055652E+01 0.97209071910E+01 0.14369021300E+02 0.21738061264E+02
 0.33348839741E+02 0.51474764353E+02 0.79114149846E+02 0.11940627207E+03 0.17224014524E+03
 0.22755542480E+03 0.26969656009E+03 0.28192793574E+03 0.25204909724E+03 0.17858576657E+03
 0.74541282964E+02 -.34210138190E+02 -.11656054762E+03 -.97776464892E+01 0.13258991722E+02
 0.74541282964E+02 0.15378434873E+03 0.22628381977E+03 0.27198039700E+03 0.28157049801E+03
 0.25760480122E+03 0.21122694545E+03 0.15698572239E+03 0.10815402323E+03 0.71911241927E+02
 0.47069290322E+02 0.30718963792E+02 0.20180693599E+02 0.13448382001E+02 0.91795463134E+01
 0.65080110434E+01 0.48644040299E+01 0.38675857795E+01 0.32674946068E+01 0.29059248573E+01
 0.26856870044E+01 0.25501510786E+01 0.24683119835E+01 0.24211200890E+01 0.23941012484E+01
 0.23786468679E+01 0.23732440321E+01 0.23786468679E+01 0.23941012484E+01 0.24211200890E+01
 0.24683119835E+01 0.25501510786E+01 0.26856870044E+01 0.29059248573E+01 0.32674946068E+01
 0.38675857795E+01 0.48644040299E+01 0.65080110434E+01 0.91795463134E+01 0.13448382001E+02
 0.20180693599E+02 0.30718963792E+02 0.47069290322E+02 0.71911241927E+02 0.10815402323E+03
 0.15698572239E+03 0.21122694545E+03 0.25760480122E+03 0.28157049801E+03 0.27198039700E+03
 0.22628381977E+03 0.15378434873E+03 0.74541282964E+02 0.13258991722E+02 0.12521322911E+03
 0.13998734074E+03 0.17858576657E+03 0.22628381977E+03 0.26546726816E+03 0.28242669244E+03
 0.27179366496E+03 0.23712978736E+03 0.18825274087E+03 0.13716903056E+03 0.94253904391E+02
 0.63039861177E+02 0.41628031134E+02 0.27449129560E+02 0.18228827702E+02 0.12286451505E+02
 0.84929612170E+01 0.61079762486E+01 0.46352500857E+01 0.37381460488E+01 0.31946693492E+01
 0.28646229585E+01 0.26623124708E+01 0.25375648124E+01 0.24621141133E+01 0.24182101913E+01
 0.23927820408E+01 0.23782860411E+01 0.23732745332E+01 0.23782860411E+01 0.23927820408E+01
 0.24182101913E+01 0.24621141133E+01 0.25375648124E+01 0.26623124708E+01 0.28646229585E+01
 0.31946693492E+01 0.37381460488E+01 0.46352500857E+01 0.61079762486E+01 0.84929612170E+01
 0.12286451505E+02 0.18228827702E+02 0.27449129560E+02 0.41628031134E+02 0.63039861177E+02
 0.94253904391E+02 0.13716903056E+03 0.18825274087E+03 0.23712978736E+03 0.27179366496E+03
 0.28242669244E+03 0.26546726816E+03 0.22628381977E+03 0.17858576657E+03 0.13998734074E+03
 0.22626786446E+03 0.23364689062E+03 0.25204909724E+03 0.27198039700E+03 0.28242669244E+03
 0.27548301005E+03 0.24924324814E+03 0.20797002904E+03 0.16001590889E+03 0.11481421961E+03
 0.79164792170E+02 0.53420494674E+02 0.35695886491E+02 0.23850354004E+02 0.16058245927E+02
 0.10983243159E+02 0.77184116120E+01 0.56548565379E+01 0.43745746495E+01 0.35899821289E+01
 0.31106498639E+01 0.28166772599E+01 0.26351431206E+01 0.25229693835E+01 0.24549753501E+01
 0.24149575589E+01 0.23914361669E+01 0.23780505627E+01 0.23734755959E+01 0.23780505627E+01
 0.23914361669E+01 0.24149575589E+01 0.24549753501E+01 0.25229693835E+01 0.26351431206E+01
 0.28166772599E+01 0.31106498639E+01 0.35899821289E+01 0.43745746495E+01 0.56548565379E+01
 0.77184116120E+01 0.10983243159E+02 0.16058245927E+02 0.23850354004E+02 0.35695886491E+02
 0.53420494674E+02 0.79164792170E+02 0.11481421961E+03 0.16001590889E+03 0.20797002904E+03
 0.24924324814E+03 0.27548301005E+03 0.28242669244E+03 0.27198039700E+03 0.25204909724E+03
 0.23364689062E+03 0.27675959013E+03 0.27857834258E+03 0.28192793574E+03 0.28157049801E+03
 0.27179366496E+03 0.24924324814E+03 0.21457192634E+03 0.17231557648E+03 0.12933692585E+03
 0.92465605347E+02 0.64264723476E+02 0.43900589074E+02 0.29772933161E+02 0.20212539249E+02
 0.13837240542E+02 0.96371602445E+01 0.69133311568E+01 0.51816189642E+01 0.41007948981E+01
 0.34331123100E+01 0.30208454713E+01 0.27650887822E+01 0.26058881904E+01 0.25072878116E+01
 0.24473304994E+01 0.24115484952E+01 0.23901359154E+01 0.23779356847E+01 0.23738069462E+01
 0.23779356847E+01 0.23901359154E+01 0.24115484952E+01 0.24473304994E+01 0.25072878116E+01
 0.26058881904E+01 0.27650887822E+01 0.30208454713E+01 0.34331123100E+01 0.41007948981E+01
 0.51816189642E+01 0.69133311568E+01 0.96371602445E+01 0.13837240542E+02 0.20212539249E+02
 0.29772933161E+02 0.43900589074E+02 0.64264723476E+02 0.92465605347E+02 0.12933692585E+03
 0.17231557648E+03 0.21457192634E+03 0.24924324814E+03 0.27179366496E+03 0.28157049801E+03
 0.28192793574E+03 0.27857834258E+03 0.27702348983E+03 0.27542804029E+03 0.26969656009E+03
 0.25760480122E+03 0.23712978736E+03 0.20797002904E+03 0.17231557648E+03 0.13454643765E+03
 0.10001725229E+03 0.71977840823E+02 0.50627686929E+02 0.35128753957E+02 0.24246320577E+02
 0.16767824565E+02 0.11706376644E+02 0.83333713401E+01 0.61285010489E+01 0.47176811378E+01
 0.38304379492E+01 0.32766431923E+01 0.29303002784E+01 0.27127328781E+01 0.25761998246E+01
 0.24913992745E+01 0.24395719470E+01 0.24081197937E+01 0.23889030406E+01 0.23779014993E+01
 0.23742042559E+01 0.23779014993E+01 0.23889030406E+01 0.24081197937E+01 0.24395719470E+01
 0.24913992745E+01 0.25761998246E+01 0.27127328781E+01 0.29303002784E+01 0.32766431923E+01
 0.38304379492E+01 0.47176811378E+01 0.61285010489E+01 0.83333713401E+01 0.11706376644E+02
 0.16767824565E+02 0.24246320577E+02 0.35128753957E+02 0.50627686929E+02 0.71977840823E+02
 0.10001725229E+03 0.13454643765E+03 0.17231557648E+03 0.20797002904E+03 0.23712978736E+03
 0.25760480122E+03 0.26969656009E+03 0.27542804029E+03 0.24017198909E+03 0.23707498975E+03
 0.22755542480E+03 0.21122694545E+03 0.18825274087E+03 0.16001590889E+03 0.12933692585E+03
 0.10001725229E+03 0.74777836098E+02 0.54442194227E+02 0.38903732768E+02 0.27498735292E+02
 0.19362273585E+02 0.13674462234E+02 0.97679354315E+01 0.71366344407E+01 0.54033724119E+01
 0.42860886188E+01 0.35765673911E+01 0.31279385631E+01 0.28432491025E+01 0.26620987585E+01
 0.25475104909E+01 0.24760503385E+01 0.24320216254E+01 0.24047725990E+01 0.23877485134E+01
 0.23779291670E+01 0.23746417376E+01 0.23779291670E+01 0.23877485134E+01 0.24047725990E+01
 0.24320216254E+01 0.24760503385E+01 0.25475104909E+01 0.26620987585E+01 0.28432491025E+01
 0.31279385631E+01 0.35765673911E+01 0.42860886188E+01 0.54033724119E+01 0.71366344407E+01
 0.97679354315E+01 0.13674462234E+02 0.19362273585E+02 0.27498735292E+02 0.38903732768E+02
 0.54442194227E+02 0.74777836098E+02 0.10001725229E+03 0.12933692585E+03 0.16001590889E+03
 0.18825274087E+03 0.21122694545E+03 0.22755542480E+03 0.23707498975E+03 0.18495694867E+03
 0.18174273942E+03 0.17224014524E+03 0.15698572239E+03 0.13716903056E+03 0.11481421961E+03
 0.92465605347E+02 0.71977840823E+02 0.54442194227E+02 0.40269010554E+02 0.29325685940E+02
 0.21164556680E+02 0.15235000124E+02 0.11018750241E+02 0.80840807303E+01 0.60885546209E+01
 0.47638423471E+01 0.39021216996E+01 0.33480253101E+01 0.29922146389E+01 0.27628725802E+01
 0.26151202377E+01 0.25209192791E+01 0.24617928324E+01 0.24249115115E+01 0.24015811350E+01
 0.23866937971E+01 0.23780432939E+01 0.23751531831E+01 0.23780432939E+01 0.23866937971E+01
 0.24015811350E+01 0.24249115115E+01 0.24617928324E+01 0.25209192791E+01 0.26151202377E+01
 0.27628725802E+01 0.29922146389E+01 0.33480253101E+01 0.39021216996E+01 0.47638423471E+01
 0.60885546209E+01 0.80840807303E+01 0.11018750241E+02 0.15235000124E+02 0.21164556680E+02
 0.29325685940E+02 0.40269010554E+02 0.54442194227E+02 0.71977840823E+02 0.92465605347E+02
 0.11481421961E+03 0.13716903056E+03 0.15698572239E+03 0.17224014524E+03 0.18174273942E+03
 0.12924795474E+03 0.12671855597E+03 0.11940627207E+03 0.10815402323E+03 0.94253904391E+02
 0.79164792170E+02 0.64264723476E+02 0.50627686929E+02 0.38903732768E+02 0.29325685940E+02
 0.21811658083E+02 0.16102306629E+02 0.11877656407E+02 0.88277151312E+01 0.66808514000E+01
 0.52084033696E+01 0.42223113554E+01 0.35733110847E+01 0.31494726299E+01 0.28725403007E+01
 0.26912411641E+01 0.25731015818E+01 0.24971371921E+01 0.24489554862E+01 0.24183714060E+01
 0.23985854928E+01 0.23857557473E+01 0.23782794915E+01 0.23757899331E+01 0.23782794915E+01
 0.23857557473E+01 0.23985854928E+01 0.24183714060E+01 0.24489554862E+01 0.24971371921E+01
 0.25731015818E+01 0.26912411641E+01 0.28725403007E+01 0.31494726299E+01 0.35733110847E+01
 0.42223113554E+01 0.52084033696E+01 0.66808514000E+01 0.88277151312E+01 0.11877656407E+02
 0.16102306629E+02 0.21811658083E+02 0.29325685940E+02 0.38903732768E+02 0.50627686929E+02
 0.64264723476E+02 0.79164792170E+02 0.94253904391E+02 0.10815402323E+03 0.11940627207E+03
 0.12671855597E+03 0.85458231952E+02 0.83820989297E+02 0.79114149846E+02 0.71911241927E+02
 0.63039861177E+02 0.53420494674E+02 0.43900589074E+02 0.35128753957E+02 0.27498735292E+02
 0.21164556680E+02 0.16102306629E+02 0.12184141541E+02 0.92382013824E+01 0.70850442070E+01
 0.55550991448E+01 0.44964558152E+01 0.37795777361E+01 0.33005975798E+01 0.29820457414E+01
 0.27701308657E+01 0.26293951451E+01 0.25367203464E+01 0.24764873216E+01 0.24376512111E+01
 0.24124307132E+01 0.23957797060E+01 0.23849126669E+01 0.23786230414E+01 0.23765460056E+01
 0.23786230414E+01 0.23849126669E+01 0.23957797060E+01 0.24124307132E+01 0.24376512111E+01
 0.24764873216E+01 0.25367203464E+01 0.26293951451E+01 0.27701308657E+01 0.29820457414E+01
 0.33005975798E+01 0.37795777361E+01 0.44964558152E+01 0.55550991448E+01 0.70850442070E+01
 0.92382013824E+01 0.12184141541E+02 0.16102306629E+02 0.21164556680E+02 0.27498735292E+02
 0.35128753957E+02 0.43900589074E+02 0.53420494674E+02 0.63039861177E+02 0.71911241927E+02
 0.79114149846E+02 0.83820989297E+02 0.55350081030E+02 0.54350220277E+02 0.51474764353E+02
 0.47069290322E+02 0.41628031134E+02 0.35695886491E+02 0.29772933161E+02 0.24246320577E+02
 0.19362273585E+02 0.15235000124E+02 0.11877656407E+02 0.92382013824E+01 0.72288009888E+01
 0.57457783908E+01 0.46825607258E+01 0.39389296957E+01 0.34279641997E+01 0.30802078577E+01
 0.28443515244E+01 0.26847840794E+01 0.25774960383E+01 0.25060839573E+01 0.24589497469E+01
 0.24278174559E+01 0.24070426594E+01 0.23931166975E+01 0.23840886049E+01 0.23789717371E+01
 0.23773108074E+01 0.23789717371E+01 0.23840886049E+01 0.23931166975E+01 0.24070426594E+01
 0.24278174559E+01 0.24589497469E+01 0.25060839573E+01 0.25774960383E+01 0.26847840794E+01
 0.28443515244E+01 0.30802078577E+01 0.34279641997E+01 0.39389296957E+01 0.46825607258E+01
 0.57457783908E+01 0.72288009888E+01 0.92382013824E+01 0.11877656407E+02 0.15235000124E+02
 0.19362273585E+02 0.24246320577E+02 0.29772933161E+02 0.35695886491E+02 0.41628031134E+02
 0.47069290322E+02 0.51474764353E+02 0.54350220277E+02 0.35651595046E+02 0.35058321769E+02
 0.33348839741E+02 0.30718963792E+02 0.27449129560E+02 0.23850354004E+02 0.20212539249E+02
 0.16767824565E+02 0.13674462234E+02 0.11018750241E+02 0.88277151312E+01 0.70850442070E+01
 0.57457783908E+01 0.47486039815E+01 0.40261734786E+01 0.35136584188E+01 0.31549465463E+01
 0.29057368011E+01 0.27335062294E+01 0.26153236285E+01 0.25350044147E+01 0.24808267638E+01
 0.24442414374E+01 0.24192813970E+01 0.24021301210E+01 0.23905406122E+01 0.23831803428E+01
 0.23791610390E+01 0.23778936411E+01 0.23791610390E+01 0.23831803428E+01 0.23905406122E+01
 0.24021301210E+01 0.24192813970E+01 0.24442414374E+01 0.24808267638E+01 0.25350044147E+01
 0.26153236285E+01 0.27335062294E+01 0.29057368011E+01 0.31549465463E+01 0.35136584188E+01
 0.40261734786E+01 0.47486039815E+01 0.57457783908E+01 0.70850442070E+01 0.88277151312E+01
 0.11018750241E+02 0.13674462234E+02 0.16767824565E+02 0.20212539249E+02 0.23850354004E+02
 0.27449129560E+02 0.30718963792E+02 0.33348839741E+02 0.35058321769E+02 0.23093477519E+02
 0.22744968215E+02 0.21738061264E+02 0.20180693599E+02 0.18228827702E+02 0.16058245927E+02
 0.13837240542E+02 0.11706376644E+02 0.97679354315E+01 0.80840807303E+01 0.66808514000E+01
 0.55550991448E+01 0.46825607258E+01 0.40261734786E+01 0.35439537241E+01 0.31955421252E+01
 0.29464996245E+01 0.27699470019E+01 0.26459826595E+01 0.25599719806E+01 0.25008720655E+01
 0.24602457629E+01 0.24319215682E+01 0.24118346180E+01 0.23976373761E+01 0.23880333581E+01
 0.23821169242E+01 0.23790435780E+01 0.23781127931E+01 0.23790435780E+01 0.23821169242E+01
 0.23880333581E+01 0.23976373761E+01 0.24118346180E+01 0.24319215682E+01 0.24602457629E+01
 0.25008720655E+01 0.25599719806E+01 0.26459826595E+01 0.27699470019E+01 0.29464996245E+01
 0.31955421252E+01 0.35439537241E+01 0.40261734786E+01 0.46825607258E+01 0.55550991448E+01
 0.66808514000E+01 0.80840807303E+01 0.97679354315E+01 0.11706376644E+02 0.13837240542E+02
 0.16058245927E+02 0.18228827702E+02 0.20180693599E+02 0.21738061264E+02 0.22744968215E+02
 0.15165830913E+02 0.14961337361E+02 0.14369021300E+02 0.13448382001E+02 0.12286451505E+02
 0.10983243159E+02 0.96371602445E+01 0.83333713401E+01 0.71366344407E+01 0.60885546209E+01
 0.52084033696E+01 0.44964558152E+01 0.39389296957E+01 0.35136584188E+01 0.31955421252E+01
 0.29608180449E+01 0.27895001985E+01 0.26659468266E+01 0.25781480051E+01 0.25166372489E+01
 0.24737541365E+01 0.24434711569E+01 0.24215083414E+01 0.24052975302E+01 0.23935632952E+01
 0.23856449589E+01 0.23809121629E+01 0.23785726154E+01 0.23778936411E+01 0.23785726154E+01
 0.23809121629E+01 0.23856449589E+01 0.23935632952E+01 0.24052975302E+01 0.24215083414E+01
 0.24434711569E+01 0.24737541365E+01 0.25166372489E+01 0.25781480051E+01 0.26659468266E+01
 0.27895001985E+01 0.29608180449E+01 0.31955421252E+01 0.35136584188E+01 0.39389296957E+01
 0.44964558152E+01 0.52084033696E+01 0.60885546209E+01 0.71366344407E+01 0.83333713401E+01
 0.96371602445E+01 0.10983243159E+02 0.12286451505E+02 0.13448382001E+02 0.14369021300E+02
 0.14961337361E+02 0.10187587404E+02 0.10067982290E+02 0.97209071910E+01 0.91795463134E+01
 0.84929612170E+01 0.77184116120E+01 0.69133311568E+01 0.61285010489E+01 0.54033724119E+01
 0.47638423471E+01 0.42223113554E+01 0.37795777361E+01 0.34279641997E+01 0.31549465463E+01
 0.29464996245E+01 0.27895001985E+01 0.26728773315E+01 0.25876697996E+01 0.25265120887E+01
 0.24831365243E+01 0.24522353849E+01 0.24296497814E+01 0.24125862093E+01 0.23995563894E+01
 0.23899575631E+01 0.23834816021E+01 0.23796695877E+01 0.23778322383E+01 0.23773108074E+01
 0.23778322383E+01 0.23796695877E+01 0.23834816021E+01 0.23899575631E+01 0.23995563894E+01
 0.24125862093E+01 0.24296497814E+01 0.24522353849E+01 0.24831365243E+01 0.25265120887E+01
 0.25876697996E+01 0.26728773315E+01 0.27895001985E+01 0.29464996245E+01 0.31549465463E+01
 0.34279641997E+01 0.37795777361E+01 0.42223113554E+01 0.47638423471E+01 0.54033724119E+01
 0.61285010489E+01 0.69133311568E+01 0.77184116120E+01 0.84929612170E+01 0.91795463134E+01
 0.97209071910E+01 0.10067982290E+02 0.70927215333E+01 0.70235042952E+01 0.68224055652E+01
 0.65080110434E+01 0.61079762486E+01 0.56548565379E+01 0.51816189642E+01 0.47176811378E+01
 0.42860886188E+01 0.39021216996E+01 0.35733110847E+01 0.33005975798E+01 0.30802078577E+01
 0.29057368011E+01 0.27699470019E+01 0.26659468266E+01 0.25876697996E+01 0.25298468175E+01
 0.24878052722E+01 0.24573805546E+01 0.24350375685E+01 0.24180988075E+01 0.24048774789E+01
 0.23945651094E+01 0.23868812051E+01 0.23816512405E+01 0.23785297007E+01 0.23769916847E+01
 0.23765460056E+01 0.23769916847E+01 0.23785297007E+01 0.23816512405E+01 0.23868812051E+01
 0.23945651094E+01 0.24048774789E+01 0.24180988075E+01 0.24350375685E+01 0.24573805546E+01
 0.24878052722E+01 0.25298468175E+01 0.25876697996E+01 0.26659468266E+01 0.27699470019E+01
 0.29057368011E+01 0.30802078577E+01 0.33005975798E+01 0.35733110847E+01 0.39021216996E+01
 0.42860886188E+01 0.47176811378E+01 0.51816189642E+01 0.56548565379E+01 0.61079762486E+01
 0.65080110434E+01 0.68224055652E+01 0.70235042952E+01 0.51979319063E+01 0.51585301530E+01
 0.50439350205E+01 0.48644040299E+01 0.46352500857E+01 0.43745746495E+01 0.41007948981E+01
 0.38304379492E+01 0.35765673911E+01 0.33480253101E+01 0.31494726299E+01 0.29820457414E+01
 0.28443515244E+01 0.27335062294E+01 0.26459826595E+01 0.25781480051E+01 0.25265120887E+01
 0.24878052722E+01 0.24590240933E+01 0.24375250458E+01 0.24211598452E+01 0.24083831372E+01
 0.23982561604E+01 0.23903162343E+01 0.23843543952E+01 0.23801976735E+01 0.23775907884E+01
 0.23762130695E+01 0.23757899331E+01 0.23762130695E+01 0.23775907884E+01 0.23801976735E+01
 0.23843543952E+01 0.23903162343E+01 0.23982561604E+01 0.24083831372E+01 0.24211598452E+01
 0.24375250458E+01 0.24590240933E+01 0.24878052722E+01 0.25265120887E+01 0.25781480051E+01
 0.26459826595E+01 0.27335062294E+01 0.28443515244E+01 0.29820457414E+01 0.31494726299E+01
 0.33480253101E+01 0.35765673911E+01 0.38304379492E+01 0.41007948981E+01 0.43745746495E+01
 0.46352500857E+01 0.48644040299E+01 0.50439350205E+01 0.51585301530E+01 0.40548352707E+01
 0.40327788457E+01 0.39685350597E+01 0.38675857795E+01 0.37381460488E+01 0.35899821289E+01
 0.34331123100E+01 0.32766431923E+01 0.31279385631E+01 0.29922146389E+01 0.28725403007E+01
 0.27701308657E+01 0.26847840794E+01 0.26153236285E+01 0.25599719806E+01 0.25166372489E+01
 0.24831365243E+01 0.24573805546E+01 0.24375250458E+01 0.24220741374E+01 0.24099169777E+01
 0.24002921460E+01 0.23926992176E+01 0.23867964562E+01 0.23823235141E+01 0.23790665651E+01
 0.23768560198E+01 0.23755736812E+01 0.23751531831E+01 0.23755736812E+01 0.23768560198E+01
 0.23790665651E+01 0.23823235141E+01 0.23867964562E+01 0.23926992176E+01 0.24002921460E+01
 0.24099169777E+01 0.24220741374E+01 0.24375250458E+01 0.24573805546E+01 0.24831365243E+01
 0.25166372489E+01 0.25599719806E+01 0.26153236285E+01 0.26847840794E+01 0.27701308657E+01
 0.28725403007E+01 0.29922146389E+01 0.31279385631E+01 0.32766431923E+01 0.34331123100E+01
 0.35899821289E+01 0.37381460488E+01 0.38675857795E+01 0.39685350597E+01 0.40327788457E+01
 0.33719819635E+01 0.33597242985E+01 0.33239465875E+01 0.32674946068E+01 0.31946693492E+01
 0.31106498639E+01 0.30208454713E+01 0.29303002784E+01 0.28432491025E+01 0.27628725802E+01
 0.26912411641E+01 0.26293951451E+01 0.25774960383E+01 0.25350044147E+01 0.25008720655E+01
 0.24737541365E+01 0.24522353849E+01 0.24350375685E+01 0.24211598452E+01 0.24099169777E+01
 0.24008759517E+01 0.23937328362E+01 0.23881977569E+01 0.23839484358E+01 0.23806683626E+01
 0.23781285401E+01 0.23762431492E+01 0.23750523969E+01 0.23746417376E+01 0.23750523969E+01
 0.23762431492E+01 0.23781285401E+01 0.23806683626E+01 0.23839484358E+01 0.23881977569E+01
 0.23937328362E+01 0.24008759517E+01 0.24099169777E+01 0.24211598452E+01 0.24350375685E+01
 0.24522353849E+01 0.24737541365E+01 0.25008720655E+01 0.25350044147E+01 0.25774960383E+01
 0.26293951451E+01 0.26912411641E+01 0.27628725802E+01 0.28432491025E+01 0.29303002784E+01
 0.30208454713E+01 0.31106498639E+01 0.31946693492E+01 0.32674946068E+01 0.33239465875E+01
 0.33597242985E+01 0.29647632677E+01 0.29578865472E+01 0.29377755615E+01 0.29059248573E+01
 0.28646229585E+01 0.28166772599E+01 0.27650887822E+01 0.27127328781E+01 0.26620987585E+01
 0.26151202377E+01 0.25731015818E+01 0.25367203464E+01 0.25060839573E+01 0.24808267638E+01
 0.24602457629E+01 0.24434711569E+01 0.24296497814E+01 0.24180988075E+01 0.24083831372E+01
 0.24002921460E+01 0.23937328362E+01 0.23885967973E+01 0.23846735663E+01 0.23816583417E+01
 0.23792457768E+01 0.23772467450E+01 0.23756494383E+01 0.23745827758E+01 0.23742042559E+01
 0.23745827758E+01 0.23756494383E+01 0.23772467450E+01 0.23792457768E+01 0.23816583417E+01
 0.23846735663E+01 0.23885967973E+01 0.23937328362E+01 0.24002921460E+01 0.24083831372E+01
 0.24180988075E+01 0.24296497814E+01 0.24434711569E+01 0.24602457629E+01 0.24808267638E+01
 0.25060839573E+01 0.25367203464E+01 0.25731015818E+01 0.26151202377E+01 0.26620987585E+01
 0.27127328781E+01 0.27650887822E+01 0.28166772599E+01 0.28646229585E+01 0.29059248573E+01
 0.29377755615E+01 0.29578865472E+01 0.27189164863E+01 0.27150377646E+01 0.27036865421E+01
 0.26856870044E+01 0.26623124708E+01 0.26351431206E+01 0.26058881904E+01 0.25761998246E+01
 0.25475104909E+01 0.25209192791E+01 0.24971371921E+01 0.24764873216E+01 0.24589497469E+01
 0.24442414374E+01 0.24319215682E+01 0.24215083414E+01 0.24125862093E+01 0.24048774789E+01
 0.23982561604E+01 0.23926992176E+01 0.23881977569E+01 0.23846735663E+01 0.23819471064E+01
 0.23797761764E+01 0.23779440960E+01 0.23763466066E+01 0.23750257274E+01 0.23741278344E+01
 0.23738069462E+01 0.23741278344E+01 0.23750257274E+01 0.23763466066E+01 0.23779440960E+01
 0.23797761764E+01 0.23819471064E+01 0.23846735663E+01 0.23881977569E+01 0.23926992176E+01
 0.23982561604E+01 0.24048774789E+01 0.24125862093E+01 0.24215083414E+01 0.24319215682E+01
 0.24442414374E+01 0.24589497469E+01 0.24764873216E+01 0.24971371921E+01 0.25209192791E+01
 0.25475104909E+01 0.25761998246E+01 0.26058881904E+01 0.26351431206E+01 0.26623124708E+01
 0.26856870044E+01 0.27036865421E+01 0.27150377646E+01 0.25680981844E+01 0.25659997208E+01
 0.25598640860E+01 0.25501510786E+01 0.25375648124E+01 0.25229693835E+01 0.25072878116E+01
 0.24913992745E+01 0.24760503385E+01 0.24617928324E+01 0.24489554862E+01 0.24376512111E+01
 0.24278174559E+01 0.24192813970E+01 0.24118346180E+01 0.24052975302E+01 0.23995563894E+01
 0.23945651094E+01 0.23903162343E+01 0.23867964562E+01 0.23839484358E+01 0.23816583417E+01
 0.23797761764E+01 0.23781593082E+01 0.23767184708E+01 0.23754452429E+01 0.23744083805E+01
 0.23737186995E+01 0.23734755959E+01 0.23737186995E+01 0.23744083805E+01 0.23754452429E+01
 0.23767184708E+01 0.23781593082E+01 0.23797761764E+01 0.23816583417E+01 0.23839484358E+01
 0.23867964562E+01 0.23903162343E+01 0.23945651094E+01 0.23995563894E+01 0.24052975302E+01
 0.24118346180E+01 0.24192813970E+01 0.24278174559E+01 0.24376512111E+01 0.24489554862E+01
 0.24617928324E+01 0.24760503385E+01 0.24913992745E+01 0.25072878116E+01 0.25229693835E+01
 0.25375648124E+01 0.25501510786E+01 0.25598640860E+01 0.25659997208E+01 0.24772549575E+01
 0.24762014989E+01 0.24731338933E+01 0.24683119835E+01 0.24621141133E+01 0.24549753501E+01
 0.24473304994E+01 0.24395719470E+01 0.24320216254E+01 0.24249115115E+01 0.24183714060E+01
 0.24124307132E+01 0.24070426594E+01 0.24021301210E+01 0.23976373761E+01 0.23935632952E+01
 0.23899575631E+01 0.23868812051E+01 0.23843543952E+01 0.23823235141E+01 0.23806683626E+01
 0.23792457768E+01 0.23779440960E+01 0.23767184708E+01 0.23755915244E+01 0.23746258401E+01
 0.23738889275E+01 0.23734299598E+01 0.23732745332E+01 0.23734299598E+01 0.23738889275E+01
 0.23746258401E+01 0.23755915244E+01 0.23767184708E+01 0.23779440960E+01 0.23792457768E+01
 0.23806683626E+01 0.23823235141E+01 0.23843543952E+01 0.23868812051E+01 0.23899575631E+01
 0.23935632952E+01 0.23976373761E+01 0.24021301210E+01 0.24070426594E+01 0.24124307132E+01
 0.24183714060E+01 0.24249115115E+01 0.24320216254E+01 0.24395719470E+01 0.24473304994E+01
 0.24549753501E+01 0.24621141133E+01 0.24683119835E+01 0.24731338933E+01 0.24762014989E+01
 0.24255117511E+01 0.24249807387E+01 0.24234561795E+01 0.24211200890E+01 0.24182101913E+01
 0.24149575589E+01 0.24115484952E+01 0.24081197937E+01 0.24047725990E+01 0.24015811350E+01
 0.23985854928E+01 0.23957797060E+01 0.23931166975E+01 0.23905406122E+01 0.23880333581E+01
 0.23856449589E+01 0.23834816021E+01 0.23816512405E+01 0.23801976735E+01 0.23790665651E+01
 0.23781285401E+01 0.23772467450E+01 0.23763466066E+01 0.23754452429E+01 0.23746258401E+01
 0.23739780446E+01 0.23735455561E+01 0.23733142932E+01 0.23732440321E+01 0.23733142932E+01
 0.23735455561E+01 0.23739780446E+01 0.23746258401E+01 0.23754452429E+01 0.23763466066E+01
 0.23772467450E+01 0.23781285401E+01 0.23790665651E+01 0.23801976735E+01 0.23816512405E+01
 0.23834816021E+01 0.23856449589E+01 0.23880333581E+01 0.23905406122E+01 0.23931166975E+01
 0.23957797060E+01 0.23985854928E+01 0.24015811350E+01 0.24047725990E+01 0.24081197937E+01
 0.24115484952E+01 0.24149575589E+01 0.24182101913E+01 0.24211200890E+01 0.24234561795E+01
 0.24249807387E+01 0.23963356457E+01 0.23960490392E+01 0.23952515867E+01 0.23941012484E+01
 0.23927820408E+01 0.23914361669E+01 0.23901359154E+01 0.23889030406E+01 0.23877485134E+01
 0.23866937971E+01 0.23857557473E+01 0.23849126669E+01 0.23840886049E+01 0.23831803428E+01
 0.23821169242E+01 0.23809121629E+01 0.23796695877E+01 0.23785297007E+01 0.23775907884E+01
 0.23768560198E+01 0.23762431492E+01 0.23756494383E+01 0.23750257274E+01 0.23744083805E+01
 0.23738889275E+01 0.23735455561E+01 0.23733870332E+01 0.23733498851E+01 0.23733501527E+01
 0.23733498851E+01 0.23733870332E+01 0.23735455561E+01 0.23738889275E+01 0.23744083805E+01
 0.23750257274E+01 0.23756494383E+01 0.23762431492E+01 0.23768560198E+01 0.23775907884E+01
 0.23785297007E+01 0.23796695877E+01 0.23809121629E+01 0.23821169242E+01 0.23831803428E+01
 0.23840886049E+01 0.23849126669E+01 0.23857557473E+01 0.23866937971E+01 0.23877485134E+01
 0.23889030406E+01 0.23901359154E+01 0.23914361669E+01 0.23927820408E+01 0.23941012484E+01
 0.23952515867E+01 0.23960490392E+01 0.23795305167E+01 0.23794000470E+01 0.23790623270E+01
 0.23786468679E+01 0.23782860411E+01 0.23780505627E+01 0.23779356847E+01 0.23779014993E+01
 0.23779291670E+01 0.23780432939E+01 0.23782794915E+01 0.23786230414E+01 0.23789717371E+01
 0.23791610390E+01 0.23790435780E+01 0.23785726154E+01 0.23778322383E+01 0.23769916847E+01
 0.23762130695E+01 0.23755736812E+01 0.23750523969E+01 0.23745827758E+01 0.23741278344E+01
 0.23737186995E+01 0.23734299598E+01 0.23733142932E+01 0.23733498851E+01 0.23734436395E+01
 0.23734901434E+01 0.23734436395E+01 0.23733498851E+01 0.23733142932E+01 0.23734299598E+01
 0.23737186995E+01 0.23741278344E+01 0.23745827758E+01 0.23750523969E+01 0.23755736812E+01
 0.23762130695E+01 0.23769916847E+01 0.23778322383E+01 0.23785726154E+01 0.23790435780E+01
 0.23791610390E+01 0.23789717371E+01 0.23786230414E+01 0.23782794915E+01 0.23780432939E+01
 0.23779291670E+01 0.23779014993E+01 0.23779356847E+01 0.23780505627E+01 0.23782860411E+01
 0.23786468679E+01 0.23790623270E+01 0.23794000470E+01 0.23735527007E+01 0.23734901434E+01
 0.23733501527E+01 0.23732440321E+01 0.23732745332E+01 0.23734755959E+01 0.23738069462E+01
 0.23742042559E+01 0.23746417376E+01 0.23751531831E+01 0.23757899331E+01 0.23765460056E+01
 0.23773108074E+01 0.23778936411E+01 0.23781127931E+01 0.23778936411E+01 0.23773108074E+01
 0.23765460056E+01 0.23757899331E+01 0.23751531831E+01 0.23746417376E+01 0.23742042559E+01
 0.23738069462E+01 0.23734755959E+01 0.23732745332E+01 0.23732440321E+01 0.23733501527E+01
 0.23734901434E+01 0.23735527007E+01 0.23734901434E+01 0.23733501527E+01 0.23732440321E+01
 0.23732745332E+01 0.23734755959E+01 0.23738069462E+01 0.23742042559E+01 0.23746417376E+01
 0.23751531831E+01 0.23757899331E+01 0.23765460056E+01 0.23773108074E+01 0.23778936411E+01
 0.23781127931E+01 0.23778936411E+01 0.23773108074E+01 0.23765460056E+01 0.23757899331E+01
 0.23751531831E+01 0.23746417376E+01 0.23742042559E+01 0.23738069462E+01 0.23734755959E+01
 0.23732745332E+01 0.23732440321E+01 0.23733501527E+01 0.23734901434E+01 0.23795305167E+01
 0.23794000470E+01 0.23790623270E+01 0.23786468679E+01 0.23782860411E+01 0.23780505627E+01