   2   2   0   0
  0.1169596E+03  0.6161530E-09  0.6161530E-09  0.6161530E-09  0.5000000E-15
  1.000000000000000E-004
  CAR 
 Cs                                      
     17.26020086    -25.31195999  301      0.49452213      1.00000000
    -25.312  0.0000E+00  0.0000E+00
    -25.170  0.0000E+00  0.0000E+00
    -25.028  0.0000E+00  0.0000E+00
    -24.886  0.0000E+00  0.0000E+00
    -24.744  0.0000E+00  0.0000E+00
    -24.602  0.0000E+00  0.0000E+00
    -24.461  0.0000E+00  0.0000E+00
    -24.319  0.0000E+00  0.0000E+00
    -24.177  0.0000E+00  0.0000E+00
    -24.035  0.0000E+00  0.0000E+00
    -23.893  0.0000E+00  0.0000E+00
    -23.751  0.0000E+00  0.0000E+00
    -23.609  0.2454E-09  0.3482E-10
    -23.467  0.9224E-01  0.1309E-01
    -23.325  0.2531E+02  0.3605E+01
    -23.183  0.2785E+01  0.4000E+01
    -23.041  0.1667E-05  0.4000E+01
    -22.900  0.0000E+00  0.4000E+01
    -22.758  0.0000E+00  0.4000E+01
    -22.616  0.0000E+00  0.4000E+01
    -22.474  0.0000E+00  0.4000E+01
    -22.332  0.0000E+00  0.4000E+01
    -22.190  0.0000E+00  0.4000E+01
    -22.048  0.0000E+00  0.4000E+01
    -21.906  0.0000E+00  0.4000E+01
    -21.764  0.0000E+00  0.4000E+01
    -21.622  0.0000E+00  0.4000E+01
    -21.480  0.0000E+00  0.4000E+01
    -21.339  0.0000E+00  0.4000E+01
    -21.197  0.0000E+00  0.4000E+01
    -21.055  0.0000E+00  0.4000E+01
    -20.913  0.0000E+00  0.4000E+01
    -20.771  0.0000E+00  0.4000E+01
    -20.629  0.0000E+00  0.4000E+01
    -20.487  0.0000E+00  0.4000E+01
    -20.345  0.0000E+00  0.4000E+01
    -20.203  0.0000E+00  0.4000E+01
    -20.061  0.0000E+00  0.4000E+01
    -19.919  0.0000E+00  0.4000E+01
    -19.778  0.0000E+00  0.4000E+01
    -19.636  0.0000E+00  0.4000E+01
    -19.494  0.0000E+00  0.4000E+01
    -19.352  0.0000E+00  0.4000E+01
    -19.210  0.0000E+00  0.4000E+01
    -19.068  0.0000E+00  0.4000E+01
    -18.926  0.0000E+00  0.4000E+01
    -18.784  0.0000E+00  0.4000E+01
    -18.642  0.0000E+00  0.4000E+01
    -18.500  0.0000E+00  0.4000E+01
    -18.359  0.0000E+00  0.4000E+01
    -18.217  0.0000E+00  0.4000E+01
    -18.075  0.0000E+00  0.4000E+01
    -17.933  0.0000E+00  0.4000E+01
    -17.791  0.0000E+00  0.4000E+01
    -17.649  0.0000E+00  0.4000E+01
    -17.507  0.0000E+00  0.4000E+01
    -17.365  0.0000E+00  0.4000E+01
    -17.223  0.0000E+00  0.4000E+01
    -17.081  0.0000E+00  0.4000E+01
    -16.939  0.0000E+00  0.4000E+01
    -16.798  0.0000E+00  0.4000E+01
    -16.656  0.0000E+00  0.4000E+01
    -16.514  0.0000E+00  0.4000E+01
    -16.372  0.0000E+00  0.4000E+01
    -16.230  0.0000E+00  0.4000E+01
    -16.088  0.0000E+00  0.4000E+01
    -15.946  0.0000E+00  0.4000E+01
    -15.804  0.0000E+00  0.4000E+01
    -15.662  0.0000E+00  0.4000E+01
    -15.520  0.0000E+00  0.4000E+01
    -15.378  0.0000E+00  0.4000E+01
    -15.237  0.0000E+00  0.4000E+01
    -15.095  0.0000E+00  0.4000E+01
    -14.953  0.0000E+00  0.4000E+01
    -14.811  0.0000E+00  0.4000E+01
    -14.669  0.0000E+00  0.4000E+01
    -14.527  0.0000E+00  0.4000E+01
    -14.385  0.0000E+00  0.4000E+01
    -14.243  0.0000E+00  0.4000E+01
    -14.101  0.0000E+00  0.4000E+01
    -13.959  0.0000E+00  0.4000E+01
    -13.817  0.0000E+00  0.4000E+01
    -13.676  0.0000E+00  0.4000E+01
    -13.534  0.0000E+00  0.4000E+01
    -13.392  0.0000E+00  0.4000E+01
    -13.250  0.0000E+00  0.4000E+01
    -13.108  0.0000E+00  0.4000E+01
    -12.966  0.0000E+00  0.4000E+01
    -12.824  0.0000E+00  0.4000E+01
    -12.682  0.0000E+00  0.4000E+01
    -12.540  0.0000E+00  0.4000E+01
    -12.398  0.0000E+00  0.4000E+01
    -12.256  0.0000E+00  0.4000E+01
    -12.115  0.0000E+00  0.4000E+01
    -11.973  0.0000E+00  0.4000E+01
    -11.831  0.0000E+00  0.4000E+01
    -11.689  0.0000E+00  0.4000E+01
    -11.547  0.0000E+00  0.4000E+01
    -11.405  0.0000E+00  0.4000E+01
    -11.263  0.0000E+00  0.4000E+01
    -11.121  0.0000E+00  0.4000E+01
    -10.979  0.0000E+00  0.4000E+01
    -10.837  0.0000E+00  0.4000E+01
    -10.696  0.0000E+00  0.4000E+01
    -10.554  0.0000E+00  0.4000E+01
    -10.412  0.9056E-05  0.4000E+01
    -10.270  0.3622E+01  0.4514E+01
    -10.128  0.6769E+02  0.1412E+02
     -9.986  0.1325E+02  0.1600E+02
     -9.844  0.3048E-03  0.1600E+02
     -9.702  0.0000E+00  0.1600E+02
     -9.560  0.0000E+00  0.1600E+02
     -9.418  0.0000E+00  0.1600E+02
     -9.276  0.0000E+00  0.1600E+02
     -9.135  0.0000E+00  0.1600E+02
     -8.993  0.0000E+00  0.1600E+02
     -8.851  0.0000E+00  0.1600E+02
     -8.709  0.0000E+00  0.1600E+02
     -8.567  0.0000E+00  0.1600E+02
     -8.425  0.0000E+00  0.1600E+02
     -8.283  0.0000E+00  0.1600E+02
     -8.141  0.0000E+00  0.1600E+02
     -7.999  0.0000E+00  0.1600E+02
     -7.857  0.0000E+00  0.1600E+02
     -7.715  0.0000E+00  0.1600E+02
     -7.574  0.0000E+00  0.1600E+02
     -7.432  0.0000E+00  0.1600E+02
     -7.290  0.0000E+00  0.1600E+02
     -7.148  0.0000E+00  0.1600E+02
     -7.006  0.0000E+00  0.1600E+02
     -6.864  0.0000E+00  0.1600E+02
     -6.722  0.0000E+00  0.1600E+02
     -6.580  0.0000E+00  0.1600E+02
     -6.438  0.0000E+00  0.1600E+02
     -6.296  0.0000E+00  0.1600E+02
     -6.154  0.0000E+00  0.1600E+02
     -6.013  0.0000E+00  0.1600E+02
     -5.871  0.0000E+00  0.1600E+02
     -5.729  0.0000E+00  0.1600E+02
     -5.587  0.0000E+00  0.1600E+02
     -5.445  0.0000E+00  0.1600E+02
     -5.303  0.0000E+00  0.1600E+02
     -5.161  0.0000E+00  0.1600E+02
     -5.019  0.0000E+00  0.1600E+02
     -4.877  0.0000E+00  0.1600E+02
     -4.735  0.0000E+00  0.1600E+02
     -4.594  0.0000E+00  0.1600E+02
     -4.452  0.0000E+00  0.1600E+02
     -4.310  0.0000E+00  0.1600E+02
     -4.168  0.0000E+00  0.1600E+02
     -4.026  0.0000E+00  0.1600E+02
     -3.884  0.0000E+00  0.1600E+02
     -3.742  0.0000E+00  0.1600E+02
     -3.600  0.0000E+00  0.1600E+02
     -3.458  0.0000E+00  0.1600E+02
     -3.316  0.0000E+00  0.1600E+02
     -3.174  0.0000E+00  0.1600E+02
     -3.033  0.0000E+00  0.1600E+02
     -2.891  0.0000E+00  0.1600E+02
     -2.749  0.0000E+00  0.1600E+02
     -2.607  0.0000E+00  0.1600E+02
     -2.465  0.0000E+00  0.1600E+02
     -2.323  0.0000E+00  0.1600E+02
     -2.181  0.0000E+00  0.1600E+02
     -2.039  0.0000E+00  0.1600E+02
     -1.897  0.0000E+00  0.1600E+02
     -1.755  0.0000E+00  0.1600E+02
     -1.613  0.0000E+00  0.1600E+02
     -1.472  0.0000E+00  0.1600E+02
     -1.330  0.3981E-07  0.1600E+02
     -1.188  0.6642E-02  0.1600E+02
     -1.046  0.2058E+00  0.1603E+02
     -0.904  0.4593E+00  0.1610E+02
     -0.762  0.6443E+00  0.1619E+02
     -0.620  0.7300E+00  0.1629E+02
     -0.478  0.9783E+00  0.1643E+02
     -0.336  0.9177E+00  0.1656E+02
     -0.194  0.1339E+01  0.1675E+02
     -0.052  0.1312E+01  0.1694E+02
      0.089  0.1507E+01  0.1715E+02
      0.231  0.1929E+01  0.1742E+02
      0.373  0.1781E+01  0.1768E+02
      0.515  0.2720E+01  0.1806E+02
      0.657  0.2994E+01  0.1849E+02
      0.799  0.2496E+01  0.1884E+02
      0.941  0.2747E+01  0.1923E+02
      1.083  0.2218E+01  0.1955E+02
      1.225  0.3054E+01  0.1998E+02
      1.367  0.5468E+01  0.2075E+02
      1.509  0.7095E+01  0.2176E+02
      1.650  0.5580E+01  0.2255E+02
      1.792  0.4769E+01  0.2323E+02
      1.934  0.4886E+01  0.2392E+02
      2.076  0.5492E+01  0.2470E+02
      2.218  0.5964E+01  0.2555E+02
      2.360  0.5500E+01  0.2633E+02
      2.502  0.4282E+01  0.2694E+02
      2.644  0.3903E+01  0.2749E+02
      2.786  0.3279E+01  0.2796E+02
      2.928  0.2794E+01  0.2835E+02
      3.069  0.4026E+01  0.2892E+02
      3.211  0.3395E+01  0.2941E+02
      3.353  0.4724E+01  0.3008E+02
      3.495  0.5891E+01  0.3091E+02
      3.637  0.7706E+01  0.3201E+02
      3.779  0.8063E+01  0.3315E+02
      3.921  0.7441E+01  0.3421E+02
      4.063  0.8412E+01  0.3540E+02
      4.205  0.1076E+02  0.3693E+02
      4.347  0.7843E+01  0.3804E+02
      4.489  0.3671E+01  0.3856E+02
      4.630  0.3712E+01  0.3909E+02
      4.772  0.2570E+01  0.3945E+02
      4.914  0.2762E+01  0.3984E+02
      5.056  0.2892E+01  0.4025E+02
      5.198  0.4307E+01  0.4087E+02
      5.340  0.1147E+02  0.4249E+02
      5.482  0.6927E+01  0.4348E+02
      5.624  0.5553E+01  0.4426E+02
      5.766  0.5814E+01  0.4509E+02
      5.908  0.4681E+01  0.4575E+02
      6.050  0.6493E+01  0.4667E+02
      6.191  0.7700E+01  0.4777E+02
      6.333  0.6131E+01  0.4864E+02
      6.475  0.5349E+01  0.4940E+02
      6.617  0.5958E+01  0.5024E+02
      6.759  0.4593E+01  0.5089E+02
      6.901  0.2568E+01  0.5126E+02
      7.043  0.2734E+01  0.5165E+02
      7.185  0.2506E+01  0.5200E+02
      7.327  0.2202E+01  0.5231E+02
      7.469  0.3912E+01  0.5287E+02
      7.611  0.1989E+01  0.5315E+02
      7.752  0.4203E+01  0.5375E+02
      7.894  0.8004E+01  0.5488E+02
      8.036  0.6574E+01  0.5582E+02
      8.178  0.6229E+01  0.5670E+02
      8.320  0.6350E+01  0.5760E+02
      8.462  0.5452E+01  0.5838E+02
      8.604  0.5957E+01  0.5922E+02
      8.746  0.6463E+01  0.6014E+02
      8.888  0.3699E+01  0.6066E+02
      9.030  0.4576E+01  0.6131E+02
      9.171  0.5681E+01  0.6212E+02
      9.313  0.7799E+01  0.6323E+02
      9.455  0.6816E+01  0.6419E+02
      9.597  0.5294E+01  0.6494E+02
      9.739  0.5898E+01  0.6578E+02
      9.881  0.5852E+01  0.6661E+02
     10.023  0.5460E+01  0.6739E+02
     10.165  0.3985E+01  0.6795E+02
     10.307  0.3883E+01  0.6850E+02
     10.449  0.7517E+01  0.6957E+02
     10.591  0.6705E+01  0.7052E+02
     10.732  0.6168E+01  0.7140E+02
     10.874  0.5661E+01  0.7220E+02
     11.016  0.6078E+01  0.7306E+02
     11.158  0.4743E+01  0.7373E+02
     11.300  0.6212E+01  0.7462E+02
     11.442  0.6158E+01  0.7549E+02
     11.584  0.6533E+01  0.7642E+02
     11.726  0.7514E+01  0.7748E+02
     11.868  0.5792E+01  0.7831E+02
     12.010  0.7518E+01  0.7937E+02
     12.152  0.6345E+01  0.8027E+02
     12.293  0.5663E+01  0.8108E+02
     12.435  0.8701E+01  0.8231E+02
     12.577  0.8238E+01  0.8348E+02
     12.719  0.7610E+01  0.8456E+02
     12.861  0.5731E+01  0.8537E+02
     13.003  0.4473E+01  0.8601E+02
     13.145  0.6658E+01  0.8695E+02
     13.287  0.5288E+01  0.8770E+02
     13.429  0.7691E+01  0.8879E+02
     13.571  0.5122E+01  0.8952E+02
     13.713  0.6686E+01  0.9047E+02
     13.854  0.6698E+01  0.9142E+02
     13.996  0.7280E+01  0.9245E+02
     14.138  0.5636E+01  0.9325E+02
     14.280  0.6210E+01  0.9413E+02
     14.422  0.5489E+01  0.9491E+02
     14.564  0.3275E+01  0.9538E+02
     14.706  0.2402E+01  0.9572E+02
     14.848  0.4645E+00  0.9579E+02
     14.990  0.5280E+00  0.9586E+02
     15.132  0.3191E+00  0.9591E+02
     15.274  0.3597E+00  0.9596E+02
     15.415  0.3069E+00  0.9600E+02
     15.557  0.7208E-03  0.9600E+02
     15.699  0.2712E-11  0.9600E+02
     15.841  0.0000E+00  0.9600E+02
     15.983  0.0000E+00  0.9600E+02
     16.125  0.0000E+00  0.9600E+02
     16.267  0.0000E+00  0.9600E+02
     16.409  0.0000E+00  0.9600E+02
     16.551  0.0000E+00  0.9600E+02
     16.693  0.0000E+00  0.9600E+02
     16.834  0.0000E+00  0.9600E+02
     16.976  0.0000E+00  0.9600E+02
     17.118  0.0000E+00  0.9600E+02
     17.260  0.0000E+00  0.9600E+02
