    2    2    1    1
  0.1169596E+03  0.6161530E-09  0.6161530E-09  0.6161530E-09  0.5000000E-15
  1.000000000000000E-004
  CAR 
 Cs                                      
     18     84     48
 
  0.0000000E+00  0.0000000E+00  0.0000000E+00  0.5787037E-03
      1        -23.376862   1.000000
      2        -23.365779   1.000000
      3        -10.218224   1.000000
      4        -10.218224   1.000000
      5        -10.218224   1.000000
      6        -10.125817   1.000000
      7        -10.125817   1.000000
      8        -10.125817   1.000000
      9         -1.173109   1.000000
     10          1.149739   0.000000
     11          1.149739   0.000000
     12          2.970840   0.000000
     13          2.970840   0.000000
     14          2.970840   0.000000
     15          3.456604   0.000000
     16          3.456604   0.000000
     17          3.456604   0.000000
     18          3.816039   0.000000
     19          3.816039   0.000000
     20          4.860463   0.000000
     21          4.881108   0.000000
     22          4.881108   0.000000
     23          4.881108   0.000000
     24          5.878664   0.000000
     25          5.878664   0.000000
     26          5.878664   0.000000
     27          8.735446   0.000000
     28          8.791152   0.000000
     29          8.791152   0.000000
     30          8.878719   0.000000
     31          8.878719   0.000000
     32          8.878719   0.000000
     33          9.255166   0.000000
     34          9.255166   0.000000
     35         11.003784   0.000000
     36         11.327435   0.000000
     37         11.327435   0.000000
     38         11.327435   0.000000
     39         12.498310   0.000000
     40         12.498310   0.000000
     41         12.498310   0.000000
     42         13.054277   0.000000
     43         13.421124   0.000000
     44         13.421124   0.000000
     45         13.421124   0.000000
     46         14.053158   0.000000
     47         14.053158   0.000000
     48         14.053158   0.000000
 
  0.8333333E-01 -0.4912661E-32  0.0000000E+00  0.3472222E-02
      1        -23.376583   1.000000
      2        -23.365995   1.000000
      3        -10.218120   1.000000
      4        -10.216582   1.000000
      5        -10.216582   1.000000
      6        -10.128834   1.000000
      7        -10.127267   1.000000
      8        -10.127267   1.000000
      9         -1.135101   1.000000
     10          1.145653   0.000000
     11          1.174727   0.000000
     12          2.943517   0.000000
     13          2.943517   0.000000
     14          2.992298   0.000000
     15          3.320108   0.000000
     16          3.383862   0.000000
     17          3.383862   0.000000
     18          3.691599   0.000000
     19          3.848775   0.000000
     20          4.823421   0.000000
     21          5.000166   0.000000
     22          5.000166   0.000000
     23          5.061144   0.000000
     24          5.970906   0.000000
     25          5.970906   0.000000
     26          6.020526   0.000000
     27          8.185951   0.000000
     28          8.663429   0.000000
     29          8.763234   0.000000
     30          8.818387   0.000000
     31          8.835287   0.000000
     32          8.835287   0.000000
     33          9.305203   0.000000
     34          9.731973   0.000000
     35         11.221525   0.000000
     36         11.221525   0.000000
     37         11.251050   0.000000
     38         11.251144   0.000000
     39         12.341683   0.000000
     40         12.341683   0.000000
     41         12.423268   0.000000
     42         13.250069   0.000000
     43         13.250069   0.000000
     44         13.356060   0.000000
     45         13.467829   0.000000
     46         13.842942   0.000000
     47         14.289976   0.000000
     48         14.289976   0.000000
 
  0.1666667E+00 -0.6123744E-32  0.0000000E+00  0.3472222E-02
      1        -23.376060   1.000000
      2        -23.366497   1.000000
      3        -10.217383   1.000000
      4        -10.211750   1.000000
      5        -10.211750   1.000000
      6        -10.137614   1.000000
      7        -10.131667   1.000000
      8        -10.131667   1.000000
      9         -1.022627   1.000000
     10          1.106683   0.000000
     11          1.249543   0.000000
     12          2.875224   0.000000
     13          2.875224   0.000000
     14          3.056345   0.000000
     15          3.100399   0.000000
     16          3.220387   0.000000
     17          3.220387   0.000000
     18          3.395788   0.000000
     19          3.943306   0.000000
     20          4.666392   0.000000
     21          5.301389   0.000000
     22          5.301389   0.000000
     23          5.476057   0.000000
     24          6.232534   0.000000
     25          6.232534   0.000000
     26          6.362789   0.000000
     27          7.312988   0.000000
     28          8.369206   0.000000
     29          8.681108   0.000000
     30          8.698879   0.000000
     31          8.698879   0.000000
     32          9.049582   0.000000
     33          9.460401   0.000000
     34         10.014916   0.000000
     35         10.903457   0.000000
     36         10.903457   0.000000
     37         11.128651   0.000000
     38         11.815832   0.000000
     39         12.057506   0.000000
     40         12.057506   0.000000
     41         12.214270   0.000000
     42         12.931032   0.000000
     43         12.931032   0.000000
     44         13.496081   0.000000
     45         13.608866   0.000000
     46         14.085177   0.000000
     47         14.429088   0.000000
     48         14.813502   0.000000
 
  0.2500000E+00 -0.5067409E-32  0.0000000E+00  0.3472222E-02
      1        -23.375089   1.000000
      2        -23.367251   1.000000
      3        -10.215307   1.000000
      4        -10.204092   1.000000
      5        -10.204092   1.000000
      6        -10.150406   1.000000
      7        -10.138694   1.000000
      8        -10.138694   1.000000
      9         -0.840182   1.000000
     10          0.971848   0.000000
     11          1.373722   0.000000
     12          2.795296   0.000000
     13          2.795296   0.000000
     14          3.018753   0.000000
     15          3.038008   0.000000
     16          3.042411   0.000000
     17          3.042411   0.000000
     18          3.161960   0.000000
     19          4.084052   0.000000
     20          4.445492   0.000000
     21          5.704710   0.000000
     22          5.704710   0.000000
     23          5.848263   0.000000
     24          6.495676   0.000000
     25          6.628890   0.000000
     26          6.628890   0.000000
     27          6.780046   0.000000
     28          8.127096   0.000000
     29          8.460736   0.000000
     30          8.460736   0.000000
     31          8.548860   0.000000
     32          9.389014   0.000000
     33          9.734536   0.000000
     34         10.109072   0.000000
     35         10.400451   0.000000
     36         10.400451   0.000000
     37         11.034929   0.000000
     38         11.834854   0.000000
     39         11.834854   0.000000
     40         11.881077   0.000000
     41         11.906532   0.000000
     42         12.619205   0.000000
     43         12.619205   0.000000
     44         13.789912   0.000000
     45         13.844063   0.000000
     46         13.846588   0.000000
     47         15.021396   0.000000
     48         15.239821   0.000000
 
  0.3333333E+00 -0.7480521E-32  0.0000000E+00  0.3472222E-02
      1        -23.373956   1.000000
      2        -23.368395   1.000000
      3        -10.211174   1.000000
      4        -10.194237   1.000000
      5        -10.194237   1.000000
      6        -10.165384   1.000000
      7        -10.148020   1.000000
      8        -10.148020   1.000000
      9         -0.595163   1.000000
     10          0.717210   0.000000
     11          1.546404   0.000000
     12          2.676172   0.000000
     13          2.730972   0.000000
     14          2.730972   0.000000
     15          2.889367   0.000000
     16          2.889367   0.000000
     17          3.150629   0.000000
     18          3.307282   0.000000
     19          4.195610   0.000000
     20          4.218585   0.000000
     21          5.817649   0.000000
     22          5.950689   0.000000
     23          6.163456   0.000000
     24          6.163456   0.000000
     25          7.114346   0.000000
     26          7.114346   0.000000
     27          7.194186   0.000000
     28          8.136317   0.000000
     29          8.136317   0.000000
     30          8.200499   0.000000
     31          8.370978   0.000000
     32          9.779314   0.000000
     33          9.779314   0.000000
     34          9.795035   0.000000
     35         10.071769   0.000000
     36         10.143802   0.000000
     37         10.965870   0.000000
     38         11.403162   0.000000
     39         11.533677   0.000000
     40         11.734828   0.000000
     41         11.734828   0.000000
     42         12.335194   0.000000
     43         12.335194   0.000000
     44         13.018174   0.000000
     45         14.183451   0.000000
     46         14.700148   0.000000
     47         15.197367   0.000000
     48         15.197369   0.000000
 
  0.4166667E+00 -0.1466060E-31  0.0000000E+00  0.3472222E-02
      1        -23.372504   1.000000
      2        -23.369643   1.000000
      3        -10.204019   1.000000
      4        -10.182842   1.000000
      5        -10.182842   1.000000
      6        -10.180336   1.000000
      7        -10.158915   1.000000
      8        -10.158915   1.000000
      9         -0.297975   1.000000
     10          0.387225   0.998797
     11          1.766168   0.000000
     12          2.336253   0.000000
     13          2.700718   0.000000
     14          2.700718   0.000000
     15          2.778044   0.000000
     16          2.778044   0.000000
     17          3.459068   0.000000
     18          3.489322   0.000000
     19          3.942556   0.000000
     20          4.183717   0.000000
     21          5.452092   0.000000
     22          5.766748   0.000000
     23          6.648214   0.000000
     24          6.648214   0.000000
     25          7.466862   0.000000
     26          7.466862   0.000000
     27          7.565879   0.000000
     28          7.943662   0.000000
     29          7.943662   0.000000
     30          8.149778   0.000000
     31          8.636382   0.000000
     32          9.110069   0.000000
     33          9.110069   0.000000
     34          9.787823   0.000000
     35         10.234102   0.000000
     36         10.695224   0.000000
     37         10.915914   0.000000
     38         11.021208   0.000000
     39         11.119779   0.000000
     40         11.758511   0.000000
     41         11.758511   0.000000
     42         12.084124   0.000000
     43         12.084124   0.000000
     44         12.166584   0.000000
     45         14.619384   0.000000
     46         15.277323   0.000000
     47         15.322903   0.000000
     48         15.325103   0.000000
 
  0.5000000E+00 -0.1013482E-31  0.0000000E+00  0.1736111E-02
      1        -23.371080   1.000000
      2        -23.371080   1.000000
      3        -10.193613   1.000000
      4        -10.193613   1.000000
      5        -10.170813   1.000000
      6        -10.170813   1.000000
      7        -10.170813   1.000000
      8        -10.170813   1.000000
      9          0.036799   1.000000
     10          0.036799   1.000000
     11          2.030715   0.000000
     12          2.030715   0.000000
     13          2.714946   0.000000
     14          2.714946   0.000000
     15          2.714946   0.000000
     16          2.714946   0.000000
     17          3.703451   0.000000
     18          3.703451   0.000000
     19          3.858887   0.000000
     20          3.858887   0.000000
     21          5.516012   0.000000
     22          5.516012   0.000000
     23          7.127024   0.000000
     24          7.127024   0.000000
     25          7.127024   0.000000
     26          7.127024   0.000000
     27          7.883318   0.000000
     28          7.883318   0.000000
     29          8.451055   0.000000
     30          8.451055   0.000000
     31          8.451055   0.000000
     32          8.451055   0.000000
     33          9.236288   0.000000
     34          9.236288   0.000000
     35         10.681637   0.000000
     36         10.681637   0.000000
     37         10.905608   0.000000
     38         10.905608   0.000000
     39         11.378256   0.000000
     40         11.378256   0.000000
     41         11.883769   0.000000
     42         11.883769   0.000000
     43         11.883769   0.000000
     44         11.883769   0.000000
     45         15.147138   0.000000
     46         15.147138   0.000000
     47         15.321637   0.000000
     48         15.321637   0.000000
 
  0.8333333E-01  0.8333333E-01  0.0000000E+00  0.6944444E-02
      1        -23.376426   1.000000
      2        -23.366179   1.000000
      3        -10.220753   1.000000
      4        -10.214992   1.000000
      5        -10.212257   1.000000
      6        -10.134804   1.000000
      7        -10.128707   1.000000
      8        -10.125793   1.000000
      9         -1.097439   1.000000
     10          1.159576   0.000000
     11          1.182331   0.000000
     12          2.887041   0.000000
     13          2.900677   0.000000
     14          3.046299   0.000000
     15          3.073826   0.000000
     16          3.312813   0.000000
     17          3.513974   0.000000
     18          3.683724   0.000000
     19          3.801428   0.000000
     20          4.895766   0.000000
     21          4.900570   0.000000
     22          4.981756   0.000000
     23          5.389765   0.000000
     24          5.987897   0.000000
     25          6.059647   0.000000
     26          6.207426   0.000000
     27          8.161432   0.000000
     28          8.222212   0.000000
     29          8.600496   0.000000
     30          8.678290   0.000000
     31          8.788256   0.000000
     32          8.900411   0.000000
     33          9.518859   0.000000
     34         10.045519   0.000000
     35         10.812632   0.000000
     36         11.142513   0.000000
     37         11.316964   0.000000
     38         11.622764   0.000000
     39         12.131818   0.000000
     40         12.300080   0.000000
     41         12.475798   0.000000
     42         12.993741   0.000000
     43         13.042302   0.000000
     44         13.563618   0.000000
     45         13.654847   0.000000
     46         14.038637   0.000000
     47         14.090260   0.000000
     48         14.443851   0.000000
 
  0.1666667E+00  0.8333333E-01  0.0000000E+00  0.1388889E-01
      1        -23.375868   1.000000
      2        -23.366666   1.000000
      3        -10.222336   1.000000
      4        -10.210304   1.000000
      5        -10.205395   1.000000
      6        -10.145574   1.000000
      7        -10.132932   1.000000
      8        -10.127753   1.000000
      9         -0.985984   1.000000
     10          1.130324   0.000000
     11          1.247488   0.000000
     12          2.791979   0.000000
     13          2.803328   0.000000
     14          2.827956   0.000000
     15          3.133860   0.000000
     16          3.152063   0.000000
     17          3.477285   0.000000
     18          3.480746   0.000000
     19          3.884681   0.000000
     20          4.771195   0.000000
     21          5.057060   0.000000
     22          5.250000   0.000000
     23          5.832782   0.000000
     24          6.171506   0.000000
     25          6.312861   0.000000
     26          6.547482   0.000000
     27          7.353019   0.000000
     28          8.183658   0.000000
     29          8.339840   0.000000
     30          8.574139   0.000000
     31          8.642390   0.000000
     32          9.127635   0.000000
     33          9.620431   0.000000
     34         10.369189   0.000000
     35         10.465658   0.000000
     36         10.882243   0.000000
     37         11.400391   0.000000
     38         11.683993   0.000000
     39         11.861631   0.000000
     40         12.356840   0.000000
     41         12.474368   0.000000
     42         12.744103   0.000000
     43         12.772967   0.000000
     44         13.637474   0.000000
     45         13.644384   0.000000
     46         14.175621   0.000000
     47         14.389269   0.000000
     48         14.563777   0.000000
 
  0.2500000E+00  0.8333333E-01  0.0000000E+00  0.1388889E-01
      1        -23.374954   1.000000
      2        -23.367400   1.000000
      3        -10.221858   1.000000
      4        -10.202892   1.000000
      5        -10.196590   1.000000
      6        -10.159462   1.000000
      7        -10.139700   1.000000
      8        -10.133156   1.000000
      9         -0.805264   1.000000
     10          0.996553   0.000000
     11          1.365229   0.000000
     12          2.643475   0.000000
     13          2.716488   0.000000
     14          2.720859   0.000000
     15          2.975843   0.000000
     16          3.202139   0.000000
     17          3.251163   0.000000
     18          3.378227   0.000000
     19          4.042127   0.000000
     20          4.550790   0.000000
     21          5.383552   0.000000
     22          5.647225   0.000000
     23          6.215026   0.000000
     24          6.326530   0.000000
     25          6.660242   0.000000
     26          6.699499   0.000000
     27          7.015183   0.000000
     28          8.118028   0.000000
     29          8.122911   0.000000
     30          8.392930   0.000000
     31          8.438552   0.000000
     32          9.452830   0.000000
     33          9.782889   0.000000
     34         10.132676   0.000000
     35         10.411191   0.000000
     36         10.433847   0.000000
     37         11.287751   0.000000
     38         11.404870   0.000000
     39         11.647722   0.000000
     40         12.106663   0.000000
     41         12.492595   0.000000
     42         12.573949   0.000000
     43         12.611888   0.000000
     44         13.732674   0.000000
     45         13.803597   0.000000
     46         13.962051   0.000000
     47         14.359270   0.000000
     48         14.955085   0.000000
 
  0.3333333E+00  0.8333333E-01  0.0000000E+00  0.1388889E-01
      1        -23.373775   1.000000
      2        -23.368461   1.000000
      3        -10.218791   1.000000
      4        -10.193341   1.000000
      5        -10.186208   1.000000
      6        -10.174799   1.000000
      7        -10.148652   1.000000
      8        -10.141297   1.000000
      9         -0.562658   1.000000
     10          0.740432   0.000000
     11          1.527797   0.000000
     12          2.453729   0.000000
     13          2.658370   0.000000
     14          2.734237   0.000000
     15          2.823394   0.000000
     16          2.971319   0.000000
     17          3.363078   0.000000
     18          3.402662   0.000000
     19          4.193109   0.000000
     20          4.299997   0.000000
     21          5.683789   0.000000
     22          5.783994   0.000000
     23          6.101647   0.000000
     24          6.397254   0.000000
     25          6.951987   0.000000
     26          7.174769   0.000000
     27          7.361789   0.000000
     28          8.007627   0.000000
     29          8.061187   0.000000
     30          8.227298   0.000000
     31          8.266988   0.000000
     32          9.678423   0.000000
     33          9.716290   0.000000
     34         10.010340   0.000000
     35         10.064325   0.000000
     36         10.338627   0.000000
     37         11.021544   0.000000
     38         11.076538   0.000000
     39         11.463599   0.000000
     40         11.855698   0.000000
     41         12.270003   0.000000
     42         12.332977   0.000000
     43         12.357457   0.000000
     44         13.259497   0.000000
     45         13.909978   0.000000
     46         14.300057   0.000000
     47         14.658301   0.000000
     48         15.291556   0.000000
 
  0.4166667E+00  0.8333333E-01  0.0000000E+00  0.1388889E-01
      1        -23.372427   1.000000
      2        -23.369695   1.000000
      3        -10.212458   1.000000
      4        -10.189720   1.000000
      5        -10.182327   1.000000
      6        -10.174747   1.000000
      7        -10.159198   1.000000
      8        -10.151473   1.000000
      9         -0.268486   1.000000
     10          0.410914   0.990980
     11          1.730826   0.000000
     12          2.218089   0.000000
     13          2.630744   0.000000
     14          2.711634   0.000000
     15          2.762895   0.000000
     16          2.834654   0.000000
     17          3.548850   0.000000
     18          3.588313   0.000000
     19          4.045617   0.000000
     20          4.180943   0.000000
     21          5.428475   0.000000
     22          5.685833   0.000000
     23          6.583580   0.000000
     24          6.619200   0.000000
     25          7.219497   0.000000
     26          7.452612   0.000000
     27          7.519121   0.000000
     28          7.931226   0.000000
     29          8.037914   0.000000
     30          8.126291   0.000000
     31          8.673656   0.000000
     32          9.124628   0.000000
     33          9.235633   0.000000
     34          9.998328   0.000000
     35         10.336201   0.000000
     36         10.455820   0.000000
     37         10.830846   0.000000
     38         10.896241   0.000000
     39         11.160395   0.000000
     40         11.788684   0.000000
     41         11.908597   0.000000
     42         12.059534   0.000000
     43         12.281027   0.000000
     44         12.700624   0.000000
     45         14.216995   0.000000
     46         14.398835   0.000000
     47         14.844532   0.000000
     48         15.132211   0.000000
 
  0.5000000E+00  0.8333333E-01  0.0000000E+00  0.6944444E-02
      1        -23.371037   1.000000
      2        -23.371037   1.000000
      3        -10.202638   1.000000
      4        -10.202638   1.000000
      5        -10.170679   1.000000
      6        -10.170679   1.000000
      7        -10.162887   1.000000
      8        -10.162887   1.000000
      9          0.063054   1.000000
     10          0.063054   1.000000
     11          1.966452   0.000000
     12          1.966452   0.000000
     13          2.647163   0.000000
     14          2.647163   0.000000
     15          2.778920   0.000000
     16          2.778920   0.000000
     17          3.804801   0.000000
     18          3.804801   0.000000
     19          3.889865   0.000000
     20          3.889865   0.000000
     21          5.481765   0.000000
     22          5.481765   0.000000
     23          6.981524   0.000000
     24          6.981524   0.000000
     25          7.064382   0.000000
     26          7.064382   0.000000
     27          7.773264   0.000000
     28          7.773264   0.000000
     29          8.477943   0.000000
     30          8.477943   0.000000
     31          8.567198   0.000000
     32          8.567198   0.000000
     33          9.423236   0.000000
     34          9.423236   0.000000
     35         10.657163   0.000000
     36         10.657163   0.000000
     37         10.759615   0.000000
     38         10.759615   0.000000
     39         11.312060   0.000000
     40         11.312060   0.000000
     41         11.884295   0.000000
     42         11.884295   0.000000
     43         12.406553   0.000000
     44         12.406553   0.000000
     45         14.600508   0.000000
     46         14.600508   0.000000
     47         14.642373   0.000000
     48         14.642373   0.000000
 
  0.1666667E+00  0.1666667E+00  0.0000000E+00  0.6944444E-02
      1        -23.375350   1.000000
      2        -23.367066   1.000000
      3        -10.227521   1.000000
      4        -10.206071   1.000000
      5        -10.195676   1.000000
      6        -10.159107   1.000000
      7        -10.136681   1.000000
      8        -10.125847   1.000000
      9         -0.877635   1.000000
     10          1.188613   0.000000
     11          1.221215   0.000000
     12          2.584745   0.000000
     13          2.620155   0.000000
     14          2.690710   0.000000
     15          2.996297   0.000000
     16          3.270329   0.000000
     17          3.595120   0.000000
     18          3.670964   0.000000
     19          3.784870   0.000000
     20          4.955191   0.000000
     21          4.957823   0.000000
     22          5.192575   0.000000
     23          6.197697   0.000000
     24          6.282123   0.000000
     25          6.545143   0.000000
     26          6.760569   0.000000
     27          7.476116   0.000000
     28          7.504554   0.000000
     29          8.225367   0.000000
     30          8.350539   0.000000
     31          8.472744   0.000000
     32          9.338688   0.000000
     33          9.693690   0.000000
     34         10.103191   0.000000
     35         10.779487   0.000000
     36         10.952789   0.000000
     37         10.972674   0.000000
     38         11.642250   0.000000
     39         12.299763   0.000000
     40         12.398509   0.000000
     41         12.399063   0.000000
     42         12.404582   0.000000
     43         13.009063   0.000000
     44         13.629043   0.000000
     45         13.860879   0.000000
     46         13.970626   0.000000
     47         14.086374   0.000000
     48         14.407359   0.000000
 
  0.2500000E+00  0.1666667E+00  0.0000000E+00  0.1388889E-01
      1        -23.374536   1.000000
      2        -23.367747   1.000000
      3        -10.230396   1.000000
      4        -10.199376   1.000000
      5        -10.184887   1.000000
      6        -10.174847   1.000000
      7        -10.142701   1.000000
      8        -10.127749   1.000000
      9         -0.702213   1.000000
     10          1.063700   0.000000
     11          1.313699   0.000000
     12          2.426019   0.000000
     13          2.509265   0.000000
     14          2.590509   0.000000
     15          2.824331   0.000000
     16          3.429097   0.000000
     17          3.454375   0.000000
     18          3.691470   0.000000
     19          3.927213   0.000000
     20          4.808353   0.000000
     21          5.116288   0.000000
     22          5.500888   0.000000
     23          6.165443   0.000000
     24          6.584626   0.000000
     25          6.594352   0.000000
     26          6.906462   0.000000
     27          7.343981   0.000000
     28          7.737511   0.000000
     29          8.068745   0.000000
     30          8.196874   0.000000
     31          8.230108   0.000000
     32          9.611155   0.000000
     33          9.723525   0.000000
     34          9.848521   0.000000
     35         10.523629   0.000000
     36         10.678292   0.000000
     37         11.276747   0.000000
     38         11.497157   0.000000
     39         11.839520   0.000000
     40         12.160449   0.000000
     41         12.255689   0.000000
     42         12.728589   0.000000
     43         13.348577   0.000000
     44         13.376178   0.000000
     45         13.548892   0.000000
     46         13.854500   0.000000
     47         14.209106   0.000000
     48         14.466380   0.000000
 
  0.3333333E+00  0.1666667E+00  0.0000000E+00  0.1388889E-01
      1        -23.373439   1.000000
      2        -23.368657   1.000000
      3        -10.230090   1.000000
      4        -10.191013   1.000000
      5        -10.190739   1.000000
      6        -10.173461   1.000000
      7        -10.150632   1.000000
      8        -10.132946   1.000000
      9         -0.467172   1.000000
     10          0.801713   0.000000
     11          1.457738   0.000000
     12          2.226087   0.000000
     13          2.519469   0.000000
     14          2.605792   0.000000
     15          2.674945   0.000000
     16          3.251767   0.000000
     17          3.610870   0.000000
     18          3.670984   0.000000
     19          4.117967   0.000000
     20          4.560167   0.000000
     21          5.379203   0.000000
     22          5.706705   0.000000
     23          5.935729   0.000000
     24          6.548415   0.000000
     25          6.611281   0.000000
     26          7.350946   0.000000
     27          7.514557   0.000000
     28          7.853415   0.000000
     29          8.013989   0.000000
     30          8.042246   0.000000
     31          8.386656   0.000000
     32          9.609822   0.000000
     33          9.663748   0.000000
     34          9.740750   0.000000
     35         10.338342   0.000000
     36         10.667925   0.000000
     37         11.143939   0.000000
     38         11.252379   0.000000
     39         11.409017   0.000000
     40         12.014680   0.000000
     41         12.046785   0.000000
     42         12.577543   0.000000
     43         13.082556   0.000000
     44         13.297608   0.000000
     45         13.532831   0.000000
     46         13.799427   0.000000
     47         14.443215   0.000000
     48         14.717796   0.000000
 
  0.4166667E+00  0.1666667E+00  0.0000000E+00  0.1388889E-01
      1        -23.372214   1.000000
      2        -23.369795   1.000000
      3        -10.225997   1.000000
      4        -10.205810   1.000000
      5        -10.180840   1.000000
      6        -10.161907   1.000000
      7        -10.160059   1.000000
      8        -10.140858   1.000000