Cs                                      
           1
     6.161530    0.000000    0.000000
     0.000000    6.161530    0.000000
     0.000000    0.000000    6.161530
   Cs
     2
Direct configuration=     1
   0.00000000  0.00000000  0.00000000
   0.50000000  0.50000000  0.50000000
