Sr                                      
   1.00000000000000     
     6.019690    0.000000    0.000000
     0.000000    6.019690    0.000000
     0.000000    0.000000    6.019690
   Sr
     4
Direct
  0.000000  0.000000  0.000000
  0.000000  0.500000  0.500000
  0.500000  0.000000  0.500000
  0.500000  0.500000  0.000000
 
   56   56   56
  797.57      789.91      764.93      718.02      645.39      548.29      435.23      320.38      218.38      138.94    
  84.297      50.551      31.225      20.781      15.335      12.500      10.980      10.131      9.6399      9.3438    
  9.1533      9.0193      8.9153      8.8281      8.7543      8.6963      8.6561      8.6327      8.6251      8.6327    
  8.6561      8.6963      8.7543      8.8281      8.9153      9.0193      9.1533      9.3438      9.6399      10.131    
  10.980      12.500      15.335      20.781      31.225      50.551      84.297      138.94      218.38      320.38    
  435.23      548.29      645.39      718.02      764.93      789.91      789.91      781.88      755.97      707.94    
  634.54      537.47      425.45      312.45      212.63      135.22      82.124      49.380      30.624      20.483    
  15.188      12.424      10.940      10.109      9.6279      9.3378      9.1513      9.0202      8.9184      8.8326    
  8.7600      8.7030      8.6634      8.6403      8.6327      8.6403      8.6634      8.7030      8.7600      8.8326    
  8.9184      9.0202      9.1513      9.3378      9.6279      10.109      10.940      12.424      15.188      20.483    
  30.624      49.380      82.124      135.22      212.63      312.45      425.45      537.47      634.54      707.94    
  755.97      781.88      764.93      755.97      727.67      676.87      601.82      505.46      396.94      289.57    
  196.21      124.65      75.984      46.068      28.923      19.639      14.768      12.209      10.825      10.046    
  9.5941      9.3215      9.1464      9.0235      8.9275      8.8460      8.7768      8.7228      8.6854      8.6634    
  8.6561      8.6634      8.6854      8.7228      8.7768      8.8460      8.9275      9.0235      9.1464      9.3215    
  9.5941      10.046      10.825      12.209      14.768      19.639      28.923      46.068      75.984      124.65    
  196.21      289.57      396.94      505.46      601.82      676.87      727.67      755.97      718.02      707.94    
  676.87      623.30      547.49      454.00      352.30      254.53      171.46      108.93      66.907      41.168    
  26.402      18.380      14.138      11.883      10.650      9.9513      9.5448      9.2995      9.1421      9.0314    
  8.9441      8.8690      8.8053      8.7563      8.7228      8.7030      8.6963      8.7030      8.7228      8.7563    
  8.8053      8.8690      8.9441      9.0314      9.1421      9.2995      9.5448      9.9513      10.650      11.883    
  14.138      18.380      26.402      41.168      66.907      108.93      171.46      254.53      352.30      454.00    
  547.49      623.30      676.87      707.94      645.39      634.54      601.82      547.49      473.91      387.03    
  296.15      211.67      141.86      90.421      56.297      35.427      23.440      16.887      13.379      11.486    
  10.436      9.8368      9.4878      9.2774      9.1426      9.0474      8.9712      8.9045      8.8479      8.8053    
  8.7768      8.7600      8.7543      8.7600      8.7768      8.8053      8.8479      8.9045      8.9712      9.0474    
  9.1426      9.2774      9.4878      9.8368      10.436      11.486      13.379      16.887      23.440      35.427    
  56.297      90.421      141.86      211.67      296.15      387.03      473.91      547.49      601.82      634.54    
  548.29      537.47      505.46      454.00      387.03      311.16      234.83      166.30      111.30      71.623    
  45.565      29.607      20.418      15.343      12.581      11.062      10.206      9.7154      9.4301      9.2592    
  9.1501      9.0727      9.0092      8.9525      8.9045      8.8690      8.8460      8.8326      8.8281      8.8326    
  8.8460      8.8690      8.9045      8.9525      9.0092      9.0727      9.1501      9.2592      9.4301      9.7154    
  10.206      11.062      12.581      15.343      20.418      29.607      45.565      71.623      111.30      166.30    
  234.83      311.16      387.03      454.00      505.46      537.47      435.23      425.45      396.94      352.30    
  296.15      234.83      175.33      123.63      83.229      54.586      35.821      24.312      17.638      13.896    
  11.817      10.648      9.9811      9.5976      9.3766      9.2460      9.1634      9.1042      9.0544      9.0092    
  8.9712      8.9441      8.9275      8.9184      8.9153      8.9184      8.9275      8.9441      8.9712      9.0092    
  9.0544      9.1042      9.1634      9.2460      9.3766      9.5976      9.9811      10.648      11.817      13.896    
  17.638      24.312      35.821      54.586      83.229      123.63      175.33      234.83      296.15      352.30    
  396.94      425.45      320.38      312.45      289.57      254.53      211.67      166.30      123.63      87.571    
  59.955      40.516      27.755      19.899      15.284      12.642      11.138      10.274      9.7757      9.4908    
  9.3298      9.2372      9.1801      9.1392      9.1042      9.0727      9.0474      9.0314      9.0235      9.0202    
  9.0193      9.0202      9.0235      9.0314      9.0474      9.0727      9.1042      9.1392      9.1801      9.2372    
  9.3298      9.4908      9.7757      10.274      11.138      12.642      15.284      19.899      27.755      40.516    
  59.955      87.571      123.63      166.30      211.67      254.53      289.57      312.45      218.38      212.63    
  196.21      171.46      141.86      111.30      83.229      59.955      42.273      29.798      21.589      16.481    
  13.419      11.621      10.569      9.9546      9.5994      9.3997      9.2915      9.2336      9.2012      9.1801    
  9.1634      9.1501      9.1426      9.1421      9.1464      9.1513      9.1533      9.1513      9.1464      9.1421    
  9.1426      9.1501      9.1634      9.1801      9.2012      9.2336      9.2915      9.3997      9.5994      9.9546    
  10.569      11.621      13.419      16.481      21.589      29.798      42.273      59.955      83.229      111.30    
  141.86      171.46      196.21      212.63      138.94      135.22      124.65      108.93      90.421      71.623    
  54.586      40.516      29.798      22.219      17.182      13.986      12.020      10.830      10.118      9.6970    
  9.4567      9.3276      9.2649      9.2395      9.2336      9.2372      9.2460      9.2592      9.2774      9.2995    
  9.3215      9.3378      9.3438      9.3378      9.3215      9.2995      9.2774      9.2592      9.2460      9.2372    
  9.2336      9.2395      9.2649      9.3276      9.4567      9.6970      10.118      10.830      12.020      13.986    
  17.182      22.219      29.798      40.516      54.586      71.623      90.421      108.93      124.65      135.22    
  84.297      82.124      75.984      66.907      56.297      45.565      35.821      27.755      21.589      17.182    
  14.195      12.248      11.013      10.244      9.7758      9.5005      9.3497      9.2784      9.2566      9.2649    
  9.2915      9.3298      9.3766      9.4301      9.4878      9.5448      9.5941      9.6279      9.6399      9.6279    
  9.5941      9.5448      9.4878      9.4301      9.3766      9.3298      9.2915      9.2649      9.2566      9.2784    
  9.3497      9.5005      9.7758      10.244      11.013      12.248      14.195      17.182      21.589      27.755    
  35.821      45.565      56.297      66.907      75.984      82.124      50.551      49.380      46.068      41.168    
  35.427      29.607      24.312      19.899      16.481      13.986      12.248      11.079      10.314      9.8276    
  9.5302      9.3616      9.2805      9.2589      9.2784      9.3276      9.3997      9.4908      9.5976      9.7154    
  9.8368      9.9513      10.046      10.109      10.131      10.109      10.046      9.9513      9.8368      9.7154    
  9.5976      9.4908      9.3997      9.3276      9.2784      9.2589      9.2805      9.3616      9.5302      9.8276    
  10.314      11.079      12.248      13.986      16.481      19.899      24.312      29.607      35.427      41.168    
  46.068      49.380      31.225      30.624      28.923      26.402      23.440      20.418      17.638      15.284    
  13.419      12.020      11.013      10.314      9.8457      9.5452      9.3667      9.2771      9.2534      9.2805    
  9.3497      9.4567      9.5994      9.7757      9.9811      10.206      10.436      10.650      10.825      10.940    
  10.980      10.940      10.825      10.650      10.436      10.206      9.9811      9.7757      9.5994      9.4567    
  9.3497      9.2805      9.2534      9.2771      9.3667      9.5452      9.8457      10.314      11.013      12.020    
  13.419      15.284      17.638      20.418      23.440      26.402      28.923      30.624      20.781      20.483    
  19.639      18.380      16.887      15.343      13.896      12.642      11.621      10.830      10.244      9.8276    
  9.5452      9.3680      9.2736      9.2464      9.2771      9.3616      9.5005      9.6970      9.9546      10.274    
  10.648      11.062      11.486      11.883      12.209      12.424      12.500      12.424      12.209      11.883    
  11.486      11.062      10.648      10.274      9.9546      9.6970      9.5005      9.3616      9.2771      9.2464    
  9.2736      9.3680      9.5452      9.8276      10.244      10.830      11.621      12.642      13.896      15.343    
  16.887      18.380      19.639      20.483      15.335      15.188      14.768      14.138      13.379      12.581    
  11.817      11.138      10.569      10.118      9.7758      9.5302      9.3667      9.2736      9.2434      9.2736    
  9.3667      9.5302      9.7758      10.118      10.569      11.138      11.817      12.581      13.379      14.138    
  14.768      15.188      15.335      15.188      14.768      14.138      13.379      12.581      11.817      11.138    
  10.569      10.118      9.7758      9.5302      9.3667      9.2736      9.2434      9.2736      9.3667      9.5302    
  9.7758      10.118      10.569      11.138      11.817      12.581      13.379      14.138      14.768      15.188    
  12.500      12.424      12.209      11.883      11.486      11.062      10.648      10.274      9.9546      9.6970    
  9.5005      9.3616      9.2771      9.2464      9.2736      9.3680      9.5452      9.8276      10.244      10.830    
  11.621      12.642      13.896      15.343      16.887      18.380      19.639      20.483      20.781      20.483    
  19.639      18.380      16.887      15.343      13.896      12.642      11.621      10.830      10.244      9.8276    
  9.5452      9.3680      9.2736      9.2464      9.2771      9.3616      9.5005      9.6970      9.9546      10.274    
  10.648      11.062      11.486      11.883      12.209      12.424      10.980      10.940      10.825      10.650    
  10.436      10.206      9.9811      9.7757      9.5994      9.4567      9.3497      9.2805      9.2534      9.2771    
  9.3667      9.5452      9.8457      10.314      11.013      12.020      13.419      15.284      17.638      20.418    
  23.440      26.402      28.923      30.624      31.225      30.624      28.923      26.402      23.440      20.418    
  17.638      15.284      13.419      12.020      11.013      10.314      9.8457      9.5452      9.3667      9.2771    
  9.2534      9.2805      9.3497      9.4567      9.5994      9.7757      9.9811      10.206      10.436      10.650    
  10.825      10.940      10.131      10.109      10.046      9.9513      9.8368      9.7154      9.5976      9.4908    
  9.3997      9.3276      9.2784      9.2589      9.2805      9.3616      9.5302      9.8276      10.314      11.079    
  12.248      13.986      16.481      19.899      24.312      29.607      35.427      41.168      46.068      49.380    
  50.551      49.380      46.068      41.168      35.427      29.607      24.312      19.899      16.481      13.986    
  12.248      11.079      10.314      9.8276      9.5302      9.3616      9.2805      9.2589      9.2784      9.3276    
  9.3997      9.4908      9.5976      9.7154      9.8368      9.9513      10.046      10.109      9.6399      9.6279    
  9.5941      9.5448      9.4878      9.4301      9.3766      9.3298      9.2915      9.2649      9.2566      9.2784    
  9.3497      9.5005      9.7758      10.244      11.013      12.248      14.195      17.182      21.589      27.755    
  35.821      45.565      56.297      66.907      75.984      82.124      84.297      82.124      75.984      66.907    
  56.297      45.565      35.821      27.755      21.589      17.182      14.195      12.248      11.013      10.244    
  9.7758      9.5005      9.3497      9.2784      9.2566      9.2649      9.2915      9.3298      9.3766      9.4301    
  9.4878      9.5448      9.5941      9.6279      9.3438      9.3378      9.3215      9.2995      9.2774      9.2592    
  9.2460      9.2372      9.2336      9.2395      9.2649      9.3276      9.4567      9.6970      10.118      10.830    
  12.020      13.986      17.182      22.219      29.798      40.516      54.586      71.623      90.421      108.93    
  124.65      135.22      138.94      135.22      124.65      108.93      90.421      71.623      54.586      40.516    
  29.798      22.219      17.182      13.986      12.020      10.830      10.118      9.6970      9.4567      9.3276    
  9.2649      9.2395      9.2336      9.2372      9.2460      9.2592      9.2774      9.2995      9.3215      9.3378    
  9.1533      9.1513      9.1464      9.1421      9.1426      9.1501      9.1634      9.1801      9.2012      9.2336    
  9.2915      9.3997      9.5994      9.9546      10.569      11.621      13.419      16.481      21.589      29.798    
  42.273      59.955      83.229      111.30      141.86      171.46      196.21      212.63      218.38      212.63    
  196.21      171.46      141.86      111.30      83.229      59.955      42.273      29.798      21.589      16.481    
  13.419      11.621      10.569      9.9546      9.5994      9.3997      9.2915      9.2336      9.2012      9.1801    
  9.1634      9.1501      9.1426      9.1421      9.1464      9.1513      9.0193      9.0202      9.0235      9.0314    
  9.0474      9.0727      9.1042      9.1392      9.1801      9.2372      9.3298      9.4908      9.7757      10.274    
  11.138      12.642      15.284      19.899      27.755      40.516      59.955      87.571      123.63      166.30    
  211.67      254.53      289.57      312.45      320.38      312.45      289.57      254.53      211.67      166.30    
  123.63      87.571      59.955      40.516      27.755      19.899      15.284      12.642      11.138      10.274    
  9.7757      9.4908      9.3298      9.2372      9.1801      9.1392      9.1042      9.0727      9.0474      9.0314    
  9.0235      9.0202      8.9153      8.9184      8.9275      8.9441      8.9712      9.0092      9.0544      9.1042    
  9.1634      9.2460      9.3766      9.5976      9.9811      10.648      11.817      13.896      17.638      24.312    
  35.821      54.586      83.229      123.63      175.33      234.83      296.15      352.30      396.94      425.45    
  435.23      425.45      396.94      352.30      296.15      234.83      175.33      123.63      83.229      54.586    
  35.821      24.312      17.638      13.896      11.817      10.648      9.9811      9.5976      9.3766      9.2460    
  9.1634      9.1042      9.0544      9.0092      8.9712      8.9441      8.9275      8.9184      8.8281      8.8326    
  8.8460      8.8690      8.9045      8.9525      9.0092      9.0727      9.1501      9.2592      9.4301      9.7154    
  10.206      11.062      12.581      15.343      20.418      29.607      45.565      71.623      111.30      166.30    
  234.83      311.16      387.03      454.00      505.46      537.47      548.29      537.47      505.46      454.00    
  387.03      311.16      234.83      166.30      111.30      71.623      45.565      29.607      20.418      15.343    
  12.581      11.062      10.206      9.7154      9.4301      9.2592      9.1501      9.0727      9.0092      8.9525    
  8.9045      8.8690      8.8460      8.8326      8.7543      8.7600      8.7768      8.8053      8.8479      8.9045    
  8.9712      9.0474      9.1426      9.2774      9.4878      9.8368      10.436      11.486      13.379      16.887    
  23.440      35.427      56.297      90.421      141.86      211.67      296.15      387.03      473.91      547.49    
  601.82      634.54      645.39      634.54      601.82      547.49      473.91      387.03      296.15      211.67    
  141.86      90.421      56.297      35.427      23.440      16.887      13.379      11.486      10.436      9.8368    
  9.4878      9.2774      9.1426      9.0474      8.9712      8.9045      8.8479      8.8053      8.7768      8.7600    
  8.6963      8.7030      8.7228      8.7563      8.8053      8.8690      8.9441      9.0314      9.1421      9.2995    
  9.5448      9.9513      10.650      11.883      14.138      18.380      26.402      41.168      66.907      108.93    
  171.46      254.53      352.30      454.00      547.49      623.30      676.87      707.94      718.02      707.94    
  676.87      623.30      547.49      454.00      352.30      254.53      171.46      108.93      66.907      41.168    
  26.402      18.380      14.138      11.883      10.650      9.9513      9.5448      9.2995      9.1421      9.0314    
  8.9441      8.8690      8.8053      8.7563      8.7228      8.7030      8.6561      8.6634      8.6854      8.7228    
  8.7768      8.8460      8.9275      9.0235      9.1464      9.3215      9.5941      10.046      10.825      12.209    
  14.768      19.639      28.923      46.068      75.984      124.65      196.21      289.57      396.94      505.46    
  601.82      676.87      727.67      755.97      764.93      755.97      727.67      676.87      601.82      505.46    
  396.94      289.57      196.21      124.65      75.984      46.068      28.923      19.639      14.768      12.209    
  10.825      10.046      9.5941      9.3215      9.1464      9.0235      8.9275      8.8460      8.7768      8.7228    
  8.6854      8.6634      8.6327      8.6403      8.6634      8.7030      8.7600      8.8326      8.9184      9.0202    
  9.1513      9.3378      9.6279      10.109      10.940      12.424      15.188      20.483      30.624      49.380    
  82.124      135.22      212.63      312.45      425.45      537.47      634.54      707.94      755.97      781.88    
  789.91      781.88      755.97      707.94      634.54      537.47      425.45      312.45      212.63      135.22    
  82.124      49.380      30.624      20.483      15.188      12.424      10.940      10.109      9.6279      9.3378    
  9.1513      9.0202      8.9184      8.8326      8.7600      8.7030      8.6634      8.6403      8.6251      8.6327    
  8.6561      8.6963      8.7543      8.8281      8.9153      9.0193      9.1533      9.3438      9.6399      10.131    
  10.980      12.500      15.335      20.781      31.225      50.551      84.297      138.94      218.38      320.38    
  435.23      548.29      645.39      718.02      764.93      789.91      797.57      789.91      764.93      718.02    
  645.39      548.29      435.23      320.38      218.38      138.94      84.297      50.551      31.225      20.781    
  15.335      12.500      10.980      10.131      9.6399      9.3438      9.1533      9.0193      8.9153      8.8281    
  8.7543      8.6963      8.6561      8.6327      8.6327      8.6403      8.6634      8.7030      8.7600      8.8326    
  8.9184      9.0202      9.1513      9.3378      9.6279      10.109      10.940      12.424      15.188      20.483    
  30.624      49.380      82.124      135.22      212.63      312.45      425.45      537.47      634.54      707.94    
  755.97      781.88      789.91      781.88      755.97      707.94      634.54      537.47      425.45      312.45    
  212.63      135.22      82.124      49.380      30.624      20.483      15.188      12.424      10.940      10.109    
  9.6279      9.3378      9.1513      9.0202      8.9184      8.8326      8.7600      8.7030      8.6634      8.6403    
  8.6561      8.6634      8.6854      8.7228      8.7768      8.8460      8.9275      9.0235      9.1464      9.3215    
  9.5941      10.046      10.825      12.209      14.768      19.639      28.923      46.068      75.984      124.65    
  196.21      289.57      396.94      505.46      601.82      676.87      727.67      755.97      764.93      755.97    
  727.67      676.87      601.82      505.46      396.94      289.57      196.21      124.65      75.984      46.068    
  28.923      19.639      14.768      12.209      10.825      10.046      9.5941      9.3215      9.1464      9.0235    
  8.9275      8.8460      8.7768      8.7228      8.6854      8.6634      8.6963      8.7030      8.7228      8.7563    
  8.8053      8.8690      8.9441      9.0314      9.1421      9.2995      9.5448      9.9513      10.650      11.883    
  14.138      18.380      26.402      41.168      66.907      108.93      171.46      254.53      352.30      454.00    
  547.49      623.30      676.87      707.94      718.02      707.94      676.87      623.30      547.49      454.00    
  352.30      254.53      171.46      108.93      66.907      41.168      26.402      18.380      14.138      11.883    
  10.650      9.9513      9.5448      9.2995      9.1421      9.0314      8.9441      8.8690      8.8053      8.7563    
  8.7228      8.7030      8.7543      8.7600      8.7768      8.8053      8.8479      8.9045      8.9712      9.0474    
  9.1426      9.2774      9.4878      9.8368      10.436      11.486      13.379      16.887      23.440      35.427    
  56.297      90.421      141.86      211.67      296.15      387.03      473.91      547.49      601.82      634.54    
  645.39      634.54      601.82      547.49      473.91      387.03      296.15      211.67      141.86      90.421    
  56.297      35.427      23.440      16.887      13.379      11.486      10.436      9.8368      9.4878      9.2774    
  9.1426      9.0474      8.9712      8.9045      8.8479      8.8053      8.7768      8.7600      8.8281      8.8326    
  8.8460      8.8690      8.9045      8.9525      9.0092      9.0727      9.1501      9.2592      9.4301      9.7154    
  10.206      11.062      12.581      15.343      20.418      29.607      45.565      71.623      111.30      166.30    
  234.83      311.16      387.03      454.00      505.46      537.47      548.29      537.47      505.46      454.00    
  387.03      311.16      234.83      166.30      111.30      71.623      45.565      29.607      20.418      15.343    
  12.581      11.062      10.206      9.7154      9.4301      9.2592      9.1501      9.0727      9.0092      8.9525    
  8.9045      8.8690      8.8460      8.8326      8.9153      8.9184      8.9275      8.9441      8.9712      9.0092    
  9.0544      9.1042      9.1634      9.2460      9.3766      9.5976      9.9811      10.648      11.817      13.896    
  17.638      24.312      35.821      54.586      83.229      123.63      175.33      234.83      296.15      352.30    
  396.94      425.45      435.23      425.45      396.94      352.30      296.15      234.83      175.33      123.63    
  83.229      54.586      35.821      24.312      17.638      13.896      11.817      10.648      9.9811      9.5976    
  9.3766      9.2460      9.1634      9.1042      9.0544      9.0092      8.9712      8.9441      8.9275      8.9184    
  9.0193      9.0202      9.0235      9.0314      9.0474      9.0727      9.1042      9.1392      9.1801      9.2372    
  9.3298      9.4908      9.7757      10.274      11.138      12.642      15.284      19.899      27.755      40.516    
  59.955      87.571      123.63      166.30      211.67      254.53      289.57      312.45      320.38      312.45    
  289.57      254.53      211.67      166.30      123.63      87.571      59.955      40.516      27.755      19.899    
  15.284      12.642      11.138      10.274      9.7757      9.4908      9.3298      9.2372      9.1801      9.1392    
  9.1042      9.0727      9.0474      9.0314      9.0235      9.0202      9.1533      9.1513      9.1464      9.1421    
  9.1426      9.1501      9.1634      9.1801      9.2012      9.2336      9.2915      9.3997      9.5994      9.9546    
  10.569      11.621      13.419      16.481      21.589      29.798      42.273      59.955      83.229      111.30    
  141.86      171.46      196.21      212.63      218.38      212.63      196.21      171.46      141.86      111.30    
  83.229      59.955      42.273      29.798      21.589      16.481      13.419      11.621      10.569      9.9546    
  9.5994      9.3997      9.2915      9.2336      9.2012      9.1801      9.1634      9.1501      9.1426      9.1421    
  9.1464      9.1513      9.3438      9.3378      9.3215      9.2995      9.2774      9.2592      9.2460      9.2372    
  9.2336      9.2395      9.2649      9.3276      9.4567      9.6970      10.118      10.830      12.020      13.986    
  17.182      22.219      29.798      40.516      54.586      71.623      90.421      108.93      124.65      135.22    
  138.94      135.22      124.65      108.93      90.421      71.623      54.586      40.516      29.798      22.219    
  17.182      13.986      12.020      10.830      10.118      9.6970      9.4567      9.3276      9.2649      9.2395    
  9.2336      9.2372      9.2460      9.2592      9.2774      9.2995      9.3215      9.3378      9.6399      9.6279    
  9.5941      9.5448      9.4878      9.4301      9.3766      9.3298      9.2915      9.2649      9.2566      9.2784    
  9.3497      9.5005      9.7758      10.244      11.013      12.248      14.195      17.182      21.589      27.755    
  35.821      45.565      56.297      66.907      75.984      82.124      84.297      82.124      75.984      66.907    
  56.297      45.565      35.821      27.755      21.589      17.182      14.195      12.248      11.013      10.244    
  9.7758      9.5005      9.3497      9.2784      9.2566      9.2649      9.2915      9.3298      9.3766      9.4301    
  9.4878      9.5448      9.5941      9.6279      10.131      10.109      10.046      9.9513      9.8368      9.7154    
  9.5976      9.4908      9.3997      9.3276      9.2784      9.2589      9.2805      9.3616      9.5302      9.8276    
  10.314      11.079      12.248      13.986      16.481      19.899      24.312      29.607      35.427      41.168    
  46.068      49.380      50.551      49.380      46.068      41.168      35.427      29.607      24.312      19.899    
  16.481      13.986      12.248      11.079      10.314      9.8276      9.5302      9.3616      9.2805      9.2589    
  9.2784      9.3276      9.3997      9.4908      9.5976      9.7154      9.8368      9.9513      10.046      10.109    
  10.980      10.940      10.825      10.650      10.436      10.206      9.9811      9.7757      9.5994      9.4567    
  9.3497      9.2805      9.2534      9.2771      9.3667      9.5452      9.8457      10.314      11.013      12.020    
  13.419      15.284      17.638      20.418      23.440      26.402      28.923      30.624      31.225      30.624    
  28.923      26.402      23.440      20.418      17.638      15.284      13.419      12.020      11.013      10.314    
  9.8457      9.5452      9.3667      9.2771      9.2534      9.2805      9.3497      9.4567      9.5994      9.7757    
  9.9811      10.206      10.436      10.650      10.825      10.940      12.500      12.424      12.209      11.883    
  11.486      11.062      10.648      10.274      9.9546      9.6970      9.5005      9.3616      9.2771      9.2464    
  9.2736      9.3680      9.5452      9.8276      10.244      10.830      11.621      12.642      13.896      15.343    
  16.887      18.380      19.639      20.483      20.781      20.483      19.639      18.380      16.887      15.343    
  13.896      12.642      11.621      10.830      10.244      9.8276      9.5452      9.3680      9.2736      9.2464    
  9.2771      9.3616      9.5005      9.6970      9.9546      10.274      10.648      11.062      11.486      11.883    
  12.209      12.424      15.335      15.188      14.768      14.138      13.379      12.581      11.817      11.138    
  10.569      10.118      9.7758      9.5302      9.3667      9.2736      9.2434      9.2736      9.3667      9.5302    
  9.7758      10.118      10.569      11.138      11.817      12.581      13.379      14.138      14.768      15.188    
  15.335      15.188      14.768      14.138      13.379      12.581      11.817      11.138      10.569      10.118    
  9.7758      9.5302      9.3667      9.2736      9.2434      9.2736      9.3667      9.5302      9.7758      10.118    
  10.569      11.138      11.817      12.581      13.379      14.138      14.768      15.188      20.781      20.483    
  19.639      18.380      16.887      15.343      13.896      12.642      11.621      10.830      10.244      9.8276    
  9.5452      9.3680      9.2736      9.2464      9.2771      9.3616      9.5005      9.6970      9.9546      10.274    
  10.648      11.062      11.486      11.883      12.209      12.424      12.500      12.424      12.209      11.883    
  11.486      11.062      10.648      10.274      9.9546      9.6970      9.5005      9.3616      9.2771      9.2464    