Sr                                      
   1.00000000000000     
     6.019690    0.000000    0.000000
     0.000000    6.019690    0.000000
     0.000000    0.000000    6.019690
   Sr
     4
Direct
  0.000000  0.000000  0.000000
  0.000000  0.500000  0.500000
  0.500000  0.000000  0.500000
  0.500000  0.500000  0.000000
 
   56   56   56
 0.79757172183E+03 0.78990517165E+03 0.76492986558E+03 0.71801948082E+03 0.64539309448E+03
 0.54828766874E+03 0.43523323359E+03 0.32038070509E+03 0.21838337706E+03 0.13894211552E+03
 0.84297110401E+02 0.50551351842E+02 0.31225148943E+02 0.20781077367E+02 0.15335168072E+02
 0.12499650709E+02 0.10979979724E+02 0.10131277216E+02 0.96399087582E+01 0.93438069381E+01
 0.91533140532E+01 0.90193141617E+01 0.89153489172E+01 0.88281047762E+01 0.87542983129E+01
 0.86963415183E+01 0.86560808986E+01 0.86327364312E+01 0.86250786327E+01 0.86327364312E+01
 0.86560808986E+01 0.86963415183E+01 0.87542983129E+01 0.88281047762E+01 0.89153489172E+01
 0.90193141617E+01 0.91533140532E+01 0.93438069381E+01 0.96399087582E+01 0.10131277216E+02
 0.10979979724E+02 0.12499650709E+02 0.15335168072E+02 0.20781077367E+02 0.31225148943E+02
 0.50551351842E+02 0.84297110401E+02 0.13894211552E+03 0.21838337706E+03 0.32038070509E+03
 0.43523323359E+03 0.54828766874E+03 0.64539309448E+03 0.71801948082E+03 0.76492986558E+03
 0.78990517165E+03 0.78990517165E+03 0.78188130280E+03 0.75597288729E+03 0.70794222766E+03
 0.63453917728E+03 0.53747061386E+03 0.42545354009E+03 0.31244530931E+03 0.21263264427E+03
 0.13521838187E+03 0.82124365270E+02 0.49379886393E+02 0.30623735980E+02 0.20483294844E+02
 0.15187911099E+02 0.12424445384E+02 0.10939756991E+02 0.10109158901E+02 0.96278841432E+01
 0.93378020614E+01 0.91512957483E+01 0.90202175349E+01 0.89183838336E+01 0.88326461307E+01
 0.87600089608E+01 0.87030250718E+01 0.86634210369E+01 0.86403470841E+01 0.86327364312E+01
 0.86403470841E+01 0.86634210369E+01 0.87030250718E+01 0.87600089608E+01 0.88326461307E+01
 0.89183838336E+01 0.90202175349E+01 0.91512957483E+01 0.93378020614E+01 0.96278841432E+01
 0.10109158901E+02 0.10939756991E+02 0.12424445384E+02 0.15187911099E+02 0.20483294844E+02
 0.30623735980E+02 0.49379886393E+02 0.82124365270E+02 0.13521838187E+03 0.21263264427E+03
 0.31244530931E+03 0.42545354009E+03 0.53747061386E+03 0.63453917728E+03 0.70794222766E+03
 0.75597288729E+03 0.78188130280E+03 0.76492986558E+03 0.75597288729E+03 0.72766516363E+03
 0.67687346479E+03 0.60181932566E+03 0.50546010568E+03 0.39693696618E+03 0.28957445767E+03
 0.19620779655E+03 0.12465368825E+03 0.75984076400E+02 0.46068347620E+02 0.28922724261E+02
 0.19638761493E+02 0.14768434608E+02 0.12209304898E+02 0.10824570265E+02 0.10046140354E+02
 0.95941305121E+01 0.93215036458E+01 0.91464043954E+01 0.90234862702E+01 0.89275179874E+01
 0.88459905867E+01 0.87767785078E+01 0.87228048992E+01 0.86854049122E+01 0.86634210369E+01
 0.86560808986E+01 0.86634210369E+01 0.86854049122E+01 0.87228048992E+01 0.87767785078E+01
 0.88459905867E+01 0.89275179874E+01 0.90234862702E+01 0.91464043954E+01 0.93215036458E+01
 0.95941305121E+01 0.10046140354E+02 0.10824570265E+02 0.12209304898E+02 0.14768434608E+02
 0.19638761493E+02 0.28922724261E+02 0.46068347620E+02 0.75984076400E+02 0.12465368825E+03
 0.19620779655E+03 0.28957445767E+03 0.39693696618E+03 0.50546010568E+03 0.60181932566E+03
 0.67687346479E+03 0.72766516363E+03 0.75597288729E+03 0.71801948082E+03 0.70794222766E+03
 0.67687346479E+03 0.62329626135E+03 0.54748700361E+03 0.45400078079E+03 0.35229823308E+03
 0.25453167814E+03 0.17146125243E+03 0.10893092392E+03 0.66906976750E+02 0.41167503151E+02
 0.26401929406E+02 0.18379985271E+02 0.14137647688E+02 0.11883084969E+02 0.10649522119E+02
 0.99512631648E+01 0.95447983529E+01 0.92994978881E+01 0.91420541623E+01 0.90314143923E+01
 0.89441487946E+01 0.88690427029E+01 0.88053047420E+01 0.87563184570E+01 0.87228048992E+01
 0.87030250718E+01 0.86963415183E+01 0.87030250718E+01 0.87228048992E+01 0.87563184570E+01
 0.88053047420E+01 0.88690427029E+01 0.89441487946E+01 0.90314143923E+01 0.91420541623E+01
 0.92994978881E+01 0.95447983529E+01 0.99512631648E+01 0.10649522119E+02 0.11883084969E+02
 0.14137647688E+02 0.18379985271E+02 0.26401929406E+02 0.41167503151E+02 0.66906976750E+02
 0.10893092392E+03 0.17146125243E+03 0.25453167814E+03 0.35229823308E+03 0.45400078079E+03
 0.54748700361E+03 0.62329626135E+03 0.67687346479E+03 0.70794222766E+03 0.64539309448E+03
 0.63453917728E+03 0.60181932566E+03 0.54748700361E+03 0.47391476397E+03 0.38703398829E+03
 0.29614749830E+03 0.21167153216E+03 0.14186067364E+03 0.90420924791E+02 0.56297474675E+02
 0.35427324402E+02 0.23439875950E+02 0.16886974699E+02 0.13379447646E+02 0.11486211701E+02
 0.10435809857E+02 0.98368153229E+01 0.94877547449E+01 0.92773896109E+01 0.91425548090E+01
 0.90474321726E+01 0.89711845275E+01 0.89044547639E+01 0.88479074205E+01 0.88053047420E+01
 0.87767785078E+01 0.87600089608E+01 0.87542983129E+01 0.87600089608E+01 0.87767785078E+01
 0.88053047420E+01 0.88479074205E+01 0.89044547639E+01 0.89711845275E+01 0.90474321726E+01
 0.91425548090E+01 0.92773896109E+01 0.94877547449E+01 0.98368153229E+01 0.10435809857E+02
 0.11486211701E+02 0.13379447646E+02 0.16886974699E+02 0.23439875950E+02 0.35427324402E+02
 0.56297474675E+02 0.90420924791E+02 0.14186067364E+03 0.21167153216E+03 0.29614749830E+03
 0.38703398829E+03 0.47391476397E+03 0.54748700361E+03 0.60181932566E+03 0.63453917728E+03
 0.54828766874E+03 0.53747061386E+03 0.50546010568E+03 0.45400078079E+03 0.38703398829E+03
 0.31115607227E+03 0.23482608347E+03 0.16630415906E+03 0.11129608364E+03 0.71622539898E+02
 0.45565110433E+02 0.29607299202E+02 0.20417588271E+02 0.15342768099E+02 0.12581213231E+02
 0.11061950012E+02 0.10206237202E+02 0.97154066534E+01 0.94301048951E+01 0.92592025308E+01
 0.91501239133E+01 0.90726614879E+01 0.90091634308E+01 0.89524645121E+01 0.89044547639E+01
 0.88690427029E+01 0.88459905867E+01 0.88326461307E+01 0.88281047762E+01 0.88326461307E+01
 0.88459905867E+01 0.88690427029E+01 0.89044547639E+01 0.89524645121E+01 0.90091634308E+01
 0.90726614879E+01 0.91501239133E+01 0.92592025308E+01 0.94301048951E+01 0.97154066534E+01
 0.10206237202E+02 0.11061950012E+02 0.12581213231E+02 0.15342768099E+02 0.20417588271E+02
 0.29607299202E+02 0.45565110433E+02 0.71622539898E+02 0.11129608364E+03 0.16630415906E+03
 0.23482608347E+03 0.31115607227E+03 0.38703398829E+03 0.45400078079E+03 0.50546010568E+03
 0.53747061386E+03 0.43523323359E+03 0.42545354009E+03 0.39693696618E+03 0.35229823308E+03
 0.29614749830E+03 0.23482608347E+03 0.17532741380E+03 0.12363262135E+03 0.83228874334E+02
 0.54586032668E+02 0.35820560769E+02 0.24311530619E+02 0.17637972658E+02 0.13896204617E+02
 0.11816946567E+02 0.10648488871E+02 0.99811313993E+01 0.95976096426E+01 0.93766069202E+01
 0.92460117321E+01 0.91634163608E+01 0.91042288445E+01 0.90544130221E+01 0.90091634308E+01
 0.89711845275E+01 0.89441487946E+01 0.89275179874E+01 0.89183838336E+01 0.89153489172E+01
 0.89183838336E+01 0.89275179874E+01 0.89441487946E+01 0.89711845275E+01 0.90091634308E+01
 0.90544130221E+01 0.91042288445E+01 0.91634163608E+01 0.92460117321E+01 0.93766069202E+01
 0.95976096426E+01 0.99811313993E+01 0.10648488871E+02 0.11816946567E+02 0.13896204617E+02
 0.17637972658E+02 0.24311530619E+02 0.35820560769E+02 0.54586032668E+02 0.83228874334E+02
 0.12363262135E+03 0.17532741380E+03 0.23482608347E+03 0.29614749830E+03 0.35229823308E+03
 0.39693696618E+03 0.42545354009E+03 0.32038070509E+03 0.31244530931E+03 0.28957445767E+03
 0.25453167814E+03 0.21167153216E+03 0.16630415906E+03 0.12363262135E+03 0.87570926195E+02
 0.59955121258E+02 0.40516027119E+02 0.27754578952E+02 0.19898664203E+02 0.15283951764E+02
 0.12642149364E+02 0.11137539652E+02 0.10273890192E+02 0.97757066472E+01 0.94908492137E+01
 0.93297832612E+01 0.92372478113E+01 0.91801103652E+01 0.91391900712E+01 0.91042288445E+01
 0.90726614879E+01 0.90474321726E+01 0.90314143923E+01 0.90234862702E+01 0.90202175349E+01
 0.90193141617E+01 0.90202175349E+01 0.90234862702E+01 0.90314143923E+01 0.90474321726E+01
 0.90726614879E+01 0.91042288445E+01 0.91391900712E+01 0.91801103652E+01 0.92372478113E+01
 0.93297832612E+01 0.94908492137E+01 0.97757066472E+01 0.10273890192E+02 0.11137539652E+02
 0.12642149364E+02 0.15283951764E+02 0.19898664203E+02 0.27754578952E+02 0.40516027119E+02
 0.59955121258E+02 0.87570926195E+02 0.12363262135E+03 0.16630415906E+03 0.21167153216E+03
 0.25453167814E+03 0.28957445767E+03 0.31244530931E+03 0.21838337706E+03 0.21263264427E+03
 0.19620779655E+03 0.17146125243E+03 0.14186067364E+03 0.11129608364E+03 0.83228874334E+02
 0.59955121258E+02 0.42272664739E+02 0.29797729635E+02 0.21589214208E+02 0.16480513157E+02
 0.13419379357E+02 0.11620780955E+02 0.10569150578E+02 0.99546010036E+01 0.95993514659E+01
 0.93997485396E+01 0.92914762865E+01 0.92336056218E+01 0.92012194573E+01 0.91801103652E+01
 0.91634163608E+01 0.91501239133E+01 0.91425548090E+01 0.91420541623E+01 0.91464043954E+01
 0.91512957483E+01 0.91533140532E+01 0.91512957483E+01 0.91464043954E+01 0.91420541623E+01
 0.91425548090E+01 0.91501239133E+01 0.91634163608E+01 0.91801103652E+01 0.92012194573E+01
 0.92336056218E+01 0.92914762865E+01 0.93997485396E+01 0.95993514659E+01 0.99546010036E+01
 0.10569150578E+02 0.11620780955E+02 0.13419379357E+02 0.16480513157E+02 0.21589214208E+02
 0.29797729635E+02 0.42272664739E+02 0.59955121258E+02 0.83228874334E+02 0.11129608364E+03
 0.14186067364E+03 0.17146125243E+03 0.19620779655E+03 0.21263264427E+03 0.13894211552E+03
 0.13521838187E+03 0.12465368825E+03 0.10893092392E+03 0.90420924791E+02 0.71622539898E+02
 0.54586032668E+02 0.40516027119E+02 0.29797729635E+02 0.22219155156E+02 0.17181709210E+02
 0.13985970658E+02 0.12019810962E+02 0.10830282670E+02 0.10117648351E+02 0.96969630999E+01
 0.94566861912E+01 0.93276162815E+01 0.92649087148E+01 0.92395108160E+01 0.92336056218E+01
 0.92372478113E+01 0.92460117321E+01 0.92592025308E+01 0.92773896109E+01 0.92994978881E+01
 0.93215036458E+01 0.93378020614E+01 0.93438069381E+01 0.93378020614E+01 0.93215036458E+01
 0.92994978881E+01 0.92773896109E+01 0.92592025308E+01 0.92460117321E+01 0.92372478113E+01
 0.92336056218E+01 0.92395108160E+01 0.92649087148E+01 0.93276162815E+01 0.94566861912E+01
 0.96969630999E+01 0.10117648351E+02 0.10830282670E+02 0.12019810962E+02 0.13985970658E+02
 0.17181709210E+02 0.22219155156E+02 0.29797729635E+02 0.40516027119E+02 0.54586032668E+02
 0.71622539898E+02 0.90420924791E+02 0.10893092392E+03 0.12465368825E+03 0.13521838187E+03
 0.84297110401E+02 0.82124365270E+02 0.75984076400E+02 0.66906976750E+02 0.56297474675E+02
 0.45565110433E+02 0.35820560769E+02 0.27754578952E+02 0.21589214208E+02 0.17181709210E+02
 0.14194686908E+02 0.12248279377E+02 0.11013221644E+02 0.10244362768E+02 0.97757832500E+01
 0.95004858538E+01 0.93497454084E+01 0.92784423589E+01 0.92566264359E+01 0.92649087148E+01
 0.92914762865E+01 0.93297832612E+01 0.93766069202E+01 0.94301048951E+01 0.94877547449E+01
 0.95447983529E+01 0.95941305121E+01 0.96278841432E+01 0.96399087582E+01 0.96278841432E+01
 0.95941305121E+01 0.95447983529E+01 0.94877547449E+01 0.94301048951E+01 0.93766069202E+01
 0.93297832612E+01 0.92914762865E+01 0.92649087148E+01 0.92566264359E+01 0.92784423589E+01
 0.93497454084E+01 0.95004858538E+01 0.97757832500E+01 0.10244362768E+02 0.11013221644E+02
 0.12248279377E+02 0.14194686908E+02 0.17181709210E+02 0.21589214208E+02 0.27754578952E+02
 0.35820560769E+02 0.45565110433E+02 0.56297474675E+02 0.66906976750E+02 0.75984076400E+02
 0.82124365270E+02 0.50551351842E+02 0.49379886393E+02 0.46068347620E+02 0.41167503151E+02
 0.35427324402E+02 0.29607299202E+02 0.24311530619E+02 0.19898664203E+02 0.16480513157E+02
 0.13985970658E+02 0.12248279377E+02 0.11079379778E+02 0.10314395522E+02 0.98275711562E+01
 0.95301941767E+01 0.93616169162E+01 0.92805237880E+01 0.92589300243E+01 0.92784423589E+01
 0.93276162815E+01 0.93997485396E+01 0.94908492137E+01 0.95976096426E+01 0.97154066534E+01
 0.98368153229E+01 0.99512631648E+01 0.10046140354E+02 0.10109158901E+02 0.10131277216E+02
 0.10109158901E+02 0.10046140354E+02 0.99512631648E+01 0.98368153229E+01 0.97154066534E+01
 0.95976096426E+01 0.94908492137E+01 0.93997485396E+01 0.93276162815E+01 0.92784423589E+01
 0.92589300243E+01 0.92805237880E+01 0.93616169162E+01 0.95301941767E+01 0.98275711562E+01
 0.10314395522E+02 0.11079379778E+02 0.12248279377E+02 0.13985970658E+02 0.16480513157E+02
 0.19898664203E+02 0.24311530619E+02 0.29607299202E+02 0.35427324402E+02 0.41167503151E+02
 0.46068347620E+02 0.49379886393E+02 0.31225148943E+02 0.30623735980E+02 0.28922724261E+02
 0.26401929406E+02 0.23439875950E+02 0.20417588271E+02 0.17637972658E+02 0.15283951764E+02
 0.13419379357E+02 0.12019810962E+02 0.11013221644E+02 0.10314395522E+02 0.98457127878E+01
 0.95451996302E+01 0.93667043811E+01 0.92770955588E+01 0.92533762654E+01 0.92805237880E+01
 0.93497454084E+01 0.94566861912E+01 0.95993514659E+01 0.97757066472E+01 0.99811313993E+01
 0.10206237202E+02 0.10435809857E+02 0.10649522119E+02 0.10824570265E+02 0.10939756991E+02
 0.10979979724E+02 0.10939756991E+02 0.10824570265E+02 0.10649522119E+02 0.10435809857E+02
 0.10206237202E+02 0.99811313993E+01 0.97757066472E+01 0.95993514659E+01 0.94566861912E+01
 0.93497454084E+01 0.92805237880E+01 0.92533762654E+01 0.92770955588E+01 0.93667043811E+01
 0.95451996302E+01 0.98457127878E+01 0.10314395522E+02 0.11013221644E+02 0.12019810962E+02
 0.13419379357E+02 0.15283951764E+02 0.17637972658E+02 0.20417588271E+02 0.23439875950E+02
 0.26401929406E+02 0.28922724261E+02 0.30623735980E+02 0.20781077367E+02 0.20483294844E+02
 0.19638761493E+02 0.18379985271E+02 0.16886974699E+02 0.15342768099E+02 0.13896204617E+02
 0.12642149364E+02 0.11620780955E+02 0.10830282670E+02 0.10244362768E+02 0.98275711562E+01
 0.95451996302E+01 0.93680051139E+01 0.92736190842E+01 0.92464480802E+01 0.92770955588E+01
 0.93616169162E+01 0.95004858538E+01 0.96969630999E+01 0.99546010036E+01 0.10273890192E+02
 0.10648488871E+02 0.11061950012E+02 0.11486211701E+02 0.11883084969E+02 0.12209304898E+02
 0.12424445384E+02 0.12499650709E+02 0.12424445384E+02 0.12209304898E+02 0.11883084969E+02
 0.11486211701E+02 0.11061950012E+02 0.10648488871E+02 0.10273890192E+02 0.99546010036E+01
 0.96969630999E+01 0.95004858538E+01 0.93616169162E+01 0.92770955588E+01 0.92464480802E+01
 0.92736190842E+01 0.93680051139E+01 0.95451996302E+01 0.98275711562E+01 0.10244362768E+02
 0.10830282670E+02 0.11620780955E+02 0.12642149364E+02 0.13896204617E+02 0.15342768099E+02
 0.16886974699E+02 0.18379985271E+02 0.19638761493E+02 0.20483294844E+02 0.15335168072E+02
 0.15187911099E+02 0.14768434608E+02 0.14137647688E+02 0.13379447646E+02 0.12581213231E+02
 0.11816946567E+02 0.11137539652E+02 0.10569150578E+02 0.10117648351E+02 0.97757832500E+01
 0.95301941767E+01 0.93667043811E+01 0.92736190842E+01 0.92434444305E+01 0.92736190842E+01
 0.93667043811E+01 0.95301941767E+01 0.97757832500E+01 0.10117648351E+02 0.10569150578E+02
 0.11137539652E+02 0.11816946567E+02 0.12581213231E+02 0.13379447646E+02 0.14137647688E+02
 0.14768434608E+02 0.15187911099E+02 0.15335168072E+02 0.15187911099E+02 0.14768434608E+02
 0.14137647688E+02 0.13379447646E+02 0.12581213231E+02 0.11816946567E+02 0.11137539652E+02
 0.10569150578E+02 0.10117648351E+02 0.97757832500E+01 0.95301941767E+01 0.93667043811E+01
 0.92736190842E+01 0.92434444305E+01 0.92736190842E+01 0.93667043811E+01 0.95301941767E+01
 0.97757832500E+01 0.10117648351E+02 0.10569150578E+02 0.11137539652E+02 0.11816946567E+02
 0.12581213231E+02 0.13379447646E+02 0.14137647688E+02 0.14768434608E+02 0.15187911099E+02
 0.12499650709E+02 0.12424445384E+02 0.12209304898E+02 0.11883084969E+02 0.11486211701E+02
 0.11061950012E+02 0.10648488871E+02 0.10273890192E+02 0.99546010036E+01 0.96969630999E+01
 0.95004858538E+01 0.93616169162E+01 0.92770955588E+01 0.92464480802E+01 0.92736190842E+01
 0.93680051139E+01 0.95451996302E+01 0.98275711562E+01 0.10244362768E+02 0.10830282670E+02
 0.11620780955E+02 0.12642149364E+02 0.13896204617E+02 0.15342768099E+02 0.16886974699E+02
 0.18379985271E+02 0.19638761493E+02 0.20483294844E+02 0.20781077367E+02 0.20483294844E+02
 0.19638761493E+02 0.18379985271E+02 0.16886974699E+02 0.15342768099E+02 0.13896204617E+02
 0.12642149364E+02 0.11620780955E+02 0.10830282670E+02 0.10244362768E+02 0.98275711562E+01
 0.95451996302E+01 0.93680051139E+01 0.92736190842E+01 0.92464480802E+01 0.92770955588E+01
 0.93616169162E+01 0.95004858538E+01 0.96969630999E+01 0.99546010036E+01 0.10273890192E+02
 0.10648488871E+02 0.11061950012E+02 0.11486211701E+02 0.11883084969E+02 0.12209304898E+02
 0.12424445384E+02 0.10979979724E+02 0.10939756991E+02 0.10824570265E+02 0.10649522119E+02
 0.10435809857E+02 0.10206237202E+02 0.99811313993E+01 0.97757066472E+01 0.95993514659E+01
 0.94566861912E+01 0.93497454084E+01 0.92805237880E+01 0.92533762654E+01 0.92770955588E+01
 0.93667043811E+01 0.95451996302E+01 0.98457127878E+01 0.10314395522E+02 0.11013221644E+02
 0.12019810962E+02 0.13419379357E+02 0.15283951764E+02 0.17637972658E+02 0.20417588271E+02
 0.23439875950E+02 0.26401929406E+02 0.28922724261E+02 0.30623735980E+02 0.31225148943E+02
 0.30623735980E+02 0.28922724261E+02 0.26401929406E+02 0.23439875950E+02 0.20417588271E+02
 0.17637972658E+02 0.15283951764E+02 0.13419379357E+02 0.12019810962E+02 0.11013221644E+02
 0.10314395522E+02 0.98457127878E+01 0.95451996302E+01 0.93667043811E+01 0.92770955588E+01
 0.92533762654E+01 0.92805237880E+01 0.93497454084E+01 0.94566861912E+01 0.95993514659E+01
 0.97757066472E+01 0.99811313993E+01 0.10206237202E+02 0.10435809857E+02 0.10649522119E+02
 0.10824570265E+02 0.10939756991E+02 0.10131277216E+02 0.10109158901E+02 0.10046140354E+02
 0.99512631648E+01 0.98368153229E+01 0.97154066534E+01 0.95976096426E+01 0.94908492137E+01
 0.93997485396E+01 0.93276162815E+01 0.92784423589E+01 0.92589300243E+01 0.92805237880E+01
 0.93616169162E+01 0.95301941767E+01 0.98275711562E+01 0.10314395522E+02 0.11079379778E+02
 0.12248279377E+02 0.13985970658E+02 0.16480513157E+02 0.19898664203E+02 0.24311530619E+02
 0.29607299202E+02 0.35427324402E+02 0.41167503151E+02 0.46068347620E+02 0.49379886393E+02
 0.50551351842E+02 0.49379886393E+02 0.46068347620E+02 0.41167503151E+02 0.35427324402E+02
 0.29607299202E+02 0.24311530619E+02 0.19898664203E+02 0.16480513157E+02 0.13985970658E+02
 0.12248279377E+02 0.11079379778E+02 0.10314395522E+02 0.98275711562E+01 0.95301941767E+01
 0.93616169162E+01 0.92805237880E+01 0.92589300243E+01 0.92784423589E+01 0.93276162815E+01
 0.93997485396E+01 0.94908492137E+01 0.95976096426E+01 0.97154066534E+01 0.98368153229E+01
 0.99512631648E+01 0.10046140354E+02 0.10109158901E+02 0.96399087582E+01 0.96278841432E+01
 0.95941305121E+01 0.95447983529E+01 0.94877547449E+01 0.94301048951E+01 0.93766069202E+01
 0.93297832612E+01 0.92914762865E+01 0.92649087148E+01 0.92566264359E+01 0.92784423589E+01
 0.93497454084E+01 0.95004858538E+01 0.97757832500E+01 0.10244362768E+02 0.11013221644E+02
 0.12248279377E+02 0.14194686908E+02 0.17181709210E+02 0.21589214208E+02 0.27754578952E+02
 0.35820560769E+02 0.45565110433E+02 0.56297474675E+02 0.66906976750E+02 0.75984076400E+02
 0.82124365270E+02 0.84297110401E+02 0.82124365270E+02 0.75984076400E+02 0.66906976750E+02
 0.56297474675E+02 0.45565110433E+02 0.35820560769E+02 0.27754578952E+02 0.21589214208E+02
 0.17181709210E+02 0.14194686908E+02 0.12248279377E+02 0.11013221644E+02 0.10244362768E+02
 0.97757832500E+01 0.95004858538E+01 0.93497454084E+01 0.92784423589E+01 0.92566264359E+01
 0.92649087148E+01 0.92914762865E+01 0.93297832612E+01 0.93766069202E+01 0.94301048951E+01
 0.94877547449E+01 0.95447983529E+01 0.95941305121E+01 0.96278841432E+01 0.93438069381E+01
 0.93378020614E+01 0.93215036458E+01 0.92994978881E+01 0.92773896109E+01 0.92592025308E+01
 0.92460117321E+01 0.92372478113E+01 0.92336056218E+01 0.92395108160E+01 0.92649087148E+01
 0.93276162815E+01 0.94566861912E+01 0.96969630999E+01 0.10117648351E+02 0.10830282670E+02
 0.12019810962E+02 0.13985970658E+02 0.17181709210E+02 0.22219155156E+02 0.29797729635E+02
 0.40516027119E+02 0.54586032668E+02 0.71622539898E+02 0.90420924791E+02 0.10893092392E+03
 0.12465368825E+03 0.13521838187E+03 0.13894211552E+03 0.13521838187E+03 0.12465368825E+03
 0.10893092392E+03 0.90420924791E+02 0.71622539898E+02 0.54586032668E+02 0.40516027119E+02
 0.29797729635E+02 0.22219155156E+02 0.17181709210E+02 0.13985970658E+02 0.12019810962E+02
 0.10830282670E+02 0.10117648351E+02 0.96969630999E+01 0.94566861912E+01 0.93276162815E+01
 0.92649087148E+01 0.92395108160E+01 0.92336056218E+01 0.92372478113E+01 0.92460117321E+01
 0.92592025308E+01 0.92773896109E+01 0.92994978881E+01 0.93215036458E+01 0.93378020614E+01
 0.91533140532E+01 0.91512957483E+01 0.91464043954E+01 0.91420541623E+01 0.91425548090E+01
 0.91501239133E+01 0.91634163608E+01 0.91801103652E+01 0.92012194573E+01 0.92336056218E+01
 0.92914762865E+01 0.93997485396E+01 0.95993514659E+01 0.99546010036E+01 0.10569150578E+02
 0.11620780955E+02 0.13419379357E+02 0.16480513157E+02 0.21589214208E+02 0.29797729635E+02
 0.42272664739E+02 0.59955121258E+02 0.83228874334E+02 0.11129608364E+03 0.14186067364E+03
 0.17146125243E+03 0.19620779655E+03 0.21263264427E+03 0.21838337706E+03 0.21263264427E+03
 0.19620779655E+03 0.17146125243E+03 0.14186067364E+03 0.11129608364E+03 0.83228874334E+02
 0.59955121258E+02 0.42272664739E+02 0.29797729635E+02 0.21589214208E+02 0.16480513157E+02
 0.13419379357E+02 0.11620780955E+02 0.10569150578E+02 0.99546010036E+01 0.95993514659E+01
 0.93997485396E+01 0.92914762865E+01 0.92336056218E+01 0.92012194573E+01 0.91801103652E+01
 0.91634163608E+01 0.91501239133E+01 0.91425548090E+01 0.91420541623E+01 0.91464043954E+01
 0.91512957483E+01 0.90193141617E+01 0.90202175349E+01 0.90234862702E+01 0.90314143923E+01
 0.90474321726E+01 0.90726614879E+01 0.91042288445E+01 0.91391900712E+01 0.91801103652E+01
 0.92372478113E+01 0.93297832612E+01 0.94908492137E+01 0.97757066472E+01 0.10273890192E+02
 0.11137539652E+02 0.12642149364E+02 0.15283951764E+02 0.19898664203E+02 0.27754578952E+02
 0.40516027119E+02 0.59955121258E+02 0.87570926195E+02 0.12363262135E+03 0.16630415906E+03
 0.21167153216E+03 0.25453167814E+03 0.28957445767E+03 0.31244530931E+03 0.32038070509E+03
 0.31244530931E+03 0.28957445767E+03 0.25453167814E+03 0.21167153216E+03 0.16630415906E+03
 0.12363262135E+03 0.87570926195E+02 0.59955121258E+02 0.40516027119E+02 0.27754578952E+02
 0.19898664203E+02 0.15283951764E+02 0.12642149364E+02 0.11137539652E+02 0.10273890192E+02
 0.97757066472E+01 0.94908492137E+01 0.93297832612E+01 0.92372478113E+01 0.91801103652E+01
 0.91391900712E+01 0.91042288445E+01 0.90726614879E+01 0.90474321726E+01 0.90314143923E+01
 0.90234862702E+01 0.90202175349E+01 0.89153489172E+01 0.89183838336E+01 0.89275179874E+01
 0.89441487946E+01 0.89711845275E+01 0.90091634308E+01 0.90544130221E+01 0.91042288445E+01
 0.91634163608E+01 0.92460117321E+01 0.93766069202E+01 0.95976096426E+01 0.99811313993E+01
 0.10648488871E+02 0.11816946567E+02 0.13896204617E+02 0.17637972658E+02 0.24311530619E+02
 0.35820560769E+02 0.54586032668E+02 0.83228874334E+02 0.12363262135E+03 0.17532741380E+03
 0.23482608347E+03 0.29614749830E+03 0.35229823308E+03 0.39693696618E+03 0.42545354009E+03
 0.43523323359E+03 0.42545354009E+03 0.39693696618E+03 0.35229823308E+03 0.29614749830E+03
 0.23482608347E+03 0.17532741380E+03 0.12363262135E+03 0.83228874334E+02 0.54586032668E+02
 0.35820560769E+02 0.24311530619E+02 0.17637972658E+02 0.13896204617E+02 0.11816946567E+02
 0.10648488871E+02 0.99811313993E+01 0.95976096426E+01 0.93766069202E+01 0.92460117321E+01
 0.91634163608E+01 0.91042288445E+01 0.90544130221E+01 0.90091634308E+01 0.89711845275E+01
 0.89441487946E+01 0.89275179874E+01 0.89183838336E+01 0.88281047762E+01 0.88326461307E+01
 0.88459905867E+01 0.88690427029E+01 0.89044547639E+01 0.89524645121E+01 0.90091634308E+01
 0.90726614879E+01 0.91501239133E+01 0.92592025308E+01 0.94301048951E+01 0.97154066534E+01
 0.10206237202E+02 0.11061950012E+02 0.12581213231E+02 0.15342768099E+02 0.20417588271E+02
 0.29607299202E+02 0.45565110433E+02 0.71622539898E+02 0.11129608364E+03 0.16630415906E+03
 0.23482608347E+03 0.31115607227E+03 0.38703398829E+03 0.45400078079E+03 0.50546010568E+03
 0.53747061386E+03 0.54828766874E+03 0.53747061386E+03 0.50546010568E+03 0.45400078079E+03
 0.38703398829E+03 0.31115607227E+03 0.23482608347E+03 0.16630415906E+03 0.11129608364E+03
 0.71622539898E+02 0.45565110433E+02 0.29607299202E+02 0.20417588271E+02 0.15342768099E+02
 0.12581213231E+02 0.11061950012E+02 0.10206237202E+02 0.97154066534E+01 0.94301048951E+01
 0.92592025308E+01 0.91501239133E+01 0.90726614879E+01 0.90091634308E+01 0.89524645121E+01
 0.89044547639E+01 0.88690427029E+01 0.88459905867E+01 0.88326461307E+01 0.87542983129E+01
 0.87600089608E+01 0.87767785078E+01 0.88053047420E+01 0.88479074205E+01 0.89044547639E+01
 0.89711845275E+01 0.90474321726E+01 0.91425548090E+01 0.92773896109E+01 0.94877547449E+01
 0.98368153229E+01 0.10435809857E+02 0.11486211701E+02 0.13379447646E+02 0.16886974699E+02
 0.23439875950E+02 0.35427324402E+02 0.56297474675E+02 0.90420924791E+02 0.14186067364E+03
 0.21167153216E+03 0.29614749830E+03 0.38703398829E+03 0.47391476397E+03 0.54748700361E+03
 0.60181932566E+03 0.63453917728E+03 0.64539309448E+03 0.63453917728E+03 0.60181932566E+03
 0.54748700361E+03 0.47391476397E+03 0.38703398829E+03 0.29614749830E+03 0.21167153216E+03
 0.14186067364E+03 0.90420924791E+02 0.56297474675E+02 0.35427324402E+02 0.23439875950E+02
 0.16886974699E+02 0.13379447646E+02 0.11486211701E+02 0.10435809857E+02 0.98368153229E+01
 0.94877547449E+01 0.92773896109E+01 0.91425548090E+01 0.90474321726E+01 0.89711845275E+01
 0.89044547639E+01 0.88479074205E+01 0.88053047420E+01 0.87767785078E+01 0.87600089608E+01
 0.86963415183E+01 0.87030250718E+01 0.87228048992E+01 0.87563184570E+01 0.88053047420E+01
 0.88690427029E+01 0.89441487946E+01 0.90314143923E+01 0.91420541623E+01 0.92994978881E+01
 0.95447983529E+01 0.99512631648E+01 0.10649522119E+02 0.11883084969E+02 0.14137647688E+02
 0.18379985271E+02 0.26401929406E+02 0.41167503151E+02 0.66906976750E+02 0.10893092392E+03
 0.17146125243E+03 0.25453167814E+03 0.35229823308E+03 0.45400078079E+03 0.54748700361E+03
 0.62329626135E+03 0.67687346479E+03 0.70794222766E+03 0.71801948082E+03 0.70794222766E+03
 0.67687346479E+03 0.62329626135E+03 0.54748700361E+03 0.45400078079E+03 0.35229823308E+03
 0.25453167814E+03 0.17146125243E+03 0.10893092392E+03 0.66906976750E+02 0.41167503151E+02
 0.26401929406E+02 0.18379985271E+02 0.14137647688E+02 0.11883084969E+02 0.10649522119E+02
 0.99512631648E+01 0.95447983529E+01 0.92994978881E+01 0.91420541623E+01 0.90314143923E+01
 0.89441487946E+01 0.88690427029E+01 0.88053047420E+01 0.87563184570E+01 0.87228048992E+01
 0.87030250718E+01 0.86560808986E+01 0.86634210369E+01 0.86854049122E+01 0.87228048992E+01
 0.87767785078E+01 0.88459905867E+01 0.89275179874E+01 0.90234862702E+01 0.91464043954E+01
 0.93215036458E+01 0.95941305121E+01 0.10046140354E+02 0.10824570265E+02 0.12209304898E+02
 0.14768434608E+02 0.19638761493E+02 0.28922724261E+02 0.46068347620E+02 0.75984076400E+02
 0.12465368825E+03 0.19620779655E+03 0.28957445767E+03 0.39693696618E+03 0.50546010568E+03
 0.60181932566E+03 0.67687346479E+03 0.72766516363E+03 0.75597288729E+03 0.76492986558E+03
 0.75597288729E+03 0.72766516363E+03 0.67687346479E+03 0.60181932566E+03 0.50546010568E+03
 0.39693696618E+03 0.28957445767E+03 0.19620779655E+03 0.12465368825E+03 0.75984076400E+02
 0.46068347620E+02 0.28922724261E+02 0.19638761493E+02 0.14768434608E+02 0.12209304898E+02
 0.10824570265E+02 0.10046140354E+02 0.95941305121E+01 0.93215036458E+01 0.91464043954E+01
 0.90234862702E+01 0.89275179874E+01 0.88459905867E+01 0.87767785078E+01 0.87228048992E+01
 0.86854049122E+01 0.86634210369E+01 0.86327364312E+01 0.86403470841E+01 0.86634210369E+01
 0.87030250718E+01 0.87600089608E+01 0.88326461307E+01 0.89183838336E+01 0.90202175349E+01
 0.91512957483E+01 0.93378020614E+01 0.96278841432E+01 0.10109158901E+02 0.10939756991E+02
 0.12424445384E+02 0.15187911099E+02 0.20483294844E+02 0.30623735980E+02 0.49379886393E+02
 0.82124365270E+02 0.13521838187E+03 0.21263264427E+03 0.31244530931E+03 0.42545354009E+03
 0.53747061386E+03 0.63453917728E+03 0.70794222766E+03 0.75597288729E+03 0.78188130280E+03
 0.78990517165E+03 0.78188130280E+03 0.75597288729E+03 0.70794222766E+03 0.63453917728E+03
 0.53747061386E+03 0.42545354009E+03 0.31244530931E+03 0.21263264427E+03 0.13521838187E+03
 0.82124365270E+02 0.49379886393E+02 0.30623735980E+02 0.20483294844E+02 0.15187911099E+02
 0.12424445384E+02 0.10939756991E+02 0.10109158901E+02 0.96278841432E+01 0.93378020614E+01
 0.91512957483E+01 0.90202175349E+01 0.89183838336E+01 0.88326461307E+01 0.87600089608E+01
 0.87030250718E+01 0.86634210369E+01 0.86403470841E+01 0.86250786327E+01 0.86327364312E+01
 0.86560808986E+01 0.86963415183E+01 0.87542983129E+01 0.88281047762E+01 0.89153489172E+01
 0.90193141617E+01 0.91533140532E+01 0.93438069381E+01 0.96399087582E+01 0.10131277216E+02
 0.10979979724E+02 0.12499650709E+02 0.15335168072E+02 0.20781077367E+02 0.31225148943E+02
 0.50551351842E+02 0.84297110401E+02 0.13894211552E+03 0.21838337706E+03 0.32038070509E+03
 0.43523323359E+03 0.54828766874E+03 0.64539309448E+03 0.71801948082E+03 0.76492986558E+03
 0.78990517165E+03 0.79757172183E+03 0.78990517165E+03 0.76492986558E+03 0.71801948082E+03
 0.64539309448E+03 0.54828766874E+03 0.43523323359E+03 0.32038070509E+03 0.21838337706E+03
 0.13894211552E+03 0.84297110401E+02 0.50551351842E+02 0.31225148943E+02 0.20781077367E+02
 0.15335168072E+02 0.12499650709E+02 0.10979979724E+02 0.10131277216E+02 0.96399087582E+01
 0.93438069381E+01 0.91533140532E+01 0.90193141617E+01 0.89153489172E+01 0.88281047762E+01
 0.87542983129E+01 0.86963415183E+01 0.86560808986E+01 0.86327364312E+01 0.86327364312E+01