   4   4   0   0
  0.5453338E+02  0.6019690E-09  0.6019690E-09  0.6019690E-09  0.5000000E-15
  1.000000000000000E-004
  CAR 
 Sr                                      
     12.61116587    -37.25222332  301      1.61816461      1.00000000
    -37.252  0.0000E+00  0.0000E+00
    -37.086  0.0000E+00  0.0000E+00
    -36.920  0.0000E+00  0.0000E+00
    -36.754  0.0000E+00  0.0000E+00
    -36.587  0.0000E+00  0.0000E+00
    -36.421  0.0000E+00  0.0000E+00
    -36.255  0.0000E+00  0.0000E+00
    -36.089  0.0000E+00  0.0000E+00
    -35.923  0.0000E+00  0.0000E+00
    -35.756  0.0000E+00  0.0000E+00
    -35.590  0.0000E+00  0.0000E+00
    -35.424  0.0000E+00  0.0000E+00
    -35.258  0.2436E-13  0.4049E-14
    -35.091  0.1788E-01  0.2972E-02
    -34.925  0.4339E+02  0.7215E+01
    -34.759  0.4721E+01  0.8000E+01
    -34.593  0.5690E-07  0.8000E+01
    -34.427  0.0000E+00  0.8000E+01
    -34.260  0.0000E+00  0.8000E+01
    -34.094  0.0000E+00  0.8000E+01
    -33.928  0.0000E+00  0.8000E+01
    -33.762  0.0000E+00  0.8000E+01
    -33.596  0.0000E+00  0.8000E+01
    -33.429  0.0000E+00  0.8000E+01
    -33.263  0.0000E+00  0.8000E+01
    -33.097  0.0000E+00  0.8000E+01
    -32.931  0.0000E+00  0.8000E+01
    -32.765  0.0000E+00  0.8000E+01
    -32.598  0.0000E+00  0.8000E+01
    -32.432  0.0000E+00  0.8000E+01
    -32.266  0.0000E+00  0.8000E+01
    -32.100  0.0000E+00  0.8000E+01
    -31.933  0.0000E+00  0.8000E+01
    -31.767  0.0000E+00  0.8000E+01
    -31.601  0.0000E+00  0.8000E+01
    -31.435  0.0000E+00  0.8000E+01
    -31.269  0.0000E+00  0.8000E+01
    -31.102  0.0000E+00  0.8000E+01
    -30.936  0.0000E+00  0.8000E+01
    -30.770  0.0000E+00  0.8000E+01
    -30.604  0.0000E+00  0.8000E+01
    -30.438  0.0000E+00  0.8000E+01
    -30.271  0.0000E+00  0.8000E+01
    -30.105  0.0000E+00  0.8000E+01
    -29.939  0.0000E+00  0.8000E+01
    -29.773  0.0000E+00  0.8000E+01
    -29.607  0.0000E+00  0.8000E+01
    -29.440  0.0000E+00  0.8000E+01
    -29.274  0.0000E+00  0.8000E+01
    -29.108  0.0000E+00  0.8000E+01
    -28.942  0.0000E+00  0.8000E+01
    -28.775  0.0000E+00  0.8000E+01
    -28.609  0.0000E+00  0.8000E+01
    -28.443  0.0000E+00  0.8000E+01
    -28.277  0.0000E+00  0.8000E+01
    -28.111  0.0000E+00  0.8000E+01
    -27.944  0.0000E+00  0.8000E+01
    -27.778  0.0000E+00  0.8000E+01
    -27.612  0.0000E+00  0.8000E+01
    -27.446  0.0000E+00  0.8000E+01
    -27.280  0.0000E+00  0.8000E+01
    -27.113  0.0000E+00  0.8000E+01
    -26.947  0.0000E+00  0.8000E+01
    -26.781  0.0000E+00  0.8000E+01
    -26.615  0.0000E+00  0.8000E+01
    -26.448  0.0000E+00  0.8000E+01
    -26.282  0.0000E+00  0.8000E+01
    -26.116  0.0000E+00  0.8000E+01
    -25.950  0.0000E+00  0.8000E+01
    -25.784  0.0000E+00  0.8000E+01
    -25.617  0.0000E+00  0.8000E+01
    -25.451  0.0000E+00  0.8000E+01
    -25.285  0.0000E+00  0.8000E+01
    -25.119  0.0000E+00  0.8000E+01
    -24.953  0.0000E+00  0.8000E+01
    -24.786  0.0000E+00  0.8000E+01
    -24.620  0.0000E+00  0.8000E+01
    -24.454  0.0000E+00  0.8000E+01
    -24.288  0.0000E+00  0.8000E+01
    -24.122  0.0000E+00  0.8000E+01
    -23.955  0.0000E+00  0.8000E+01
    -23.789  0.0000E+00  0.8000E+01
    -23.623  0.0000E+00  0.8000E+01
    -23.457  0.0000E+00  0.8000E+01
    -23.290  0.0000E+00  0.8000E+01
    -23.124  0.0000E+00  0.8000E+01
    -22.958  0.0000E+00  0.8000E+01
    -22.792  0.0000E+00  0.8000E+01
    -22.626  0.0000E+00  0.8000E+01
    -22.459  0.0000E+00  0.8000E+01
    -22.293  0.0000E+00  0.8000E+01
    -22.127  0.0000E+00  0.8000E+01
    -21.961  0.0000E+00  0.8000E+01
    -21.795  0.0000E+00  0.8000E+01
    -21.628  0.0000E+00  0.8000E+01
    -21.462  0.0000E+00  0.8000E+01
    -21.296  0.0000E+00  0.8000E+01
    -21.130  0.0000E+00  0.8000E+01
    -20.964  0.0000E+00  0.8000E+01
    -20.797  0.0000E+00  0.8000E+01
    -20.631  0.0000E+00  0.8000E+01
    -20.465  0.0000E+00  0.8000E+01
    -20.299  0.0000E+00  0.8000E+01
    -20.132  0.0000E+00  0.8000E+01
    -19.966  0.0000E+00  0.8000E+01
    -19.800  0.0000E+00  0.8000E+01
    -19.634  0.0000E+00  0.8000E+01
    -19.468  0.0000E+00  0.8000E+01
    -19.301  0.0000E+00  0.8000E+01
    -19.135  0.0000E+00  0.8000E+01
    -18.969  0.0000E+00  0.8000E+01
    -18.803  0.0000E+00  0.8000E+01
    -18.637  0.0000E+00  0.8000E+01
    -18.470  0.0000E+00  0.8000E+01
    -18.304  0.0000E+00  0.8000E+01
    -18.138  0.0000E+00  0.8000E+01
    -17.972  0.0000E+00  0.8000E+01
    -17.806  0.0000E+00  0.8000E+01
    -17.639  0.0000E+00  0.8000E+01
    -17.473  0.0000E+00  0.8000E+01
    -17.307  0.1017E-10  0.8000E+01
    -17.141  0.9371E-01  0.8016E+01
    -16.974  0.5377E+02  0.1695E+02
    -16.808  0.9021E+02  0.3195E+02
    -16.642  0.3162E+00  0.3200E+02
    -16.476  0.2931E-10  0.3200E+02
    -16.310  0.0000E+00  0.3200E+02
    -16.143  0.0000E+00  0.3200E+02
    -15.977  0.0000E+00  0.3200E+02
    -15.811  0.0000E+00  0.3200E+02
    -15.645  0.0000E+00  0.3200E+02
    -15.479  0.0000E+00  0.3200E+02
    -15.312  0.0000E+00  0.3200E+02
    -15.146  0.0000E+00  0.3200E+02
    -14.980  0.0000E+00  0.3200E+02
    -14.814  0.0000E+00  0.3200E+02
    -14.647  0.0000E+00  0.3200E+02
    -14.481  0.0000E+00  0.3200E+02
    -14.315  0.0000E+00  0.3200E+02
    -14.149  0.0000E+00  0.3200E+02
    -13.983  0.0000E+00  0.3200E+02
    -13.816  0.0000E+00  0.3200E+02
    -13.650  0.0000E+00  0.3200E+02
    -13.484  0.0000E+00  0.3200E+02
    -13.318  0.0000E+00  0.3200E+02
    -13.152  0.0000E+00  0.3200E+02
    -12.985  0.0000E+00  0.3200E+02
    -12.819  0.0000E+00  0.3200E+02
    -12.653  0.0000E+00  0.3200E+02
    -12.487  0.0000E+00  0.3200E+02
    -12.321  0.0000E+00  0.3200E+02
    -12.154  0.0000E+00  0.3200E+02
    -11.988  0.0000E+00  0.3200E+02
    -11.822  0.0000E+00  0.3200E+02
    -11.656  0.0000E+00  0.3200E+02
    -11.489  0.0000E+00  0.3200E+02
    -11.323  0.0000E+00  0.3200E+02
    -11.157  0.0000E+00  0.3200E+02
    -10.991  0.0000E+00  0.3200E+02
    -10.825  0.0000E+00  0.3200E+02
    -10.658  0.0000E+00  0.3200E+02
    -10.492  0.0000E+00  0.3200E+02
    -10.326  0.0000E+00  0.3200E+02
    -10.160  0.0000E+00  0.3200E+02
     -9.994  0.0000E+00  0.3200E+02
     -9.827  0.0000E+00  0.3200E+02
     -9.661  0.0000E+00  0.3200E+02
     -9.495  0.0000E+00  0.3200E+02
     -9.329  0.0000E+00  0.3200E+02
     -9.163  0.0000E+00  0.3200E+02
     -8.996  0.0000E+00  0.3200E+02
     -8.830  0.0000E+00  0.3200E+02
     -8.664  0.0000E+00  0.3200E+02
     -8.498  0.0000E+00  0.3200E+02
     -8.331  0.0000E+00  0.3200E+02
     -8.165  0.0000E+00  0.3200E+02
     -7.999  0.0000E+00  0.3200E+02
     -7.833  0.0000E+00  0.3200E+02
     -7.667  0.0000E+00  0.3200E+02
     -7.500  0.0000E+00  0.3200E+02
     -7.334  0.0000E+00  0.3200E+02
     -7.168  0.0000E+00  0.3200E+02
     -7.002  0.0000E+00  0.3200E+02
     -6.836  0.0000E+00  0.3200E+02
     -6.669  0.0000E+00  0.3200E+02
     -6.503  0.0000E+00  0.3200E+02
     -6.337  0.0000E+00  0.3200E+02
     -6.171  0.0000E+00  0.3200E+02
     -6.004  0.0000E+00  0.3200E+02
     -5.838  0.0000E+00  0.3200E+02
     -5.672  0.0000E+00  0.3200E+02
     -5.506  0.0000E+00  0.3200E+02
     -5.340  0.0000E+00  0.3200E+02
     -5.173  0.0000E+00  0.3200E+02
     -5.007  0.0000E+00  0.3200E+02
     -4.841  0.0000E+00  0.3200E+02
     -4.675  0.0000E+00  0.3200E+02
     -4.509  0.0000E+00  0.3200E+02
     -4.342  0.0000E+00  0.3200E+02
     -4.176  0.0000E+00  0.3200E+02
     -4.010  0.0000E+00  0.3200E+02
     -3.844  0.0000E+00  0.3200E+02
     -3.678  0.0000E+00  0.3200E+02
     -3.511  0.0000E+00  0.3200E+02
     -3.345  0.0000E+00  0.3200E+02
     -3.179  0.0000E+00  0.3200E+02
     -3.013  0.0000E+00  0.3200E+02
     -2.846  0.0000E+00  0.3200E+02
     -2.680  0.0000E+00  0.3200E+02
     -2.514  0.0000E+00  0.3200E+02
     -2.348  0.0000E+00  0.3200E+02
     -2.182  0.1563E-05  0.3200E+02
     -2.015  0.2815E-01  0.3200E+02
     -1.849  0.3717E+00  0.3207E+02
     -1.683  0.3878E+00  0.3213E+02
     -1.517  0.1027E+01  0.3230E+02
     -1.351  0.4651E+00  0.3238E+02
     -1.184  0.1292E+01  0.3259E+02
     -1.018  0.9005E+00  0.3274E+02
     -0.852  0.1430E+01  0.3298E+02
     -0.686  0.1309E+01  0.3320E+02
     -0.520  0.1632E+01  0.3347E+02
     -0.353  0.1981E+01  0.3380E+02
     -0.187  0.1027E+01  0.3397E+02
     -0.021  0.2928E+01  0.3446E+02
      0.145  0.2361E+01  0.3485E+02
      0.312  0.2050E+01  0.3519E+02
      0.478  0.3819E+01  0.3582E+02
      0.644  0.2605E+01  0.3626E+02
      0.810  0.4493E+01  0.3700E+02
      0.976  0.3234E+01  0.3754E+02
      1.143  0.4065E+01  0.3822E+02
      1.309  0.3853E+01  0.3886E+02
      1.475  0.2743E+01  0.3931E+02
      1.641  0.5166E+01  0.4017E+02
      1.807  0.5771E+01  0.4113E+02
      1.974  0.7838E+01  0.4243E+02
      2.140  0.9506E+01  0.4401E+02
      2.306  0.8109E+01  0.4536E+02
      2.472  0.9522E+01  0.4694E+02
      2.638  0.1001E+02  0.4861E+02
      2.805  0.8474E+01  0.5002E+02
      2.971  0.6602E+01  0.5111E+02
      3.137  0.5473E+01  0.5202E+02
      3.303  0.5308E+01  0.5291E+02
      3.470  0.3407E+01  0.5347E+02
      3.636  0.4736E+01  0.5426E+02
      3.802  0.3324E+01  0.5481E+02
      3.968  0.4752E+01  0.5560E+02
      4.134  0.9572E+01  0.5719E+02
      4.301  0.9155E+01  0.5871E+02
      4.467  0.1188E+02  0.6069E+02
      4.633  0.9355E+01  0.6224E+02
      4.799  0.4330E+01  0.6296E+02
      4.965  0.5933E+01  0.6395E+02
      5.132  0.6877E+01  0.6509E+02
      5.298  0.3717E+01  0.6571E+02
      5.464  0.4548E+01  0.6647E+02
      5.630  0.6825E+01  0.6760E+02
      5.797  0.9554E+01  0.6919E+02
      5.963  0.9564E+01  0.7078E+02
      6.129  0.1014E+02  0.7246E+02
      6.295  0.7895E+01  0.7378E+02
      6.461  0.8729E+01  0.7523E+02
      6.628  0.1278E+02  0.7735E+02
      6.794  0.1166E+02  0.7929E+02
      6.960  0.4773E+01  0.8008E+02
      7.126  0.9425E+01  0.8165E+02
      7.292  0.7075E+01  0.8282E+02
      7.459  0.5727E+01  0.8378E+02
      7.625  0.5691E+01  0.8472E+02
      7.791  0.4911E+01  0.8554E+02
      7.957  0.4587E+01  0.8630E+02
      8.123  0.3159E+01  0.8683E+02
      8.290  0.2711E+01  0.8728E+02
      8.456  0.5403E+01  0.8817E+02
      8.622  0.3286E+01  0.8872E+02
      8.788  0.3714E+01  0.8934E+02
      8.955  0.6982E+01  0.9050E+02
      9.121  0.3608E+01  0.9110E+02
      9.287  0.5620E+01  0.9203E+02
      9.453  0.4892E+01  0.9285E+02
      9.619  0.9724E+01  0.9446E+02
      9.786  0.3667E+01  0.9507E+02
      9.952  0.3414E+01  0.9564E+02
     10.118  0.1715E+01  0.9592E+02
     10.284  0.1586E+00  0.9595E+02
     10.450  0.2978E+00  0.9600E+02
     10.617  0.3913E-03  0.9600E+02
     10.783  0.0000E+00  0.9600E+02
     10.949  0.0000E+00  0.9600E+02
     11.115  0.0000E+00  0.9600E+02
     11.281  0.0000E+00  0.9600E+02
     11.448  0.0000E+00  0.9600E+02
     11.614  0.0000E+00  0.9600E+02
     11.780  0.0000E+00  0.9600E+02
     11.946  0.0000E+00  0.9600E+02
     12.113  0.0000E+00  0.9600E+02
     12.279  0.0000E+00  0.9600E+02
     12.445  0.0000E+00  0.9600E+02
     12.611  0.0000E+00  0.9600E+02
