    4    4    1    1
  0.5453338E+02  0.6019690E-09  0.6019690E-09  0.6019690E-09  0.5000000E-15
  1.000000000000000E-004
  CAR 
 Sr                                      
     40     35     48
 
  0.0000000E+00  0.0000000E+00  0.0000000E+00  0.1953125E-02
      1        -34.985706   1.000000
      2        -34.966487   1.000000
      3        -34.966487   1.000000
      4        -34.966487   1.000000
      5        -17.060794   1.000000
      6        -17.060794   1.000000
      7        -17.060794   1.000000
      8        -16.944473   1.000000
      9        -16.944473   1.000000
     10        -16.944473   1.000000
     11        -16.944473   1.000000
     12        -16.944473   1.000000
     13        -16.944473   1.000000
     14        -16.870898   1.000000
     15        -16.870898   1.000000
     16        -16.870898   1.000000
     17         -2.046554   1.000000
     18          0.962080   1.000000
     19          0.962080   1.000000
     20          0.962080   1.000000
     21          1.951879   0.000000
     22          1.951879   0.000000
     23          1.951879   0.000000
     24          2.685823   0.000000
     25          2.685823   0.000000
     26          2.685823   0.000000
     27          3.967392   0.000000
     28          3.967392   0.000000
     29          3.967392   0.000000
     30          5.447611   0.000000
     31          5.447611   0.000000
     32          6.506148   0.000000
     33          6.506148   0.000000
     34          6.506148   0.000000
     35          6.805417   0.000000
     36          6.805417   0.000000
     37          6.805417   0.000000
     38          6.805417   0.000000
     39          6.805417   0.000000
     40          6.805417   0.000000
     41          6.965676   0.000000
     42          6.965676   0.000000
     43          6.965676   0.000000
     44          6.965676   0.000000
     45          6.965676   0.000000
     46          6.965676   0.000000
     47          7.519510   0.000000
     48          7.519510   0.000000
 
  0.1250000E+00 -0.8154594E-32  0.0000000E+00  0.1171875E-01
      1        -34.984977   1.000000
      2        -34.967220   1.000000
      3        -34.966488   1.000000
      4        -34.966488   1.000000
      5        -17.056422   1.000000
      6        -17.056422   1.000000
      7        -17.054028   1.000000
      8        -16.948985   1.000000
      9        -16.948985   1.000000
     10        -16.944832   1.000000
     11        -16.944832   1.000000
     12        -16.941696   1.000000
     13        -16.941696   1.000000
     14        -16.878760   1.000000
     15        -16.873819   1.000000
     16        -16.873819   1.000000
     17         -1.961742   1.000000
     18          0.805835   1.000000
     19          1.038081   1.000000
     20          1.038081   1.000000
     21          1.971028   0.000000
     22          1.971028   0.000000
     23          2.003091   0.000000
     24          2.645665   0.000000
     25          2.645665   0.000000
     26          2.719301   0.000000
     27          3.837079   0.000000
     28          4.008372   0.000000
     29          4.008372   0.000000
     30          5.294482   0.000000
     31          5.480865   0.000000
     32          5.831522   0.000000
     33          5.831522   0.000000
     34          6.172908   0.000000
     35          6.172908   0.000000
     36          6.456355   0.000000
     37          6.806197   0.000000
     38          6.806197   0.000000
     39          6.853565   0.000000
     40          6.853565   0.000000
     41          6.979448   0.000000
     42          6.979448   0.000000
     43          6.998972   0.000000
     44          6.998972   0.000000
     45          7.686910   0.000000
     46          7.686910   0.000000
     47          7.839545   0.000000
     48          8.152827   0.000000
 
  0.2500000E+00 -0.1630919E-31  0.0000000E+00  0.1171875E-01
      1        -34.982897   1.000000
      2        -34.969299   1.000000
      3        -34.966482   1.000000
      4        -34.966482   1.000000
      5        -17.043936   1.000000
      6        -17.043936   1.000000
      7        -17.034594   1.000000
      8        -16.961753   1.000000
      9        -16.961753   1.000000
     10        -16.945528   1.000000
     11        -16.945528   1.000000
     12        -16.933763   1.000000
     13        -16.933763   1.000000
     14        -16.900531   1.000000
     15        -16.881849   1.000000
     16        -16.881849   1.000000
     17         -1.712204   1.000000
     18          0.374979   1.000000
     19          1.249325   1.000000
     20          1.249325   1.000000
     21          2.028572   0.000000
     22          2.028572   0.000000
     23          2.154932   0.000000
     24          2.538795   0.000000
     25          2.538795   0.000000
     26          2.888184   0.000000
     27          3.513433   0.000000
     28          4.133064   0.000000
     29          4.133064   0.000000
     30          4.879304   0.000000
     31          4.916738   0.000000
     32          4.916738   0.000000
     33          5.565040   0.000000
     34          5.565040   0.000000
     35          5.578082   0.000000
     36          6.320056   0.000000
     37          6.808095   0.000000
     38          6.808095   0.000000
     39          6.972930   0.000000
     40          6.972930   0.000000
     41          6.998843   0.000000
     42          6.998843   0.000000
     43          7.079813   0.000000
     44          7.079813   0.000000
     45          8.550476   0.000000
     46          8.550476   0.000000
     47          8.688064   0.000000
     48          8.904086   0.000000
 
  0.3750000E+00 -0.1713693E-31  0.0000000E+00  0.1171875E-01
      1        -34.979778   1.000000
      2        -34.972414   1.000000
      3        -34.966472   1.000000
      4        -34.966472   1.000000
      5        -17.025135   1.000000
      6        -17.025135   1.000000
      7        -17.005001   1.000000
      8        -16.980701   1.000000
      9        -16.980701   1.000000
     10        -16.946249   1.000000
     11        -16.946249   1.000000
     12        -16.932510   1.000000
     13        -16.921973   1.000000
     14        -16.921973   1.000000
     15        -16.893902   1.000000
     16        -16.893902   1.000000
     17         -1.313453   1.000000
     18         -0.202944   1.000000
     19          1.524253   0.996049
     20          1.524253   0.996049
     21          2.123413   0.000000
     22          2.123413   0.000000
     23          2.396418   0.000000
     24          2.396418   0.000000
     25          2.401306   0.000000
     26          3.115920   0.000000
     27          3.239104   0.000000
     28          4.188173   0.000000
     29          4.188173   0.000000
     30          4.317330   0.000000
     31          4.345917   0.000000
     32          4.345917   0.000000
     33          5.057956   0.000000
     34          5.057956   0.000000
     35          5.730387   0.000000
     36          6.129551   0.000000
     37          6.810037   0.000000
     38          6.810037   0.000000
     39          7.017902   0.000000
     40          7.017902   0.000000
     41          7.101439   0.000000
     42          7.101439   0.000000
     43          7.157352   0.000000
     44          7.157352   0.000000
     45          9.325512   0.000000
     46          9.325512   0.000000
     47          9.440217   0.000000
     48          9.440218   0.000000
 
  0.5000000E+00 -0.3261838E-31  0.0000000E+00  0.5859375E-02
      1        -34.976089   1.000000
      2        -34.976089   1.000000
      3        -34.966472   1.000000
      4        -34.966472   1.000000
      5        -17.003083   1.000000
      6        -17.003083   1.000000
      7        -17.003083   1.000000
      8        -17.003083   1.000000
      9        -16.969186   1.000000
     10        -16.969186   1.000000
     11        -16.946525   1.000000
     12        -16.946525   1.000000
     13        -16.907919   1.000000
     14        -16.907919   1.000000
     15        -16.907919   1.000000
     16        -16.907919   1.000000
     17         -0.794049   1.000000
     18         -0.794049   1.000000
     19          1.672848   0.060972
     20          1.672848   0.060972
     21          2.250281   0.000000
     22          2.250281   0.000000
     23          2.250281   0.000000
     24          2.250281   0.000000
     25          2.729719   0.000000
     26          2.729719   0.000000
     27          3.737764   0.000000
     28          3.737764   0.000000
     29          3.884817   0.000000
     30          3.884817   0.000000
     31          4.652590   0.000000
     32          4.652590   0.000000
     33          4.652590   0.000000
     34          4.652590   0.000000
     35          5.922216   0.000000
     36          5.922216   0.000000
     37          6.810753   0.000000
     38          6.810753   0.000000
     39          7.025824   0.000000
     40          7.025824   0.000000
     41          7.173005   0.000000
     42          7.173005   0.000000
     43          7.173005   0.000000
     44          7.173005   0.000000
     45          9.444698   0.000000
     46          9.444698   0.000000
     47         10.254667   0.000000
     48         10.254668   0.000000
 
  0.1250000E+00  0.1250000E+00  0.0000000E+00  0.2343750E-01
      1        -34.984272   1.000000
      2        -34.967191   1.000000
      3        -34.967191   1.000000
      4        -34.966516   1.000000
      5        -17.052100   1.000000
      6        -17.050626   1.000000
      7        -17.050626   1.000000
      8        -16.957658   1.000000
      9        -16.946141   1.000000
     10        -16.946141   1.000000
     11        -16.941675   1.000000
     12        -16.941675   1.000000
     13        -16.940425   1.000000
     14        -16.890027   1.000000
     15        -16.876692   1.000000
     16        -16.872497   1.000000
     17         -1.877977   1.000000
     18          0.879453   1.000000
     19          0.879453   1.000000
     20          1.112518   1.000000
     21          1.973446   0.000000
     22          2.019789   0.000000
     23          2.019789   0.000000
     24          2.611211   0.000000
     25          2.676865   0.000000
     26          2.676865   0.000000
     27          3.717146   0.000000
     28          4.031119   0.000000
     29          4.055460   0.000000
     30          5.252893   0.000000
     31          5.432912   0.000000
     32          5.699454   0.000000
     33          5.699454   0.000000
     34          5.759630   0.000000
     35          6.106579   0.000000
     36          6.195300   0.000000
     37          6.195300   0.000000
     38          6.674669   0.000000
     39          6.712769   0.000000
     40          6.712769   0.000000
     41          7.033181   0.000000
     42          7.225043   0.000000
     43          7.225043   0.000000
     44          7.697426   0.000000
     45          7.697426   0.000000
     46          7.904929   0.000000
     47          8.217723   0.000000
     48          8.532743   0.000000
 
  0.2500000E+00  0.1250000E+00  0.0000000E+00  0.4687500E-01
      1        -34.982270   1.000000
      2        -34.969189   1.000000
      3        -34.967105   1.000000
      4        -34.966586   1.000000
      5        -17.040760   1.000000
      6        -17.039816   1.000000
      7        -17.033771   1.000000
      8        -16.971846   1.000000
      9        -16.958768   1.000000
     10        -16.941243   1.000000
     11        -16.938060   1.000000
     12        -16.938011   1.000000
     13        -16.932641   1.000000
     14        -16.912907   1.000000
     15        -16.884932   1.000000
     16        -16.877790   1.000000
     17         -1.631492   1.000000
     18          0.444011   1.000000
     19          1.086304   1.000000
     20          1.319828   1.000000
     21          1.978269   0.000000
     22          2.070185   0.000000
     23          2.164057   0.000000
     24          2.518823   0.000000
     25          2.559110   0.000000
     26          2.842538   0.000000
     27          3.426182   0.000000
     28          4.090875   0.000000
     29          4.181835   0.000000
     30          4.924595   0.000000
     31          4.970491   0.000000
     32          5.003828   0.000000
     33          5.352738   0.000000
     34          5.532753   0.000000
     35          5.594907   0.000000
     36          6.101552   0.000000
     37          6.253780   0.000000
     38          6.496812   0.000000
     39          6.564957   0.000000
     40          6.832007   0.000000
     41          7.144769   0.000000
     42          7.263897   0.000000
     43          7.717384   0.000000
     44          7.886421   0.000000
     45          8.013171   0.000000
     46          8.549893   0.000000
     47          8.883353   0.000000
     48          9.179078   0.000000
 
  0.3750000E+00  0.1250000E+00  0.0000000E+00  0.4687500E-01
      1        -34.979265   1.000000
      2        -34.972184   1.000000
      3        -34.966980   1.000000
      4        -34.966699   1.000000
      5        -17.025809   1.000000
      6        -17.021365   1.000000
      7        -17.007766   1.000000
      8        -16.989214   1.000000
      9        -16.977477   1.000000
     10        -16.942950   1.000000
     11        -16.940383   1.000000
     12        -16.938036   1.000000
     13        -16.925909   1.000000
     14        -16.919269   1.000000
     15        -16.897209   1.000000
     16        -16.889160   1.000000
     17         -1.237205   1.000000
     18         -0.134722   1.000000
     19          1.373409   1.000000
     20          1.580233   0.858335
     21          1.992239   0.000000
     22          2.153695   0.000000
     23          2.378824   0.000000
     24          2.394394   0.000000
     25          2.397129   0.000000
     26          3.063667   0.000000
     27          3.184237   0.000000
     28          4.061151   0.000000
     29          4.347637   0.000000
     30          4.352642   0.000000
     31          4.392085   0.000000
     32          4.578002   0.000000
     33          4.972049   0.000000
     34          5.094142   0.000000
     35          5.733436   0.000000
     36          6.247304   0.000000
     37          6.291203   0.000000
     38          6.329131   0.000000
     39          6.481011   0.000000
     40          6.682412   0.000000
     41          7.419156   0.000000
     42          7.482919   0.000000
     43          7.712924   0.000000
     44          7.895027   0.000000
     45          8.760115   0.000000
     46          9.382732   0.000000
     47          9.428062   0.000000
     48          9.507382   0.000000
 
  0.5000000E+00  0.1250000E+00  0.0000000E+00  0.2343750E-01
      1        -34.975725   1.000000
      2        -34.975725   1.000000
      3        -34.966836   1.000000
      4        -34.966836   1.000000
      5        -17.007893   1.000000
      6        -17.007893   1.000000
      7        -16.999455   1.000000
      8        -16.999455   1.000000
      9        -16.976101   1.000000
     10        -16.976101   1.000000
     11        -16.939071   1.000000
     12        -16.939071   1.000000
     13        -16.911616   1.000000
     14        -16.911616   1.000000
     15        -16.903886   1.000000
     16        -16.903886   1.000000
     17         -0.722608   1.000000
     18         -0.722608   1.000000
     19          1.614865   0.537182
     20          1.614865   0.537182
     21          2.143933   0.000000
     22          2.143933   0.000000
     23          2.265720   0.000000
     24          2.265720   0.000000
     25          2.705411   0.000000
     26          2.705411   0.000000
     27          3.649839   0.000000
     28          3.649839   0.000000
     29          4.096936   0.000000
     30          4.096936   0.000000
     31          4.668769   0.000000
     32          4.668769   0.000000
     33          4.694230   0.000000
     34          4.694230   0.000000
     35          5.982408   0.000000
     36          5.982408   0.000000
     37          6.405771   0.000000
     38          6.405771   0.000000
     39          6.497429   0.000000
     40          6.497429   0.000000
     41          7.640974   0.000000
     42          7.640974   0.000000
     43          7.690750   0.000000
     44          7.690750   0.000000
     45          9.472494   0.000000
     46          9.472494   0.000000
     47          9.565231   0.000000
     48          9.565231   0.000000
 
  0.2500000E+00  0.2500000E+00  0.0000000E+00  0.2343750E-01
      1        -34.980477   1.000000
      2        -34.968885   1.000000
      3        -34.968885   1.000000
      4        -34.966879   1.000000
      5        -17.030836   1.000000
      6        -17.030836   1.000000
      7        -17.027933   1.000000
      8        -16.987670   1.000000
      9        -16.950209   1.000000
     10        -16.950209   1.000000
     11        -16.936591   1.000000
     12        -16.929687   1.000000
     13        -16.929687   1.000000
     14        -16.929236   1.000000
     15        -16.893555   1.000000
     16        -16.877220   1.000000
     17         -1.393709   1.000000
     18          0.641165   1.000000
     19          0.641165   1.000000
     20          1.512474   0.998602
     21          1.844910   0.000000
     22          2.192567   0.000000
     23          2.192567   0.000000
     24          2.464300   0.000000
     25          2.712710   0.000000
     26          2.712710   0.000000
     27          3.207449   0.000000
     28          3.996034   0.000000
     29          4.313351   0.000000
     30          4.860870   0.000000
     31          4.934447   0.000000
     32          4.934447   0.000000
     33          5.055794   0.000000
     34          5.524189   0.000000
     35          5.578985   0.000000
     36          5.677303   0.000000
     37          5.677303   0.000000
     38          6.311899   0.000000
     39          6.767964   0.000000
     40          6.767964   0.000000
     41          7.404841   0.000000
     42          7.404841   0.000000
     43          7.642215   0.000000
     44          8.492967   0.000000
     45          8.532624   0.000000
     46          8.532624   0.000000
     47          9.180737   0.000000
     48          9.345022   0.000000
 
  0.3750000E+00  0.2500000E+00  0.0000000E+00  0.4687500E-01
      1        -34.977818   1.000000
      2        -34.971538   1.000000
      3        -34.968418   1.000000
      4        -34.967337   1.000000
      5        -17.024996   1.000000
      6        -17.013812   1.000000
      7        -17.010256   1.000000
      8        -17.003067   1.000000
      9        -16.968184   1.000000
     10        -16.964032   1.000000
     11        -16.937300   1.000000
     12        -16.926113   1.000000
     13        -16.924614   1.000000
     14        -16.913762   1.000000
     15        -16.906681   1.000000
     16        -16.884303   1.000000
     17         -1.012612   1.000000
     18          0.063343   1.000000
     19          0.934148   1.000000
     20          1.551350   0.970607
     21          1.881671   0.000000
     22          2.241938   0.000000
     23          2.387853   0.000000
     24          2.389054   0.000000
     25          2.502377   0.000000
     26          2.927183   0.000000
     27          3.034076   0.000000
     28          3.811992   0.000000
     29          4.520653   0.000000
     30          4.555274   0.000000
     31          4.628768   0.000000
     32          4.649868   0.000000
     33          4.758468   0.000000
     34          5.195899   0.000000
     35          5.786696   0.000000
     36          5.796218   0.000000
     37          5.852930   0.000000
     38          6.107429   0.000000
     39          6.538246   0.000000
     40          6.612663   0.000000
     41          7.524011   0.000000
     42          7.999029   0.000000
     43          8.054265   0.000000
     44          8.281761   0.000000
     45          8.457545   0.000000
     46          9.118303   0.000000
     47          9.369460   0.000000
     48          9.794402   0.000000
 
  0.5000000E+00  0.2500000E+00  0.0000000E+00  0.2343750E-01
      1        -34.974676   1.000000
      2        -34.974676   1.000000
      3        -34.967875   1.000000
      4        -34.967875   1.000000
      5        -17.015728   1.000000
      6        -17.015728   1.000000
      7        -16.990853   1.000000
      8        -16.990853   1.000000
      9        -16.989295   1.000000
     10        -16.989295   1.000000
     11        -16.923884   1.000000
     12        -16.923884   1.000000
     13        -16.922043   1.000000
     14        -16.922043   1.000000
     15        -16.897419   1.000000
     16        -16.897419   1.000000
     17         -0.512948   1.000000
     18         -0.512948   1.000000
     19          1.264824   1.000000
     20          1.264824   1.000000
     21          2.207554   0.000000
     22          2.207554   0.000000
     23          2.310165   0.000000
     24          2.310165   0.000000
     25          2.641045   0.000000
     26          2.641045   0.000000
     27          3.449438   0.000000
     28          3.449438   0.000000
     29          4.419941   0.000000
     30          4.419941   0.000000
     31          4.615887   0.000000
     32          4.615887   0.000000
     33          4.811928   0.000000
     34          4.811928   0.000000
     35          5.939435   0.000000
     36          5.939435   0.000000
     37          6.203711   0.000000
     38          6.203711   0.000000
     39          6.207309   0.000000
     40          6.207309   0.000000
     41          7.920301   0.000000
     42          7.920301   0.000000
     43          8.282168   0.000000
     44          8.282168   0.000000
     45          8.755497   0.000000
     46          8.755497   0.000000
     47         10.027519   0.000000
     48         10.027663   0.000000
 
  0.3750000E+00  0.3750000E+00  0.0000000E+00  0.2343750E-01
      1        -34.975652   1.000000
      2        -34.970569   1.000000
      3        -34.970569   1.000000
      4        -34.968296   1.000000
      5        -17.018718   1.000000
      6        -17.018718   1.000000
      7        -17.013848   1.000000
      8        -16.993687   1.000000
      9        -16.986506   1.000000
     10        -16.954152   1.000000
     11        -16.954152   1.000000
     12        -16.920845   1.000000
     13        -16.914204   1.000000
     14        -16.909375   1.000000
     15        -16.909375   1.000000
     16        -16.885996   1.000000
     17         -0.652436   1.000000
     18          0.371502   1.000000
     19          0.371502   1.000000
     20          1.175146   1.000000
     21          2.146190   0.000000
     22          2.380171   0.000000
     23          2.380171   0.000000
     24          2.382556   0.000000
     25          2.745939   0.000000
     26          2.800768   0.000000
     27          2.800768   0.000000
     28          3.537721   0.000000
     29          4.543669   0.000000
     30          4.546855   0.000000
     31          4.546855   0.000000
     32          4.609908   0.000000
     33          4.720324   0.000000
     34          5.349993   0.000000
     35          5.349993   0.000000
     36          5.797968   0.000000
     37          5.921391   0.000000
     38          6.172362   0.000000
     39          6.752935   0.000000
     40          6.752935   0.000000
     41          7.626603   0.000000
     42          7.626603   0.000000
     43          8.134629   0.000000
     44          8.496956   0.000000
     45          8.694794   0.000000
     46          9.211901   0.000000
     47          9.211901   0.000000
     48         10.344648   0.000000
 
  0.5000000E+00  0.3750000E+00  0.0000000E+00  0.2343750E-01
      1        -34.973107   1.000000
      2        -34.973107   1.000000
      3        -34.969428   1.000000
      4        -34.969428   1.000000
      5        -17.019226   1.000000
      6        -17.019226   1.000000
      7        -17.005545   1.000000
      8        -17.005545   1.000000
      9        -16.973900   1.000000
     10        -16.973900   1.000000
     11        -16.937484   1.000000
     12        -16.937484   1.000000
     13        -16.909022   1.000000
     14        -16.909022   1.000000
     15        -16.894879   1.000000
     16        -16.894879   1.000000
     17         -0.179013   1.000000
     18         -0.179013   1.000000
     19          0.756893   1.000000
     20          0.756893   1.000000
     21          2.378487   0.000000
     22          2.378487   0.000000
     23          2.487860   0.000000
     24          2.487860   0.000000
     25          2.554761   0.000000
     26          2.554761   0.000000
     27          3.181849   0.000000
     28          3.181849   0.000000
     29          4.488761   0.000000
     30          4.488761   0.000000
     31          4.491172   0.000000
     32          4.491172   0.000000
     33          4.993651   0.000000
     34          4.993651   0.000000
     35          5.549160   0.000000
     36          5.549160   0.000000
     37          6.423185   0.000000
     38          6.423185   0.000000
     39          6.548407   0.000000
     40          6.548407   0.000000
     41          7.794871   0.000000
     42          7.794871   0.000000
     43          8.147581   0.000000
     44          8.147581   0.000000
     45          8.917256   0.000000
     46          8.917256   0.000000
     47          9.896685   0.000000
     48          9.896685   0.000000
 
  0.5000000E+00  0.5000000E+00  0.0000000E+00  0.5859375E-02
      1        -34.971267   1.000000
      2        -34.971267   1.000000
      3        -34.971267   1.000000
      4        -34.971267   1.000000
      5        -17.015744   1.000000
      6        -17.015744   1.000000
      7        -17.015744   1.000000
      8        -17.015744   1.000000
      9        -16.955750   1.000000
     10        -16.955750   1.000000
     11        -16.955750   1.000000
     12        -16.955750   1.000000
     13        -16.898765   1.000000
     14        -16.898765   1.000000
     15        -16.898765   1.000000
     16        -16.898765   1.000000
     17          0.255768   1.000000
     18          0.255768   1.000000
     19          0.255768   1.000000
     20          0.255768   1.000000
     21          2.463145   0.000000
     22          2.463145   0.000000
     23          2.463145   0.000000
     24          2.463145   0.000000
     25          2.844357   0.000000
     26          2.844357   0.000000
     27          2.844357   0.000000
     28          2.844357   0.000000
     29          4.442302   0.000000
     30          4.442302   0.000000
     31          4.442302   0.000000
     32          4.442302   0.000000
     33          5.236827   0.000000
     34          5.236827   0.000000
     35          5.236827   0.000000
     36          5.236827   0.000000
     37          6.736916   0.000000
     38          6.736916   0.000000
     39          6.736916   0.000000
     40          6.736916   0.000000
     41          7.720727   0.000000
     42          7.720727   0.000000
     43          7.720727   0.000000
     44          7.720727   0.000000
     45          9.477127   0.000000
     46          9.477127   0.000000
     47          9.477127   0.000000
     48          9.477127   0.000000
 
  0.1250000E+00  0.1250000E+00  0.1250000E+00  0.1562500E-01
      1        -34.983597   1.000000
      2        -34.967189   1.000000
      3        -34.967189   1.000000
      4        -34.967189   1.000000
      5        -17.047434   1.000000
      6        -17.047434   1.000000
      7        -17.047434   1.000000
      8        -16.953520   1.000000
      9        -16.953520   1.000000
     10        -16.953520   1.000000
     11        -16.937832   1.000000
     12        -16.937832   1.000000
     13        -16.937832   1.000000
     14        -16.901421   1.000000
     15        -16.875084   1.000000
     16        -16.875084   1.000000
     17         -1.795395   1.000000
     18          0.950722   1.000000
     19          0.950722   1.000000
     20          0.950722   1.000000
     21          2.015933   0.000000
     22          2.015933   0.000000
     23          2.015933   0.000000
     24          2.649024   0.000000
     25          2.649024   0.000000
     26          2.649024   0.000000
     27          3.600055   0.000000
     28          4.075070   0.000000
     29          4.075070   0.000000
     30          5.313023   0.000000
     31          5.313023   0.000000
     32          5.555614   0.000000
     33          5.555614   0.000000
     34          5.555614   0.000000
     35          6.060518   0.000000
     36          6.060518   0.000000
     37          6.060518   0.000000
     38          6.671065   0.000000
     39          6.671065   0.000000
     40          6.671065   0.000000
     41          7.033399   0.000000
     42          7.033399   0.000000
     43          7.033399   0.000000
     44          8.145821   0.000000
     45          8.145821   0.000000
     46          8.145821   0.000000
     47          8.656846   0.000000
     48          8.656846   0.000000
 
  0.2500000E+00  0.1250000E+00  0.1250000E+00  0.4687500E-01
      1        -34.981670   1.000000
      2        -34.969108   1.000000
      3        -34.967181   1.000000
      4        -34.967181   1.000000
      5        -17.038549   1.000000
      6        -17.038549   1.000000
      7        -17.033653   1.000000
      8        -16.965769   1.000000