<?xml version="1.0" encoding="ISO-8859-1"?>
<modeling>
 <generator>
  <i name="program" type="string">vasp </i>
  <i name="version" type="string">6.4.3  </i>
  <i name="subversion" type="string">19Mar24 (build Jun 26 2024 13:02:28) complex                          parallel </i>
  <i name="platform" type="string">LinuxIFC </i>
  <i name="date" type="string">2025 08 08 </i>
  <i name="time" type="string">18:42:42 </i>
 </generator>
 <incar>
  <i type="string" name="SYSTEM">Sr</i>
  <i type="int" name="IBRION">    -1</i>
  <i type="int" name="ISYM">     2</i>
  <i name="ENCUT">    298.15890000</i>
  <i type="int" name="ISMEAR">     0</i>
  <i name="SIGMA">      0.05000000</i>
  <i type="logical" name="LWAVE"> T  </i>
  <i type="logical" name="LCHARG"> T  </i>
 </incar>
 <primitive_cell>
  <structure name="primitive_cell" >
   <crystal>
    <varray name="basis" >
     <v>       3.00984500      -3.00984500       0.00000000 </v>
     <v>       3.00984500       0.00000000       3.00984500 </v>
     <v>       0.00000000      -3.00984500       3.00984500 </v>
    </varray>
    <i name="volume">     54.53337654 </i>
    <varray name="rec_basis" >
     <v>       0.16612151      -0.16612151      -0.16612151 </v>
     <v>       0.16612151       0.16612151       0.16612151 </v>
     <v>      -0.16612151      -0.16612151       0.16612151 </v>
    </varray>
   </crystal>
   <varray name="positions" >
    <v>       0.00000000       0.00000000       0.00000000 </v>
   </varray>
  </structure>
  <varray name="primitive_index" >
   <v type="int" >        1 </v>
  </varray>
 </primitive_cell>
 <kpoints>
  <generation param="Gamma">
   <v type="int" name="divisions">       8        8        8 </v>
   <v name="usershift">      0.00000000       0.00000000       0.00000000 </v>
   <v name="genvec1">      0.12500000       0.00000000       0.00000000 </v>
   <v name="genvec2">      0.00000000       0.12500000       0.00000000 </v>
   <v name="genvec3">      0.00000000      -0.00000000       0.12500000 </v>
   <v name="shift">      0.00000000       0.00000000       0.00000000 </v>
  </generation>
  <varray name="kpointlist" >
   <v>       0.00000000       0.00000000       0.00000000 </v>
   <v>       0.12500000      -0.00000000       0.00000000 </v>
   <v>       0.25000000      -0.00000000       0.00000000 </v>
   <v>       0.37500000      -0.00000000       0.00000000 </v>
   <v>       0.50000000      -0.00000000       0.00000000 </v>
   <v>       0.12500000       0.12500000       0.00000000 </v>
   <v>       0.25000000       0.12500000       0.00000000 </v>
   <v>       0.37500000       0.12500000       0.00000000 </v>
   <v>       0.50000000       0.12500000       0.00000000 </v>
   <v>       0.25000000       0.25000000       0.00000000 </v>
   <v>       0.37500000       0.25000000       0.00000000 </v>
   <v>       0.50000000       0.25000000       0.00000000 </v>
   <v>       0.37500000       0.37500000       0.00000000 </v>
   <v>       0.50000000       0.37500000       0.00000000 </v>
   <v>       0.50000000       0.50000000       0.00000000 </v>
   <v>       0.12500000       0.12500000       0.12500000 </v>
   <v>       0.25000000       0.12500000       0.12500000 </v>
   <v>       0.37500000       0.12500000       0.12500000 </v>
   <v>       0.50000000       0.12500000       0.12500000 </v>
   <v>       0.25000000       0.25000000       0.12500000 </v>
   <v>       0.37500000       0.25000000       0.12500000 </v>
   <v>       0.50000000       0.25000000       0.12500000 </v>
   <v>       0.37500000       0.37500000       0.12500000 </v>
   <v>       0.50000000       0.37500000       0.12500000 </v>
   <v>       0.50000000       0.50000000       0.12500000 </v>
   <v>       0.25000000       0.25000000       0.25000000 </v>
   <v>       0.37500000       0.25000000       0.25000000 </v>
   <v>       0.50000000       0.25000000       0.25000000 </v>
   <v>       0.37500000       0.37500000       0.25000000 </v>
   <v>       0.50000000       0.37500000       0.25000000 </v>
   <v>       0.50000000       0.50000000       0.25000000 </v>
   <v>       0.37500000       0.37500000       0.37500000 </v>
   <v>       0.50000000       0.37500000       0.37500000 </v>
   <v>       0.50000000       0.50000000       0.37500000 </v>
   <v>       0.50000000       0.50000000       0.50000000 </v>
  </varray>
  <varray name="weights" >
   <v>       0.00195312 </v>
   <v>       0.01171875 </v>
   <v>       0.01171875 </v>
   <v>       0.01171875 </v>
   <v>       0.00585938 </v>
   <v>       0.02343750 </v>
   <v>       0.04687500 </v>
   <v>       0.04687500 </v>
   <v>       0.02343750 </v>
   <v>       0.02343750 </v>
   <v>       0.04687500 </v>
   <v>       0.02343750 </v>
   <v>       0.02343750 </v>
   <v>       0.02343750 </v>
   <v>       0.00585938 </v>
   <v>       0.01562500 </v>
   <v>       0.04687500 </v>
   <v>       0.04687500 </v>
   <v>       0.02343750 </v>
   <v>       0.04687500 </v>
   <v>       0.09375000 </v>
   <v>       0.04687500 </v>
   <v>       0.04687500 </v>
   <v>       0.04687500 </v>
   <v>       0.01171875 </v>
   <v>       0.01562500 </v>
   <v>       0.04687500 </v>
   <v>       0.02343750 </v>
   <v>       0.04687500 </v>
   <v>       0.04687500 </v>
   <v>       0.01171875 </v>
   <v>       0.01562500 </v>
   <v>       0.02343750 </v>
   <v>       0.01171875 </v>
   <v>       0.00195312 </v>
  </varray>
 </kpoints>
 <parameters>
  <separator name="general" >
   <i type="string" name="SYSTEM">Sr</i>
   <i type="logical" name="LCOMPAT"> F  </i>
  </separator>
  <separator name="electronic" >
   <i type="string" name="PREC">normal</i>
   <i name="ENMAX">    298.15890000</i>
   <i name="ENAUG">    366.80400000</i>
   <i name="EDIFF">      0.00010000</i>
   <i type="int" name="IALGO">    38</i>
   <i type="int" name="IWAVPR">    10</i>
   <i type="int" name="NBANDS">    48</i>
   <i type="int" name="NBANDSLOW">    -1</i>
   <i type="int" name="NBANDSHIGH">    -1</i>
   <i name="NELECT">     40.00000000</i>
   <i type="int" name="TURBO">     0</i>
   <i type="int" name="IRESTART">     0</i>
   <i type="int" name="NREBOOT">     0</i>
   <i type="int" name="NMIN">     0</i>
   <i name="EREF">      0.00000000</i>
   <separator name="electronic smearing" >
    <i type="int" name="ISMEAR">     0</i>
    <i name="SIGMA">      0.05000000</i>
    <i name="KSPACING">      0.50000000</i>
    <i type="logical" name="KGAMMA"> T  </i>
    <i type="logical" name="KBLOWUP"> T  </i>
   </separator>
   <separator name="electronic projectors" >
    <i type="logical" name="LREAL"> F  </i>
    <v name="ROPT">      0.00000000</v>
    <i type="int" name="LMAXPAW">  -100</i>
    <i type="int" name="LMAXMIX">     2</i>
    <i type="logical" name="NLSPLINE"> F  </i>
   </separator>
   <separator name="electronic startup" >
    <i type="int" name="ISTART">     1</i>
    <i type="int" name="ICHARG">     0</i>
    <i type="int" name="INIWAV">     1</i>
   </separator>
   <separator name="electronic spin" >
    <i type="int" name="ISPIN">     1</i>
    <i type="logical" name="LNONCOLLINEAR"> F  </i>
    <v name="MAGMOM">      1.00000000      1.00000000      1.00000000      1.00000000</v>
    <i name="NUPDOWN">     -1.00000000</i>
    <i type="logical" name="LSORBIT"> F  </i>
    <v name="SAXIS">      0.00000000      0.00000000      1.00000000</v>
    <i type="logical" name="LSPIRAL"> F  </i>
    <v name="QSPIRAL">      0.00000000      0.00000000      0.00000000</v>
    <i type="logical" name="LZEROZ"> F  </i>
   </separator>
   <separator name="electronic exchange-correlation" >
    <i type="logical" name="LASPH"> F  </i>
   </separator>
   <separator name="electronic convergence" >
    <i type="int" name="NELM">    60</i>
    <i type="int" name="NELMDL">     0</i>
    <i type="int" name="NELMIN">     2</i>
    <i name="ENINI">    298.15890000</i>
    <separator name="electronic convergence detail" >
     <i type="logical" name="LDIAG"> T  </i>
     <i type="logical" name="LSUBROT"> F  </i>
     <i name="WEIMIN">      0.00000000</i>
     <i name="EBREAK">      0.00000052</i>
     <i name="DEPER">      0.30000000</i>
     <i type="int" name="NRMM">     4</i>
     <i name="TIME">      0.40000000</i>
    </separator>
   </separator>
   <separator name="electronic mixer" >
    <i name="AMIX">      0.40000000</i>
    <i name="BMIX">      1.00000000</i>
    <i name="AMIN">      0.10000000</i>
    <i name="AMIX_MAG">      1.60000000</i>
    <i name="BMIX_MAG">      1.00000000</i>
    <separator name="electronic mixer details" >
     <i type="int" name="IMIX">     4</i>
     <i type="logical" name="MIXFIRST"> F  </i>
     <i type="int" name="MAXMIX">   -45</i>
     <i name="WC">    100.00000000</i>
     <i type="int" name="INIMIX">     1</i>
     <i type="int" name="MIXPRE">     1</i>
     <i type="int" name="MREMOVE">     5</i>
    </separator>
   </separator>
   <separator name="electronic dipolcorrection" >
    <i type="logical" name="LDIPOL"> F  </i>
    <i type="logical" name="LMONO"> F  </i>
    <i type="int" name="IDIPOL">     0</i>
    <i name="EPSILON">      1.00000000</i>
    <v name="DIPOL">   -100.00000000   -100.00000000   -100.00000000</v>
    <i name="EFIELD">      0.00000000</i>
    <i type="logical" name="LVACPOTAV"> F  </i>
   </separator>
  </separator>
  <separator name="grids" >
   <i type="int" name="NGX">    28</i>
   <i type="int" name="NGY">    28</i>
   <i type="int" name="NGZ">    28</i>
   <i type="int" name="NGXF">    56</i>
   <i type="int" name="NGYF">    56</i>
   <i type="int" name="NGZF">    56</i>
   <i type="logical" name="ADDGRID"> F  </i>
  </separator>
  <separator name="ionic" >
   <i type="int" name="NSW">     0</i>
   <i type="int" name="IBRION">    -1</i>
   <i type="int" name="MDALGO">     0</i>
   <i type="int" name="ISIF">     2</i>
   <i name="PSTRESS">      0.00000000</i>
   <i name="EDIFFG">      0.00100000</i>
   <i type="int" name="NFREE">     0</i>
   <i name="POTIM">      0.50000000</i>
   <i name="SMASS">     -3.00000000</i>
   <i name="SCALEE">      1.00000000</i>
  </separator>
  <separator name="ionic md" >
   <i name="TEBEG">      0.00010000</i>
   <i name="TEEND">      0.00010000</i>
   <i type="int" name="NBLOCK">     1</i>
   <i type="int" name="KBLOCK">     1</i>
   <i type="int" name="NPACO">   256</i>
   <i name="APACO">     10.00000000</i>
  </separator>
  <separator name="symmetry" >
   <i type="int" name="ISYM">     2</i>
   <i name="SYMPREC">      0.00001000</i>
  </separator>
  <separator name="dos" >
   <i type="int" name="LORBIT">     0</i>
   <v name="RWIGS">     -1.00000000</v>
   <i type="int" name="NEDOS">   301</i>
   <i name="EMIN">     10.00000000</i>
   <i name="EMAX">    -10.00000000</i>
   <i name="EFERMI">      0.00000000</i>
  </separator>
  <separator name="writing" >
   <i type="int" name="NWRITE">     2</i>
   <i type="logical" name="LWAVE"> T  </i>
   <i type="logical" name="LDOWNSAMPLE"> F  </i>
   <i type="logical" name="LCHARG"> T  </i>
   <i type="logical" name="LPARD"> F  </i>
   <i type="logical" name="LVTOT"> F  </i>
   <i type="logical" name="LVHAR"> F  </i>
   <i type="logical" name="LELF"> F  </i>
   <i type="logical" name="LOPTICS"> F  </i>
   <v name="STM">      0.00000000      0.00000000      0.00000000      0.00000000      0.00000000      0.00000000      0.00000000</v>
  </separator>
  <separator name="performance" >
   <i type="int" name="NPAR">    48</i>
   <i type="int" name="NSIM">     4</i>
   <i type="int" name="NBLK">    -1</i>
   <i type="logical" name="LPLANE"> T  </i>
   <i type="logical" name="LSCALAPACK"> T  </i>
   <i type="logical" name="LSCAAWARE"> F  </i>
   <i type="logical" name="LSCALU"> F  </i>
   <i type="logical" name="LASYNC"> F  </i>
   <i type="logical" name="LORBITALREAL"> F  </i>
  </separator>
  <separator name="miscellaneous" >
   <i type="int" name="IDIOT">     3</i>
   <i type="int" name="PHON_NSTRUCT">    -1</i>
   <i type="logical" name="LMUSIC"> F  </i>
   <v name="POMASS">     87.62000000</v>
   <v name="DARWINR">      0.00000000</v>
   <v name="DARWINV">      1.00000000</v>
   <i type="logical" name="LCORR"> T  </i>
  </separator>
  <i type="logical" name="GGA_COMPAT"> T  </i>
  <i type="logical" name="LBERRY"> F  </i>
  <i type="int" name="ICORELEVEL">     0</i>
  <i type="logical" name="LDAU"> F  </i>
  <i type="int" name="I_CONSTRAINED_M">     0</i>
  <separator name="electronic exchange-correlation" >
   <i type="string" name="GGA    ">PE</i>
   <i type="string" name="XC_C">1</i>
   <i type="int" name="VOSKOWN">     0</i>
   <i type="logical" name="LHFCALC"> F  </i>
   <i type="string" name="PRECFOCK"></i>
   <i type="logical" name="LSYMGRAD"> F  </i>
   <i type="logical" name="LHFONE"> F  </i>
   <i type="logical" name="LRHFCALC"> F  </i>
   <i type="logical" name="LTHOMAS"> F  </i>
   <i type="logical" name="LMODELHF"> F  </i>
   <i type="logical" name="LFOCKACE"> F  </i>
   <i name="ENCUT4O">     -1.00000000</i>
   <i type="int" name="EXXOEP">     0</i>
   <i type="int" name="FOURORBIT">     0</i>
   <i name="AEXX">      0.00000000</i>
   <i name="HFALPHA">      0.00000000</i>
   <i name="MCALPHA">      0.00000000</i>
   <i name="ALDAX">      1.00000000</i>
   <i name="AGGAX">      1.00000000</i>
   <i name="AMGGAX">      1.00000000</i>
   <i name="ALDAC">      1.00000000</i>
   <i name="AGGAC">      1.00000000</i>
   <i name="AMGGAC">      1.00000000</i>
   <i type="int" name="NKREDX">     1</i>
   <i type="int" name="NKREDY">     1</i>
   <i type="int" name="NKREDZ">     1</i>
   <i type="logical" name="SHIFTRED"> F  </i>
   <i type="logical" name="ODDONLY"> F  </i>
   <i type="logical" name="EVENONLY"> F  </i>
   <i type="int" name="LMAXFOCK">     0</i>
   <i type="int" name="NMAXFOCKAE">     0</i>
   <i type="logical" name="LFOCKAEDFT"> F  </i>
   <i name="HFSCREEN">      0.00000000</i>
   <i name="HFSCREENC">      0.00000000</i>
   <i type="int" name="NBANDSGWLOW">     0</i>
  </separator>
  <separator name="vdW DFT" >
   <i type="logical" name="LUSE_VDW"> F  </i>
   <i type="int" name="IVDW_NL">    -1</i>
   <i type="logical" name="LSPIN_VDW"> F  </i>
   <i name="ZAB_VDW">     -0.84910000</i>
   <i name="GAMMA_VDW">      1.39626340</i>
   <i name="ALPHA_VDW">      0.00000000</i>
   <i name="PARAM1">      0.12340000</i>
   <i name="PARAM2">      1.00000000</i>
   <i name="BPARAM">      6.30000000</i>
   <i name="CPARAM">      0.00930000</i>
  </separator>
  <separator name="model GW" >
   <i type="int" name="MODEL_GW">     0</i>
   <i name="MODEL_EPS0">     32.72002592</i>
   <i name="MODEL_ALPHA">      1.00000000</i>
  </separator>
  <separator name="linear response parameters" >
   <i type="logical" name="LEPSILON"> F  </i>
   <i type="logical" name="LRPA"> F  </i>
   <i type="logical" name="LNABLA"> F  </i>
   <i type="logical" name="LVEL"> F  </i>
   <i name="CSHIFT">      0.10000000</i>
   <i name="OMEGAMAX">     -1.00000000</i>
   <i name="DEG_THRESHOLD">      0.00200000</i>
   <i name="RTIME">     -0.10000000</i>
   <i name="WPLASMAI">      0.00000000</i>
   <v name="DFIELD">      0.00000000      0.00000000      0.00000000</v>
   <v name="WPLASMA">      0.00000000      0.00000000      0.00000000      0.00000000      0.00000000      0.00000000      0.00000000      0.00000000      0.00000000</v>
  </separator>
  <separator name="orbital magnetization" >
   <i type="logical" name="NUCIND"> F  </i>
   <v name="MAGPOS">      0.00000000      0.00000000      0.00000000</v>
   <i type="logical" name="LNICSALL"> T  </i>
   <i type="logical" name="ORBITALMAG"> F  </i>
   <i type="logical" name="LMAGBLOCH"> F  </i>
   <i type="logical" name="LCHIMAG"> F  </i>
   <i type="logical" name="LGAUGE"> T  </i>
   <i type="int" name="MAGATOM">     0</i>
   <v name="MAGDIPOL">      0.00000000      0.00000000      0.00000000</v>
   <v name="AVECCONST">      0.00000000      0.00000000      0.00000000</v>
  </separator>
  <separator name="response functions" >
   <i type="logical" name="LALL_IN_ONE"> F  </i>
   <i type="int" name="IALL_IN_ONE">    -1</i>
   <i type="int" name="NBANDS_WAVE">    -1</i>
   <i type="logical" name="LFINITE_TEMPERATURE"> F  </i>
   <i type="logical" name="LADDER"> F  </i>
   <i type="logical" name="LRPAFORCE"> F  </i>
   <i type="logical" name="LFXC"> F  </i>
   <i type="logical" name="LHARTREE"> T  </i>
   <i type="int" name="IBSE">     0</i>
   <v type="int" name="KPOINT">    -1     0     0     0</v>
   <i type="logical" name="LTCTC"> F  </i>
   <i type="logical" name="LTCTE"> F  </i>
   <i type="logical" name="LTETE"> F  </i>
   <i type="logical" name="LTRIPLET"> F  </i>
   <i type="logical" name="LFXCEPS"> F  </i>
   <i type="logical" name="LFXHEG"> F  </i>
   <i type="int" name="NATURALO">     2</i>
   <i type="logical" name="LHOLEGF"> F  </i>
   <i type="logical" name="L2ORDER"> F  </i>
   <i type="logical" name="LDMP1"> F  </i>
   <i type="logical" name="LMP2LT"> F  </i>
   <i type="logical" name="LSMP2LT"> F  </i>
   <i type="logical" name="LGWLF"> F  </i>
   <i name="ENCUTGW">     -1.60000002</i>
   <i name="ENCUTGWSOFT">     -1.60000002</i>
   <i name="ENCUTLF">     -1.00000000</i>
   <i type="logical" name="ESF_SPLINES"> F  </i>
   <i name="ESF_CONV">      0.01000000</i>
   <i type="int" name="ESF_NINTER">    15</i>
   <i type="int" name="LMAXMP2">    -1</i>
   <i name="SCISSOR">      0.00000000</i>
   <i type="int" name="NOMEGA">     0</i>
   <i type="int" name="NOMEGAR">     0</i>
   <i type="int" name="NBANDSGW">    -1</i>
   <i type="int" name="NBANDSO">    -1</i>
   <i type="int" name="NBANDSV">    -1</i>
   <i type="int" name="NELMGW">     1</i>
   <i type="int" name="NELMHF">     1</i>
   <i type="int" name="DIM">     3</i>
   <i type="int" name="IESPILON">     4</i>
   <i type="int" name="ANTIRES">     0</i>
   <i name="OMEGAMAX">    -30.00000000</i>
   <i name="OMEGAMIN">    -30.00000000</i>
   <i name="OMEGATL">   -200.00000000</i>
   <i type="int" name="OMEGAGRID">     0</i>
   <i name="CSHIFT">     -0.10000000</i>
   <i type="logical" name="LSELFENERGY"> F  </i>
   <i type="logical" name="LSPECTRAL"> F  </i>
   <i type="logical" name="LSPECTRALGW"> F  </i>
   <i type="logical" name="LSINGLES"> F  </i>
   <i type="logical" name="LFERMIGW"> F  </i>
   <i type="logical" name="ODDONLYGW"> F  </i>
   <i type="logical" name="EVENONLYGW"> F  </i>
   <i type="int" name="NKREDLFX">     1</i>
   <i type="int" name="NKREDLFY">     1</i>
   <i type="int" name="NKREDLFZ">     1</i>
   <i type="int" name="MAXMEM">  2800</i>
   <i type="int" name="TELESCOPE">     0</i>
   <i type="int" name="NTAUPAR">    -1</i>
   <i type="int" name="NOMEGAPAR">    -1</i>
   <i name="DAMP_NEWTON">      0.80000001</i>
   <i name="LAMBDA">      1.00000000</i>
  </separator>
  <separator name="External order field" >
   <i name="OFIELD_KAPPA">      0.00000000</i>
   <v name="OFIELD_K">      0.00000000      0.00000000      0.00000000</v>
   <i name="OFIELD_Q6_NEAR">      0.00000000</i>
   <i name="OFIELD_Q6_FAR">      0.00000000</i>
   <i name="OFIELD_A">      0.00000000</i>
  </separator>
  <separator name="optional k-points parameters" >
   <i type="int" name="KPOINTS_OPT_MODE">     1</i>
   <i type="logical" name="LKPOINTS_OPT"> T  </i>
  </separator>
 </parameters>
 <atominfo>
  <atoms>       4 </atoms>
  <types>       1 </types>
  <array name="atoms" >
   <dimension dim="1">ion</dimension>
   <field type="string">element</field>
   <field type="int">atomtype</field>
   <set>
    <rc><c>Sr</c><c>   1</c></rc>
    <rc><c>Sr</c><c>   1</c></rc>
    <rc><c>Sr</c><c>   1</c></rc>
    <rc><c>Sr</c><c>   1</c></rc>
   </set>
  </array>
  <array name="atomtypes" >
   <dimension dim="1">type</dimension>
   <field type="int">atomspertype</field>
   <field type="string">element</field>
   <field>mass</field>
   <field>valence</field>
   <field type="string">pseudopotential</field>
   <set>
    <rc><c>   4</c><c>Sr</c><c>     87.62000000</c><c>     10.00000000</c><c>PAW_PBE Sr_sv 07Sep2000                 </c></rc>
   </set>
  </array>
 </atominfo>
 <structure name="initialpos" >
  <crystal>
   <varray name="basis" >
    <v>       6.01969000       0.00000000       0.00000000 </v>
    <v>       0.00000000       6.01969000       0.00000000 </v>
    <v>       0.00000000       0.00000000       6.01969000 </v>
   </varray>
   <i name="volume">    218.13350616 </i>
   <varray name="rec_basis" >
    <v>       0.16612151      -0.00000000       0.00000000 </v>
    <v>       0.00000000       0.16612151       0.00000000 </v>
    <v>      -0.00000000      -0.00000000       0.16612151 </v>
   </varray>
  </crystal>
  <varray name="positions" >
   <v>       0.00000000       0.00000000       0.00000000 </v>
   <v>       0.00000000       0.50000000       0.50000000 </v>
   <v>       0.50000000       0.00000000       0.50000000 </v>
   <v>       0.50000000       0.50000000       0.00000000 </v>
  </varray>
 </structure>
 <calculation>
  <scstep>
   <time name="dav">    0.64    0.64</time>
   <time name="total">    0.66    0.66</time>
   <energy>
    <i name="alphaZ">    137.50984215 </i>
    <i name="ewald">  -2193.50294640 </i>
    <i name="hartreedc">   -819.62494533 </i>
    <i name="XCdc">    137.44143092 </i>
    <i name="pawpsdc">   3108.22373245 </i>
    <i name="pawaedc">  -3064.94107000 </i>
    <i name="eentropy">     -0.00939975 </i>
    <i name="bandstr">   -683.73852832 </i>
    <i name="atom">   3372.08839373 </i>
    <i name="e_fr_energy">     -6.55349055 </i>
    <i name="e_wo_entrp">     -6.54409080 </i>
    <i name="e_0_energy">     -6.54879067 </i>
   </energy>
  </scstep>
  <scstep>
   <time name="dav">    0.53    0.53</time>
   <time name="total">    0.54    0.54</time>
   <energy>
    <i name="alphaZ">    137.50984215 </i>
    <i name="ewald">  -2193.50294640 </i>
    <i name="hartreedc">   -819.62262092 </i>
    <i name="XCdc">    137.44127916 </i>
    <i name="pawpsdc">   3108.20674721 </i>
    <i name="pawaedc">  -3064.92269767 </i>
    <i name="eentropy">     -0.00939983 </i>
    <i name="bandstr">   -683.74208802 </i>
    <i name="atom">   3372.08839373 </i>
    <i name="e_fr_energy">     -6.55349059 </i>
    <i name="e_wo_entrp">     -6.54409076 </i>
    <i name="e_0_energy">     -6.54879068 </i>
   </energy>
  </scstep>
  <structure>
   <crystal>
    <varray name="basis" >
     <v>       6.01969000       0.00000000       0.00000000 </v>
     <v>       0.00000000       6.01969000       0.00000000 </v>
     <v>       0.00000000       0.00000000       6.01969000 </v>
    </varray>
    <i name="volume">    218.13350616 </i>
    <varray name="rec_basis" >
     <v>       0.16612151      -0.00000000       0.00000000 </v>
     <v>       0.00000000       0.16612151       0.00000000 </v>
     <v>      -0.00000000      -0.00000000       0.16612151 </v>
    </varray>
   </crystal>
   <varray name="positions" >
    <v>       0.00000000       0.00000000       0.00000000 </v>
    <v>       0.00000000       0.50000000       0.50000000 </v>
    <v>       0.50000000       0.00000000       0.50000000 </v>
    <v>       0.50000000       0.50000000       0.00000000 </v>
   </varray>
  </structure>
  <varray name="forces" >
   <v>      -0.00000000       0.00000000       0.00000000 </v>
   <v>      -0.00000000       0.00000000       0.00000000 </v>
   <v>       0.00000000      -0.00000000      -0.00000000 </v>
   <v>       0.00000000       0.00000000       0.00000000 </v>
  </varray>
  <varray name="stress" >
   <v>      -0.72538631      -0.00000000      -0.00000000 </v>
   <v>       0.00000000      -0.72538631      -0.00000000 </v>
   <v>       0.00000000       0.00000000      -0.72538631 </v>
  </varray>
  <energy>
   <i name="e_fr_energy">     -6.55349059 </i>
   <i name="e_wo_entrp">     -6.54409076 </i>
   <i name="e_0_energy">     -6.54879068 </i>
  </energy>
  <dos comment="kpoints_opt">
   <i name="efermi">      1.60200024 </i>
   <total>
    <array>
     <dimension dim="1">gridpoints</dimension>
     <dimension dim="2">spin</dimension>
     <field>energy</field>
     <field>total</field>
     <field>integrated</field>
     <set>
      <set comment="spin 1">
       <r>   -37.2522     0.0000     0.0000 </r>
       <r>   -37.0860     0.0000     0.0000 </r>
       <r>   -36.9198     0.0000     0.0000 </r>
       <r>   -36.7536     0.0000     0.0000 </r>
       <r>   -36.5874     0.0000     0.0000 </r>
       <r>   -36.4212     0.0000     0.0000 </r>
       <r>   -36.2550     0.0000     0.0000 </r>
       <r>   -36.0887     0.0000     0.0000 </r>
       <r>   -35.9225     0.0000     0.0000 </r>
       <r>   -35.7563     0.0000     0.0000 </r>
       <r>   -35.5901     0.0000     0.0000 </r>
       <r>   -35.4239     0.0000     0.0000 </r>
       <r>   -35.2577     0.0000     0.0000 </r>
       <r>   -35.0915     0.0185     0.0031 </r>
       <r>   -34.9253    43.4092     7.2182 </r>
       <r>   -34.7591     4.7039     8.0000 </r>
       <r>   -34.5928     0.0000     8.0000 </r>
       <r>   -34.4266     0.0000     8.0000 </r>
       <r>   -34.2604     0.0000     8.0000 </r>
       <r>   -34.0942     0.0000     8.0000 </r>
       <r>   -33.9280     0.0000     8.0000 </r>
       <r>   -33.7618     0.0000     8.0000 </r>
       <r>   -33.5956     0.0000     8.0000 </r>
       <r>   -33.4294     0.0000     8.0000 </r>
       <r>   -33.2632     0.0000     8.0000 </r>
       <r>   -33.0969     0.0000     8.0000 </r>
       <r>   -32.9307     0.0000     8.0000 </r>
       <r>   -32.7645     0.0000     8.0000 </r>
       <r>   -32.5983     0.0000     8.0000 </r>
       <r>   -32.4321     0.0000     8.0000 </r>
       <r>   -32.2659     0.0000     8.0000 </r>
       <r>   -32.0997     0.0000     8.0000 </r>
       <r>   -31.9335     0.0000     8.0000 </r>
       <r>   -31.7673     0.0000     8.0000 </r>
       <r>   -31.6010     0.0000     8.0000 </r>
       <r>   -31.4348     0.0000     8.0000 </r>
       <r>   -31.2686     0.0000     8.0000 </r>
       <r>   -31.1024     0.0000     8.0000 </r>
       <r>   -30.9362     0.0000     8.0000 </r>
       <r>   -30.7700     0.0000     8.0000 </r>
       <r>   -30.6038     0.0000     8.0000 </r>
       <r>   -30.4376     0.0000     8.0000 </r>
       <r>   -30.2713     0.0000     8.0000 </r>
       <r>   -30.1051     0.0000     8.0000 </r>
       <r>   -29.9389     0.0000     8.0000 </r>
       <r>   -29.7727     0.0000     8.0000 </r>
       <r>   -29.6065     0.0000     8.0000 </r>
       <r>   -29.4403     0.0000     8.0000 </r>
       <r>   -29.2741     0.0000     8.0000 </r>
       <r>   -29.1079     0.0000     8.0000 </r>
       <r>   -28.9417     0.0000     8.0000 </r>
       <r>   -28.7754     0.0000     8.0000 </r>
       <r>   -28.6092     0.0000     8.0000 </r>
       <r>   -28.4430     0.0000     8.0000 </r>
       <r>   -28.2768     0.0000     8.0000 </r>
       <r>   -28.1106     0.0000     8.0000 </r>
       <r>   -27.9444     0.0000     8.0000 </r>
       <r>   -27.7782     0.0000     8.0000 </r>
       <r>   -27.6120     0.0000     8.0000 </r>
       <r>   -27.4458     0.0000     8.0000 </r>
       <r>   -27.2795     0.0000     8.0000 </r>
       <r>   -27.1133     0.0000     8.0000 </r>
       <r>   -26.9471     0.0000     8.0000 </r>
       <r>   -26.7809     0.0000     8.0000 </r>
       <r>   -26.6147     0.0000     8.0000 </r>
       <r>   -26.4485     0.0000     8.0000 </r>
       <r>   -26.2823     0.0000     8.0000 </r>
       <r>   -26.1161     0.0000     8.0000 </r>
       <r>   -25.9499     0.0000     8.0000 </r>
       <r>   -25.7836     0.0000     8.0000 </r>
       <r>   -25.6174     0.0000     8.0000 </r>
       <r>   -25.4512     0.0000     8.0000 </r>
       <r>   -25.2850     0.0000     8.0000 </r>
       <r>   -25.1188     0.0000     8.0000 </r>
       <r>   -24.9526     0.0000     8.0000 </r>
       <r>   -24.7864     0.0000     8.0000 </r>
       <r>   -24.6202     0.0000     8.0000 </r>
       <r>   -24.4540     0.0000     8.0000 </r>
       <r>   -24.2877     0.0000     8.0000 </r>
       <r>   -24.1215     0.0000     8.0000 </r>
       <r>   -23.9553     0.0000     8.0000 </r>
       <r>   -23.7891     0.0000     8.0000 </r>
       <r>   -23.6229     0.0000     8.0000 </r>
       <r>   -23.4567     0.0000     8.0000 </r>
       <r>   -23.2905     0.0000     8.0000 </r>
       <r>   -23.1243     0.0000     8.0000 </r>
       <r>   -22.9581     0.0000     8.0000 </r>
       <r>   -22.7918     0.0000     8.0000 </r>
       <r>   -22.6256     0.0000     8.0000 </r>
       <r>   -22.4594     0.0000     8.0000 </r>
       <r>   -22.2932     0.0000     8.0000 </r>
       <r>   -22.1270     0.0000     8.0000 </r>
       <r>   -21.9608     0.0000     8.0000 </r>
       <r>   -21.7946     0.0000     8.0000 </r>
       <r>   -21.6284     0.0000     8.0000 </r>
       <r>   -21.4622     0.0000     8.0000 </r>
       <r>   -21.2959     0.0000     8.0000 </r>
       <r>   -21.1297     0.0000     8.0000 </r>
       <r>   -20.9635     0.0000     8.0000 </r>
       <r>   -20.7973     0.0000     8.0000 </r>
       <r>   -20.6311     0.0000     8.0000 </r>
       <r>   -20.4649     0.0000     8.0000 </r>
       <r>   -20.2987     0.0000     8.0000 </r>
       <r>   -20.1325     0.0000     8.0000 </r>
       <r>   -19.9662     0.0000     8.0000 </r>
       <r>   -19.8000     0.0000     8.0000 </r>
       <r>   -19.6338     0.0000     8.0000 </r>
       <r>   -19.4676     0.0000     8.0000 </r>
       <r>   -19.3014     0.0000     8.0000 </r>
       <r>   -19.1352     0.0000     8.0000 </r>
       <r>   -18.9690     0.0000     8.0000 </r>
       <r>   -18.8028     0.0000     8.0000 </r>
       <r>   -18.6366     0.0000     8.0000 </r>
       <r>   -18.4703     0.0000     8.0000 </r>
       <r>   -18.3041     0.0000     8.0000 </r>
       <r>   -18.1379     0.0000     8.0000 </r>
       <r>   -17.9717     0.0000     8.0000 </r>
       <r>   -17.8055     0.0000     8.0000 </r>
       <r>   -17.6393     0.0000     8.0000 </r>
       <r>   -17.4731     0.0000     8.0000 </r>
       <r>   -17.3069     0.0000     8.0000 </r>
       <r>   -17.1407     0.1080     8.0179 </r>
       <r>   -16.9744    53.6509    16.9353 </r>
       <r>   -16.8082    90.1832    31.9248 </r>
       <r>   -16.6420     0.4524    32.0000 </r>
       <r>   -16.4758     0.0000    32.0000 </r>
       <r>   -16.3096     0.0000    32.0000 </r>
       <r>   -16.1434     0.0000    32.0000 </r>
       <r>   -15.9772     0.0000    32.0000 </r>
       <r>   -15.8110     0.0000    32.0000 </r>
       <r>   -15.6448     0.0000    32.0000 </r>
       <r>   -15.4785     0.0000    32.0000 </r>
       <r>   -15.3123     0.0000    32.0000 </r>
       <r>   -15.1461     0.0000    32.0000 </r>
       <r>   -14.9799     0.0000    32.0000 </r>
       <r>   -14.8137     0.0000    32.0000 </r>
       <r>   -14.6475     0.0000    32.0000 </r>
       <r>   -14.4813     0.0000    32.0000 </r>
       <r>   -14.3151     0.0000    32.0000 </r>
       <r>   -14.1489     0.0000    32.0000 </r>
       <r>   -13.9826     0.0000    32.0000 </r>
       <r>   -13.8164     0.0000    32.0000 </r>
       <r>   -13.6502     0.0000    32.0000 </r>
       <r>   -13.4840     0.0000    32.0000 </r>
       <r>   -13.3178     0.0000    32.0000 </r>
       <r>   -13.1516     0.0000    32.0000 </r>
       <r>   -12.9854     0.0000    32.0000 </r>
       <r>   -12.8192     0.0000    32.0000 </r>
       <r>   -12.6530     0.0000    32.0000 </r>
       <r>   -12.4867     0.0000    32.0000 </r>
       <r>   -12.3205     0.0000    32.0000 </r>
       <r>   -12.1543     0.0000    32.0000 </r>
       <r>   -11.9881     0.0000    32.0000 </r>
       <r>   -11.8219     0.0000    32.0000 </r>
       <r>   -11.6557     0.0000    32.0000 </r>
       <r>   -11.4895     0.0000    32.0000 </r>
       <r>   -11.3233     0.0000    32.0000 </r>
       <r>   -11.1570     0.0000    32.0000 </r>
       <r>   -10.9908     0.0000    32.0000 </r>
       <r>   -10.8246     0.0000    32.0000 </r>
       <r>   -10.6584     0.0000    32.0000 </r>
       <r>   -10.4922     0.0000    32.0000 </r>
       <r>   -10.3260     0.0000    32.0000 </r>
       <r>   -10.1598     0.0000    32.0000 </r>
       <r>    -9.9936     0.0000    32.0000 </r>
       <r>    -9.8274     0.0000    32.0000 </r>
       <r>    -9.6611     0.0000    32.0000 </r>
       <r>    -9.4949     0.0000    32.0000 </r>
       <r>    -9.3287     0.0000    32.0000 </r>
       <r>    -9.1625     0.0000    32.0000 </r>
       <r>    -8.9963     0.0000    32.0000 </r>
       <r>    -8.8301     0.0000    32.0000 </r>
       <r>    -8.6639     0.0000    32.0000 </r>
       <r>    -8.4977     0.0000    32.0000 </r>
       <r>    -8.3315     0.0000    32.0000 </r>
       <r>    -8.1652     0.0000    32.0000 </r>
       <r>    -7.9990     0.0000    32.0000 </r>
       <r>    -7.8328     0.0000    32.0000 </r>
       <r>    -7.6666     0.0000    32.0000 </r>
       <r>    -7.5004     0.0000    32.0000 </r>
       <r>    -7.3342     0.0000    32.0000 </r>
       <r>    -7.1680     0.0000    32.0000 </r>
       <r>    -7.0018     0.0000    32.0000 </r>
       <r>    -6.8356     0.0000    32.0000 </r>
       <r>    -6.6693     0.0000    32.0000 </r>
       <r>    -6.5031     0.0000    32.0000 </r>
       <r>    -6.3369     0.0000    32.0000 </r>
       <r>    -6.1707     0.0000    32.0000 </r>
       <r>    -6.0045     0.0000    32.0000 </r>
       <r>    -5.8383     0.0000    32.0000 </r>
       <r>    -5.6721     0.0000    32.0000 </r>
       <r>    -5.5059     0.0000    32.0000 </r>
       <r>    -5.3397     0.0000    32.0000 </r>
       <r>    -5.1734     0.0000    32.0000 </r>
       <r>    -5.0072     0.0000    32.0000 </r>
       <r>    -4.8410     0.0000    32.0000 </r>
       <r>    -4.6748     0.0000    32.0000 </r>
       <r>    -4.5086     0.0000    32.0000 </r>
       <r>    -4.3424     0.0000    32.0000 </r>
       <r>    -4.1762     0.0000    32.0000 </r>
       <r>    -4.0100     0.0000    32.0000 </r>
       <r>    -3.8438     0.0000    32.0000 </r>
       <r>    -3.6775     0.0000    32.0000 </r>
       <r>    -3.5113     0.0000    32.0000 </r>
       <r>    -3.3451     0.0000    32.0000 </r>
       <r>    -3.1789     0.0000    32.0000 </r>
       <r>    -3.0127     0.0000    32.0000 </r>
       <r>    -2.8465     0.0000    32.0000 </r>
       <r>    -2.6803     0.0000    32.0000 </r>
       <r>    -2.5141     0.0000    32.0000 </r>
       <r>    -2.3479     0.0000    32.0000 </r>
       <r>    -2.1816     0.0000    32.0000 </r>
       <r>    -2.0154     0.7327    32.1218 </r>
       <r>    -1.8492     1.2244    32.3253 </r>
       <r>    -1.6830     0.6919    32.4403 </r>
       <r>    -1.5168     0.5515    32.5319 </r>
       <r>    -1.3506     0.4778    32.6114 </r>
       <r>    -1.1844     0.4309    32.6830 </r>
       <r>    -1.0182     0.3981    32.7492 </r>
       <r>    -0.8519     0.3746    32.8114 </r>
       <r>    -0.6857     0.3571    32.8708 </r>
       <r>    -0.5195     0.3448    32.9281 </r>
       <r>    -0.3533     1.1740    33.1232 </r>
       <r>    -0.1871     1.6646    33.3999 </r>
       <r>    -0.0209     1.3653    33.6268 </r>
       <r>     0.1453     1.2435    33.8335 </r>
       <r>     0.3115     6.6271    34.9350 </r>
       <r>     0.4777     9.5237    36.5180 </r>
       <r>     0.6440     4.1520    37.2081 </r>
       <r>     0.8102     3.5484    37.7978 </r>
       <r>     0.9764     6.5478    38.8862 </r>
       <r>     1.1426     3.3695    39.4462 </r>
       <r>     1.3088     1.2283    39.6504 </r>
       <r>     1.4750     1.1642    39.8439 </r>
       <r>     1.6412     1.3924    40.0753 </r>
       <r>     1.8074     2.2558    40.4502 </r>
       <r>     1.9736     7.3652    41.6744 </r>
       <r>     2.1399    12.5366    43.7581 </r>
       <r>     2.3061     6.7592    44.8816 </r>
       <r>     2.4723    12.1222    46.8965 </r>
       <r>     2.6385     6.0816    47.9073 </r>
       <r>     2.8047    12.8211    50.0383 </r>
       <r>     2.9709     8.8365    51.5070 </r>
       <r>     3.1371     6.0412    52.5111 </r>
       <r>     3.3033     6.5948    53.6073 </r>
       <r>     3.4695     3.4361    54.1784 </r>
       <r>     3.6358     1.9852    54.5084 </r>
       <r>     3.8020     2.2454    54.8816 </r>
       <r>     3.9682     3.5697    55.4749 </r>
       <r>     4.1344     9.2093    57.0056 </r>
       <r>     4.3006    11.5853    58.9312 </r>
       <r>     4.4668    11.2880    60.8074 </r>
       <r>     4.6330     5.1764    61.6677 </r>
       <r>     4.7992     2.7848    62.1306 </r>
       <r>     4.9654     2.5171    62.5490 </r>
       <r>     5.1317     3.1165    63.0670 </r>
       <r>     5.2979     8.5530    64.4886 </r>
       <r>     5.4641    10.6403    66.2571 </r>
       <r>     5.6303     8.9819    67.7500 </r>
       <r>     5.7965     9.7175    69.3652 </r>
       <r>     5.9627     7.3948    70.5943 </r>
       <r>     6.1289     5.1721    71.4540 </r>
       <r>     6.2951     6.1139    72.4702 </r>
       <r>     6.4613     6.7311    73.5889 </r>
       <r>     6.6276     6.7228    74.7064 </r>
       <r>     6.7938    29.0693    79.5380 </r>
       <r>     6.9600     4.6442    80.3099 </r>
       <r>     7.1262     4.5574    81.0674 </r>
       <r>     7.2924     9.7737    82.6919 </r>
       <r>     7.4586    10.1903    84.3856 </r>
       <r>     7.6248     7.9797    85.7120 </r>
       <r>     7.7910     9.2906    87.2562 </r>
       <r>     7.9572     4.5939    88.0197 </r>
       <r>     8.1235     3.5846    88.6155 </r>
       <r>     8.2897     2.3168    89.0006 </r>
       <r>     8.4559     2.6967    89.4488 </r>
       <r>     8.6221     2.4627    89.8582 </r>
       <r>     8.7883     1.9893    90.1888 </r>
       <r>     8.9545     2.1310    90.5430 </r>
       <r>     9.1207     2.2303    90.9137 </r>
       <r>     9.2869     2.8926    91.3945 </r>
       <r>     9.4532     6.3103    92.4433 </r>
       <r>     9.6194    12.1161    94.4571 </r>
       <r>     9.7856     6.2566    95.4971 </r>
       <r>     9.9518     1.6672    95.7742 </r>
       <r>    10.1180     0.6977    95.8901 </r>
       <r>    10.2842     0.3110    95.9418 </r>
       <r>    10.4504     0.3497    95.9999 </r>
       <r>    10.6166     0.0004    96.0000 </r>
       <r>    10.7828     0.0000    96.0000 </r>
       <r>    10.9491     0.0000    96.0000 </r>
       <r>    11.1153     0.0000    96.0000 </r>
       <r>    11.2815     0.0000    96.0000 </r>
       <r>    11.4477     0.0000    96.0000 </r>
       <r>    11.6139     0.0000    96.0000 </r>
       <r>    11.7801     0.0000    96.0000 </r>
       <r>    11.9463     0.0000    96.0000 </r>
       <r>    12.1125     0.0000    96.0000 </r>
       <r>    12.2787     0.0000    96.0000 </r>
       <r>    12.4450     0.0000    96.0000 </r>
       <r>    12.6112     0.0000    96.0000 </r>
      </set>
     </set>
    </array>
   </total>
  </dos>
  <eigenvalues_kpoints_opt comment="kpoints_opt">
   <kpoints>
    <varray name="kpointlist" >
     <v>       0.00000000       0.00000000       0.00000000 </v>
     <v>       0.01041667       0.00000000       0.01041667 </v>
     <v>       0.02083333       0.00000000       0.02083333 </v>
     <v>       0.03125000       0.00000000       0.03125000 </v>
     <v>       0.04166667       0.00000000       0.04166667 </v>
     <v>       0.05208333       0.00000000       0.05208333 </v>
     <v>       0.06250000       0.00000000       0.06250000 </v>
     <v>       0.07291667       0.00000000       0.07291667 </v>
     <v>       0.08333333       0.00000000       0.08333333 </v>
     <v>       0.09375000       0.00000000       0.09375000 </v>
     <v>       0.10416667       0.00000000       0.10416667 </v>
     <v>       0.11458333       0.00000000       0.11458333 </v>
     <v>       0.12500000       0.00000000       0.12500000 </v>
     <v>       0.13541667       0.00000000       0.13541667 </v>
     <v>       0.14583333       0.00000000       0.14583333 </v>
     <v>       0.15625000       0.00000000       0.15625000 </v>
     <v>       0.16666667       0.00000000       0.16666667 </v>
     <v>       0.17708333       0.00000000       0.17708333 </v>
     <v>       0.18750000       0.00000000       0.18750000 </v>
     <v>       0.19791667       0.00000000       0.19791667 </v>
     <v>       0.20833333       0.00000000       0.20833333 </v>
     <v>       0.21875000       0.00000000       0.21875000 </v>
     <v>       0.22916667       0.00000000       0.22916667 </v>
     <v>       0.23958333       0.00000000       0.23958333 </v>
     <v>       0.25000000       0.00000000       0.25000000 </v>
     <v>       0.26041667       0.00000000       0.26041667 </v>
     <v>       0.27083333       0.00000000       0.27083333 </v>
     <v>       0.28125000       0.00000000       0.28125000 </v>
     <v>       0.29166667       0.00000000       0.29166667 </v>
     <v>       0.30208333       0.00000000       0.30208333 </v>
     <v>       0.31250000       0.00000000       0.31250000 </v>
     <v>       0.32291667       0.00000000       0.32291667 </v>
     <v>       0.33333333       0.00000000       0.33333333 </v>
     <v>       0.34375000       0.00000000       0.34375000 </v>
     <v>       0.35416667       0.00000000       0.35416667 </v>
     <v>       0.36458333       0.00000000       0.36458333 </v>
     <v>       0.37500000       0.00000000       0.37500000 </v>
     <v>       0.38541667       0.00000000       0.38541667 </v>
     <v>       0.39583333       0.00000000       0.39583333 </v>
     <v>       0.40625000       0.00000000       0.40625000 </v>
     <v>       0.41666667       0.00000000       0.41666667 </v>
     <v>       0.42708333       0.00000000       0.42708333 </v>
     <v>       0.43750000       0.00000000       0.43750000 </v>
     <v>       0.44791667       0.00000000       0.44791667 </v>
     <v>       0.45833333       0.00000000       0.45833333 </v>
     <v>       0.46875000       0.00000000       0.46875000 </v>
     <v>       0.47916667       0.00000000       0.47916667 </v>
     <v>       0.48958333       0.00000000       0.48958333 </v>
     <v>       0.50000000       0.00000000       0.50000000 </v>
     <v>       0.50000000       0.00000000       0.50000000 </v>
     <v>       0.50260417       0.00520833       0.50260417 </v>
     <v>       0.50520833       0.01041667       0.50520833 </v>
     <v>       0.50781250       0.01562500       0.50781250 </v>
     <v>       0.51041667       0.02083333       0.51041667 </v>
     <v>       0.51302083       0.02604167       0.51302083 </v>
     <v>       0.51562500       0.03125000       0.51562500 </v>
     <v>       0.51822917       0.03645833       0.51822917 </v>
     <v>       0.52083333       0.04166667       0.52083333 </v>
     <v>       0.52343750       0.04687500       0.52343750 </v>
     <v>       0.52604167       0.05208333       0.52604167 </v>
     <v>       0.52864583       0.05729167       0.52864583 </v>
     <v>       0.53125000       0.06250000       0.53125000 </v>
     <v>       0.53385417       0.06770833       0.53385417 </v>
     <v>       0.53645833       0.07291667       0.53645833 </v>
     <v>       0.53906250       0.07812500       0.53906250 </v>
     <v>       0.54166667       0.08333333       0.54166667 </v>
     <v>       0.54427083       0.08854167       0.54427083 </v>
     <v>       0.54687500       0.09375000       0.54687500 </v>
     <v>       0.54947917       0.09895833       0.54947917 </v>
     <v>       0.55208333       0.10416667       0.55208333 </v>
     <v>       0.55468750       0.10937500       0.55468750 </v>
     <v>       0.55729167       0.11458333       0.55729167 </v>
     <v>       0.55989583       0.11979167       0.55989583 </v>
     <v>       0.56250000       0.12500000       0.56250000 </v>
     <v>       0.56510417       0.13020833       0.56510417 </v>
     <v>       0.56770833       0.13541667       0.56770833 </v>
     <v>       0.57031250       0.14062500       0.57031250 </v>
     <v>       0.57291667       0.14583333       0.57291667 </v>
     <v>       0.57552083       0.15104167       0.57552083 </v>
     <v>       0.57812500       0.15625000       0.57812500 </v>
     <v>       0.58072917       0.16145833       0.58072917 </v>
     <v>       0.58333333       0.16666667       0.58333333 </v>
     <v>       0.58593750       0.17187500       0.58593750 </v>
     <v>       0.58854167       0.17708333       0.58854167 </v>
     <v>       0.59114583       0.18229167       0.59114583 </v>
     <v>       0.59375000       0.18750000       0.59375000 </v>
     <v>       0.59635417       0.19270833       0.59635417 </v>
     <v>       0.59895833       0.19791667       0.59895833 </v>
     <v>       0.60156250       0.20312500       0.60156250 </v>
     <v>       0.60416667       0.20833333       0.60416667 </v>
     <v>       0.60677083       0.21354167       0.60677083 </v>
     <v>       0.60937500       0.21875000       0.60937500 </v>
     <v>       0.61197917       0.22395833       0.61197917 </v>
     <v>       0.61458333       0.22916667       0.61458333 </v>
     <v>       0.61718750       0.23437500       0.61718750 </v>
     <v>       0.61979167       0.23958333       0.61979167 </v>
     <v>       0.62239583       0.24479167       0.62239583 </v>
     <v>       0.62500000       0.25000000       0.62500000 </v>
     <v>       0.62500000       0.25000000       0.62500000 </v>
     <v>       0.61197917       0.24479167       0.61197917 </v>
     <v>       0.59895833       0.23958333       0.59895833 </v>
     <v>       0.58593750       0.23437500       0.58593750 </v>
     <v>       0.57291667       0.22916667       0.57291667 </v>
     <v>       0.55989583       0.22395833       0.55989583 </v>
     <v>       0.54687500       0.21875000       0.54687500 </v>
     <v>       0.53385417       0.21354167       0.53385417 </v>
     <v>       0.52083333       0.20833333       0.52083333 </v>
     <v>       0.50781250       0.20312500       0.50781250 </v>
     <v>       0.49479167       0.19791667       0.49479167 </v>
     <v>       0.48177083       0.19270833       0.48177083 </v>
     <v>       0.46875000       0.18750000       0.46875000 </v>
     <v>       0.45572917       0.18229167       0.45572917 </v>
     <v>       0.44270833       0.17708333       0.44270833 </v>
     <v>       0.42968750       0.17187500       0.42968750 </v>
     <v>       0.41666667       0.16666667       0.41666667 </v>
     <v>       0.40364583       0.16145833       0.40364583 </v>
     <v>       0.39062500       0.15625000       0.39062500 </v>
     <v>       0.37760417       0.15104167       0.37760417 </v>
     <v>       0.36458333       0.14583333       0.36458333 </v>
     <v>       0.35156250       0.14062500       0.35156250 </v>
     <v>       0.33854167       0.13541667       0.33854167 </v>
     <v>       0.32552083       0.13020833       0.32552083 </v>
     <v>       0.31250000       0.12500000       0.31250000 </v>
     <v>       0.29947917       0.11979167       0.29947917 </v>
     <v>       0.28645833       0.11458333       0.28645833 </v>
     <v>       0.27343750       0.10937500       0.27343750 </v>
     <v>       0.26041667       0.10416667       0.26041667 </v>
     <v>       0.24739583       0.09895833       0.24739583 </v>
     <v>       0.23437500       0.09375000       0.23437500 </v>
     <v>       0.22135417       0.08854167       0.22135417 </v>
     <v>       0.20833333       0.08333333       0.20833333 </v>
     <v>       0.19531250       0.07812500       0.19531250 </v>
     <v>       0.18229167       0.07291667       0.18229167 </v>
     <v>       0.16927083       0.06770833       0.16927083 </v>
     <v>       0.15625000       0.06250000       0.15625000 </v>
     <v>       0.14322917       0.05729167       0.14322917 </v>
     <v>       0.13020833       0.05208333       0.13020833 </v>
     <v>       0.11718750       0.04687500       0.11718750 </v>
     <v>       0.10416667       0.04166667       0.10416667 </v>
     <v>       0.09114583       0.03645833       0.09114583 </v>
     <v>       0.07812500       0.03125000       0.07812500 </v>
     <v>       0.06510417       0.02604167       0.06510417 </v>
     <v>       0.05208333       0.02083333       0.05208333 </v>
     <v>       0.03906250       0.01562500       0.03906250 </v>
     <v>       0.02604167       0.01041667       0.02604167 </v>
     <v>       0.01302083       0.00520833       0.01302083 </v>
     <v>      -0.00000000       0.00000000      -0.00000000 </v>
    </varray>
    <varray name="weights" >
     <v>       0.00680272 </v>
     <v>       0.00680272 </v>
     <v>       0.00680272 </v>
     <v>       0.00680272 </v>
     <v>       0.00680272 </v>
     <v>       0.00680272 </v>
     <v>       0.00680272 </v>
     <v>       0.00680272 </v>
     <v>       0.00680272 </v>
     <v>       0.00680272 </v>
     <v>       0.00680272 </v>
     <v>       0.00680272 </v>
     <v>       0.00680272 </v>
     <v>       0.00680272 </v>
     <v>       0.00680272 </v>
     <v>       0.00680272 </v>
     <v>       0.00680272 </v>
     <v>       0.00680272 </v>
     <v>       0.00680272 </v>
     <v>       0.00680272 </v>
     <v>       0.00680272 </v>
     <v>       0.00680272 </v>
     <v>       0.00680272 </v>
     <v>       0.00680272 </v>
     <v>       0.00680272 </v>
     <v>       0.00680272 </v>
     <v>       0.00680272 </v>
     <v>       0.00680272 </v>
     <v>       0.00680272 </v>
     <v>       0.00680272 </v>
     <v>       0.00680272 </v>
     <v>       0.00680272 </v>
     <v>       0.00680272 </v>
     <v>       0.00680272 </v>
     <v>       0.00680272 </v>
     <v>       0.00680272 </v>
     <v>       0.00680272 </v>
     <v>       0.00680272 </v>
     <v>       0.00680272 </v>
     <v>       0.00680272 </v>
     <v>       0.00680272 </v>
     <v>       0.00680272 </v>
     <v>       0.00680272 </v>
     <v>       0.00680272 </v>
     <v>       0.00680272 </v>
     <v>       0.00680272 </v>
     <v>       0.00680272 </v>
     <v>       0.00680272 </v>
     <v>       0.00680272 </v>
     <v>       0.00680272 </v>
     <v>       0.00680272 </v>
     <v>       0.00680272 </v>
     <v>       0.00680272 </v>
     <v>       0.00680272 </v>
     <v>       0.00680272 </v>
     <v>       0.00680272 </v>
     <v>       0.00680272 </v>
     <v>       0.00680272 </v>
     <v>       0.00680272 </v>
     <v>       0.00680272 </v>
     <v>       0.00680272 </v>
     <v>       0.00680272 </v>
     <v>       0.00680272 </v>
     <v>       0.00680272 </v>
     <v>       0.00680272 </v>
     <v>       0.00680272 </v>
     <v>       0.00680272 </v>
     <v>       0.00680272 </v>
     <v>       0.00680272 </v>
     <v>       0.00680272 </v>
     <v>       0.00680272 </v>
     <v>       0.00680272 </v>
     <v>       0.00680272 </v>
     <v>       0.00680272 </v>
     <v>       0.00680272 </v>
     <v>       0.00680272 </v>
     <v>       0.00680272 </v>
     <v>       0.00680272 </v>
     <v>       0.00680272 </v>
     <v>       0.00680272 </v>
     <v>       0.00680272 </v>
     <v>       0.00680272 </v>
     <v>       0.00680272 </v>
     <v>       0.00680272 </v>
     <v>       0.00680272 </v>
     <v>       0.00680272 </v>
     <v>       0.00680272 </v>
     <v>       0.00680272 </v>
     <v>       0.00680272 </v>
     <v>       0.00680272 </v>
     <v>       0.00680272 </v>
     <v>       0.00680272 </v>
     <v>       0.00680272 </v>
     <v>       0.00680272 </v>
     <v>       0.00680272 </v>
     <v>       0.00680272 </v>
     <v>       0.00680272 </v>
     <v>       0.00680272 </v>
     <v>       0.00680272 </v>
     <v>       0.00680272 </v>
     <v>       0.00680272 </v>
     <v>       0.00680272 </v>
     <v>       0.00680272 </v>
     <v>       0.00680272 </v>
     <v>       0.00680272 </v>
     <v>       0.00680272 </v>
     <v>       0.00680272 </v>
     <v>       0.00680272 </v>
     <v>       0.00680272 </v>
     <v>       0.00680272 </v>
     <v>       0.00680272 </v>
     <v>       0.00680272 </v>
     <v>       0.00680272 </v>
     <v>       0.00680272 </v>
     <v>       0.00680272 </v>
     <v>       0.00680272 </v>
     <v>       0.00680272 </v>
     <v>       0.00680272 </v>
     <v>       0.00680272 </v>
     <v>       0.00680272 </v>
     <v>       0.00680272 </v>
     <v>       0.00680272 </v>
     <v>       0.00680272 </v>
     <v>       0.00680272 </v>
     <v>       0.00680272 </v>
     <v>       0.00680272 </v>
     <v>       0.00680272 </v>
     <v>       0.00680272 </v>
     <v>       0.00680272 </v>
     <v>       0.00680272 </v>
     <v>       0.00680272 </v>
     <v>       0.00680272 </v>
     <v>       0.00680272 </v>
     <v>       0.00680272 </v>
     <v>       0.00680272 </v>
     <v>       0.00680272 </v>
     <v>       0.00680272 </v>
     <v>       0.00680272 </v>
     <v>       0.00680272 </v>
     <v>       0.00680272 </v>
     <v>       0.00680272 </v>
     <v>       0.00680272 </v>
     <v>       0.00680272 </v>
     <v>       0.00680272 </v>
     <v>       0.00680272 </v>
     <v>       0.00680272 </v>
     <v>       0.00680272 </v>
    </varray>
   </kpoints>
   <eigenvalues>
    <array>
     <dimension dim="1">band</dimension>
     <dimension dim="2">kpoint</dimension>
     <dimension dim="3">spin</dimension>
     <field>eigene</field>
     <set>
      <set comment="spin 1">
       <set comment="kpoint 1">
        <r>  -34.9858 </r>
        <r>  -34.9666 </r>
        <r>  -34.9666 </r>
        <r>  -34.9666 </r>
        <r>  -17.0609 </r>
        <r>  -17.0609 </r>
        <r>  -17.0609 </r>
        <r>  -16.9446 </r>
        <r>  -16.9446 </r>
        <r>  -16.9446 </r>
        <r>  -16.9446 </r>
        <r>  -16.9446 </r>
        <r>  -16.9446 </r>
        <r>  -16.8710 </r>
        <r>  -16.8710 </r>
        <r>  -16.8710 </r>
        <r>   -2.0466 </r>
        <r>    0.9621 </r>
        <r>    0.9621 </r>
        <r>    0.9621 </r>
        <r>    1.9519 </r>
        <r>    1.9519 </r>
        <r>    1.9519 </r>
        <r>    2.6858 </r>
        <r>    2.6858 </r>
        <r>    2.6858 </r>
        <r>    3.9674 </r>
        <r>    3.9674 </r>
        <r>    3.9674 </r>
        <r>    5.4476 </r>
        <r>    5.4476 </r>
        <r>    6.5061 </r>
        <r>    6.5061 </r>
        <r>    6.5061 </r>
        <r>    6.8054 </r>
        <r>    6.8054 </r>
        <r>    6.8054 </r>
        <r>    6.8054 </r>
        <r>    6.8054 </r>
        <r>    6.8054 </r>
        <r>    6.9657 </r>
        <r>    6.9657 </r>
        <r>    6.9657 </r>
        <r>    6.9657 </r>
        <r>    6.9657 </r>
        <r>    6.9657 </r>
        <r>    7.5195 </r>
        <r>    7.5195 </r>
       </set>
       <set comment="kpoint 2">
        <r>  -34.9858 </r>
        <r>  -34.9666 </r>
        <r>  -34.9666 </r>
        <r>  -34.9666 </r>
        <r>  -17.0608 </r>
        <r>  -17.0608 </r>
        <r>  -17.0608 </r>
        <r>  -16.9447 </r>
        <r>  -16.9446 </r>
        <r>  -16.9446 </r>
        <r>  -16.9445 </r>
        <r>  -16.9445 </r>
        <r>  -16.9445 </r>
        <r>  -16.8712 </r>
        <r>  -16.8710 </r>
        <r>  -16.8710 </r>
        <r>   -2.0454 </r>
        <r>    0.9615 </r>
        <r>    0.9615 </r>
        <r>    0.9631 </r>
        <r>    1.9521 </r>
        <r>    1.9524 </r>
        <r>    1.9524 </r>
        <r>    2.6852 </r>
        <r>    2.6857 </r>
        <r>    2.6857 </r>
        <r>    3.9654 </r>
        <r>    3.9679 </r>
        <r>    3.9680 </r>
        <r>    5.4460 </r>
        <r>    5.4474 </r>
        <r>    6.4905 </r>
        <r>    6.4975 </r>
        <r>    6.4975 </r>
        <r>    6.7840 </r>
        <r>    6.7840 </r>
        <r>    6.7851 </r>
        <r>    6.7851 </r>
        <r>    6.8044 </r>
        <r>    6.8070 </r>
        <r>    6.9497 </r>
        <r>    6.9826 </r>
        <r>    6.9873 </r>
        <r>    6.9873 </r>
        <r>    6.9879 </r>
        <r>    6.9879 </r>
        <r>    7.5295 </r>
        <r>    7.5317 </r>
       </set>
       <set comment="kpoint 3">
        <r>  -34.9858 </r>
        <r>  -34.9666 </r>
        <r>  -34.9666 </r>
        <r>  -34.9666 </r>
        <r>  -17.0606 </r>
        <r>  -17.0606 </r>
        <r>  -17.0606 </r>
        <r>  -16.9449 </r>
        <r>  -16.9446 </r>
        <r>  -16.9446 </r>
        <r>  -16.9445 </r>
        <r>  -16.9445 </r>
        <r>  -16.9444 </r>
        <r>  -16.8717 </r>
        <r>  -16.8712 </r>
        <r>  -16.8711 </r>
        <r>   -2.0418 </r>
        <r>    0.9598 </r>
        <r>    0.9598 </r>
        <r>    0.9664 </r>
        <r>    1.9529 </r>
        <r>    1.9538 </r>
        <r>    1.9538 </r>
        <r>    2.6835 </r>
        <r>    2.6853 </r>
        <r>    2.6853 </r>
        <r>    3.9595 </r>
        <r>    3.9696 </r>
        <r>    3.9698 </r>
        <r>    5.4415 </r>
        <r>    5.4468 </r>
        <r>    6.4492 </r>
        <r>    6.4703 </r>
        <r>    6.4703 </r>
        <r>    6.7379 </r>
        <r>    6.7379 </r>
        <r>    6.7481 </r>
        <r>    6.7481 </r>
        <r>    6.8017 </r>
        <r>    6.8119 </r>
        <r>    6.9062 </r>
        <r>    7.0280 </r>
        <r>    7.0299 </r>
        <r>    7.0299 </r>
        <r>    7.0367 </r>
        <r>    7.0367 </r>
        <r>    7.5595 </r>
        <r>    7.5604 </r>
       </set>
       <set comment="kpoint 4">
        <r>  -34.9857 </r>
        <r>  -34.9666 </r>
        <r>  -34.9666 </r>
        <r>  -34.9666 </r>
        <r>  -17.0603 </r>
        <r>  -17.0602 </r>
        <r>  -17.0602 </r>
        <r>  -16.9454 </r>
        <r>  -16.9447 </r>
        <r>  -16.9447 </r>
        <r>  -16.9444 </r>
        <r>  -16.9444 </r>
        <r>  -16.9443 </r>
        <r>  -16.8724 </r>
        <r>  -16.8714 </r>
        <r>  -16.8712 </r>
        <r>   -2.0359 </r>
        <r>    0.9570 </r>
        <r>    0.9570 </r>
        <r>    0.9717 </r>
        <r>    1.9542 </r>
        <r>    1.9563 </r>
        <r>    1.9563 </r>
        <r>    2.6807 </r>
        <r>    2.6847 </r>
        <r>    2.6847 </r>
        <r>    3.9499 </r>
        <r>    3.9724 </r>
        <r>    3.9729 </r>
        <r>    5.4340 </r>
        <r>    5.4458 </r>
        <r>    6.3921 </r>
        <r>    6.4232 </r>
        <r>    6.4232 </r>
        <r>    6.6841 </r>
        <r>    6.6841 </r>
        <r>    6.7175 </r>
        <r>    6.7175 </r>
        <r>    6.7971 </r>
        <r>    6.8201 </r>
        <r>    6.8440 </r>
        <r>    7.0717 </r>
        <r>    7.0717 </r>
        <r>    7.0918 </r>
        <r>    7.0948 </r>
        <r>    7.0948 </r>
        <r>    7.6093 </r>
        <r>    7.6096 </r>
       </set>
       <set comment="kpoint 5">
        <r>  -34.9856 </r>
        <r>  -34.9667 </r>
        <r>  -34.9667 </r>
        <r>  -34.9666 </r>
        <r>  -17.0599 </r>
        <r>  -17.0596 </r>
        <r>  -17.0596 </r>
        <r>  -16.9461 </r>
        <r>  -16.9448 </r>
        <r>  -16.9448 </r>
        <r>  -16.9443 </r>
        <r>  -16.9443 </r>
        <r>  -16.9441 </r>
        <r>  -16.8733 </r>
        <r>  -16.8717 </r>
        <r>  -16.8713 </r>
        <r>   -2.0277 </r>
        <r>    0.9531 </r>
        <r>    0.9531 </r>
        <r>    0.9792 </r>
        <r>    1.9559 </r>
        <r>    1.9597 </r>
        <r>    1.9597 </r>
        <r>    2.6767 </r>
        <r>    2.6839 </r>
        <r>    2.6839 </r>
        <r>    3.9365 </r>
        <r>    3.9762 </r>
        <r>    3.9772 </r>
        <r>    5.4236 </r>
        <r>    5.4446 </r>
        <r>    6.3266 </r>
        <r>    6.3588 </r>
        <r>    6.3588 </r>
        <r>    6.6281 </r>
        <r>    6.6281 </r>
        <r>    6.6987 </r>
        <r>    6.6987 </r>
        <r>    6.7706 </r>
        <r>    6.7906 </r>
        <r>    6.8315 </r>
        <r>    7.1062 </r>
        <r>    7.1062 </r>
        <r>    7.1568 </r>
        <r>    7.1568 </r>
        <r>    7.1666 </r>
        <r>    7.6771 </r>
        <r>    7.6810 </r>
       </set>
       <set comment="kpoint 6">
        <r>  -34.9856 </r>
        <r>  -34.9667 </r>
        <r>  -34.9667 </r>
        <r>  -34.9666 </r>
        <r>  -17.0593 </r>
        <r>  -17.0589 </r>
        <r>  -17.0589 </r>
        <r>  -16.9470 </r>
        <r>  -16.9449 </r>
        <r>  -16.9449 </r>
        <r>  -16.9441 </r>
        <r>  -16.9441 </r>
        <r>  -16.9438 </r>
        <r>  -16.8746 </r>
        <r>  -16.8721 </r>
        <r>  -16.8714 </r>
        <r>   -2.0170 </r>
        <r>    0.9480 </r>
        <r>    0.9480 </r>
        <r>    0.9888 </r>
        <r>    1.9580 </r>
        <r>    1.9640 </r>
        <r>    1.9640 </r>
        <r>    2.6717 </r>
        <r>    2.6830 </r>
        <r>    2.6830 </r>
        <r>    3.9195 </r>
        <r>    3.9810 </r>
        <r>    3.9827 </r>
        <r>    5.4104 </r>
        <r>    5.4430 </r>
        <r>    6.2570 </r>
        <r>    6.2833 </r>
        <r>    6.2833 </r>
        <r>    6.5717 </r>
        <r>    6.5717 </r>
        <r>    6.6893 </r>
        <r>    6.6893 </r>
        <r>    6.6907 </r>
        <r>    6.7823 </r>
        <r>    6.8460 </r>
        <r>    7.1329 </r>
        <r>    7.1329 </r>
        <r>    7.2210 </r>
        <r>    7.2210 </r>
        <r>    7.2484 </r>
        <r>    7.7600 </r>
        <r>    7.7631 </r>
       </set>
       <set comment="kpoint 7">
        <r>  -34.9854 </r>
        <r>  -34.9668 </r>
        <r>  -34.9668 </r>
        <r>  -34.9666 </r>
        <r>  -17.0587 </r>
        <r>  -17.0581 </r>
        <r>  -17.0581 </r>
        <r>  -16.9480 </r>
        <r>  -16.9450 </r>
        <r>  -16.9450 </r>
        <r>  -16.9439 </r>
        <r>  -16.9439 </r>
        <r>  -16.9435 </r>
        <r>  -16.8760 </r>
        <r>  -16.8725 </r>
        <r>  -16.8715 </r>
        <r>   -2.0041 </r>
        <r>    0.9417 </r>
        <r>    0.9417 </r>
        <r>    1.0004 </r>
        <r>    1.9604 </r>
        <r>    1.9693 </r>
        <r>    1.9693 </r>
        <r>    2.6656 </r>
        <r>    2.6819 </r>
        <r>    2.6819 </r>
        <r>    3.8991 </r>
        <r>    3.9867 </r>
        <r>    3.9895 </r>
        <r>    5.3945 </r>
        <r>    5.4413 </r>
        <r>    6.1853 </r>
        <r>    6.2015 </r>
        <r>    6.2015 </r>
        <r>    6.5155 </r>
        <r>    6.5155 </r>
        <r>    6.6072 </r>
        <r>    6.6860 </r>
        <r>    6.6860 </r>
        <r>    6.7722 </r>
        <r>    6.8638 </r>
        <r>    7.1533 </r>
        <r>    7.1533 </r>
        <r>    7.2867 </r>
        <r>    7.2867 </r>
        <r>    7.3348 </r>
        <r>    7.8370 </r>
        <r>    7.8544 </r>
       </set>
       <set comment="kpoint 8">
        <r>  -34.9853 </r>
        <r>  -34.9668 </r>
        <r>  -34.9668 </r>
        <r>  -34.9666 </r>
        <r>  -17.0579 </r>
        <r>  -17.0572 </r>
        <r>  -17.0572 </r>
        <r>  -16.9492 </r>
        <r>  -16.9451 </r>
        <r>  -16.9451 </r>
        <r>  -16.9437 </r>
        <r>  -16.9437 </r>
        <r>  -16.9431 </r>
        <r>  -16.8778 </r>
        <r>  -16.8730 </r>
        <r>  -16.8716 </r>
        <r>   -1.9888 </r>
        <r>    0.9343 </r>
        <r>    0.9343 </r>
        <r>    1.0142 </r>
        <r>    1.9630 </r>
        <r>    1.9756 </r>
        <r>    1.9756 </r>
        <r>    2.6586 </r>
        <r>    2.6808 </r>
        <r>    2.6808 </r>
        <r>    3.8754 </r>
        <r>    3.9932 </r>
        <r>    3.9974 </r>
        <r>    5.3762 </r>
        <r>    5.4394 </r>
        <r>    6.1130 </r>
        <r>    6.1169 </r>
        <r>    6.1169 </r>
        <r>    6.4599 </r>
        <r>    6.4599 </r>
        <r>    6.5221 </r>
        <r>    6.6865 </r>
        <r>    6.6865 </r>
        <r>    6.7603 </r>
        <r>    6.8846 </r>
        <r>    7.1693 </r>
        <r>    7.1693 </r>
        <r>    7.3534 </r>
        <r>    7.3534 </r>
        <r>    7.4245 </r>
        <r>    7.9077 </r>
        <r>    7.9572 </r>
       </set>
       <set comment="kpoint 9">
        <r>  -34.9852 </r>
        <r>  -34.9669 </r>
        <r>  -34.9669 </r>
        <r>  -34.9666 </r>
        <r>  -17.0570 </r>
        <r>  -17.0561 </r>
        <r>  -17.0561 </r>
        <r>  -16.9506 </r>
        <r>  -16.9453 </r>
        <r>  -16.9453 </r>
        <r>  -16.9434 </r>
        <r>  -16.9434 </r>
        <r>  -16.9428 </r>
        <r>  -16.8798 </r>
        <r>  -16.8736 </r>
        <r>  -16.8718 </r>
        <r>   -1.9712 </r>
        <r>    0.9257 </r>
        <r>    0.9257 </r>
        <r>    1.0299 </r>
        <r>    1.9656 </r>
        <r>    1.9827 </r>
        <r>    1.9827 </r>
        <r>    2.6507 </r>
        <r>    2.6797 </r>
        <r>    2.6797 </r>
        <r>    3.8488 </r>
        <r>    4.0002 </r>
        <r>    4.0066 </r>
        <r>    5.3555 </r>
        <r>    5.4376 </r>
        <r>    6.0315 </r>
        <r>    6.0315 </r>
        <r>    6.0407 </r>
        <r>    6.4050 </r>
        <r>    6.4050 </r>
        <r>    6.4365 </r>
        <r>    6.6894 </r>
        <r>    6.6894 </r>
        <r>    6.7466 </r>
        <r>    6.9085 </r>
        <r>    7.1824 </r>
        <r>    7.1824 </r>
        <r>    7.4210 </r>
        <r>    7.4210 </r>
        <r>    7.5169 </r>
        <r>    7.9758 </r>
        <r>    8.0661 </r>
       </set>
       <set comment="kpoint 10">
        <r>  -34.9850 </r>
        <r>  -34.9670 </r>
        <r>  -34.9670 </r>
        <r>  -34.9666 </r>
        <r>  -17.0560 </r>
        <r>  -17.0549 </r>
        <r>  -17.0549 </r>
        <r>  -16.9522 </r>
        <r>  -16.9455 </r>
        <r>  -16.9455 </r>
        <r>  -16.9430 </r>
        <r>  -16.9430 </r>
        <r>  -16.9423 </r>
        <r>  -16.8820 </r>
        <r>  -16.8743 </r>
        <r>  -16.8719 </r>
        <r>   -1.9513 </r>
        <r>    0.9160 </r>
        <r>    0.9160 </r>
        <r>    1.0477 </r>
        <r>    1.9682 </r>
        <r>    1.9907 </r>
        <r>    1.9907 </r>
        <r>    2.6419 </r>
        <r>    2.6787 </r>
        <r>    2.6787 </r>
        <r>    3.8194 </r>
        <r>    4.0078 </r>
        <r>    4.0170 </r>
        <r>    5.3326 </r>
        <r>    5.4358 </r>
        <r>    5.9463 </r>
        <r>    5.9463 </r>
        <r>    5.9690 </r>
        <r>    6.3511 </r>
        <r>    6.3511 </r>
        <r>    6.3515 </r>
        <r>    6.6940 </r>
        <r>    6.6940 </r>
        <r>    6.7312 </r>
        <r>    6.9353 </r>
        <r>    7.1939 </r>
        <r>    7.1939 </r>
        <r>    7.4893 </r>
        <r>    7.4893 </r>
        <r>    7.6113 </r>
        <r>    8.0418 </r>
        <r>    8.1792 </r>
       </set>
       <set comment="kpoint 11">
        <r>  -34.9848 </r>
        <r>  -34.9671 </r>
        <r>  -34.9671 </r>
        <r>  -34.9666 </r>
        <r>  -17.0548 </r>
        <r>  -17.0536 </r>
        <r>  -17.0536 </r>
        <r>  -16.9539 </r>
        <r>  -16.9457 </r>
        <r>  -16.9457 </r>
        <r>  -16.9427 </r>
        <r>  -16.9427 </r>
        <r>  -16.9417 </r>
        <r>  -16.8845 </r>
        <r>  -16.8750 </r>
        <r>  -16.8721 </r>
        <r>   -1.9291 </r>
        <r>    0.9050 </r>
        <r>    0.9050 </r>
        <r>    1.0674 </r>
        <r>    1.9705 </r>
        <r>    1.9996 </r>
        <r>    1.9996 </r>
        <r>    2.6323 </r>
        <r>    2.6778 </r>
        <r>    2.6778 </r>
        <r>    3.7875 </r>
        <r>    4.0156 </r>
        <r>    4.0286 </r>
        <r>    5.3077 </r>
        <r>    5.4343 </r>
        <r>    5.8623 </r>
        <r>    5.8623 </r>
        <r>    5.8981 </r>
        <r>    6.2678 </r>
        <r>    6.2981 </r>
        <r>    6.2981 </r>
        <r>    6.6997 </r>
        <r>    6.6997 </r>
        <r>    6.7140 </r>
        <r>    6.9651 </r>
        <r>    7.2045 </r>
        <r>    7.2045 </r>
        <r>    7.5582 </r>
        <r>    7.5582 </r>
        <r>    7.7077 </r>
        <r>    8.1042 </r>
        <r>    8.2953 </r>
       </set>
       <set comment="kpoint 12">
        <r>  -34.9846 </r>
        <r>  -34.9672 </r>
        <r>  -34.9672 </r>
        <r>  -34.9666 </r>
        <r>  -17.0535 </r>
        <r>  -17.0522 </r>
        <r>  -17.0522 </r>
        <r>  -16.9558 </r>
        <r>  -16.9460 </r>
        <r>  -16.9460 </r>
        <r>  -16.9422 </r>
        <r>  -16.9422 </r>
        <r>  -16.9412 </r>
        <r>  -16.8872 </r>
        <r>  -16.8759 </r>
        <r>  -16.8723 </r>
        <r>   -1.9047 </r>
        <r>    0.8928 </r>
        <r>    0.8928 </r>
        <r>    1.0890 </r>
        <r>    1.9723 </r>
        <r>    2.0093 </r>
        <r>    2.0093 </r>
        <r>    2.6221 </r>
        <r>    2.6772 </r>
        <r>    2.6772 </r>
        <r>    3.7533 </r>
        <r>    4.0234 </r>
        <r>    4.0414 </r>
        <r>    5.2811 </r>
        <r>    5.4333 </r>
        <r>    5.7799 </r>
        <r>    5.7799 </r>
        <r>    5.8282 </r>
        <r>    6.1859 </r>
        <r>    6.2462 </r>
        <r>    6.2462 </r>
        <r>    6.6952 </r>
        <r>    6.7060 </r>
        <r>    6.7060 </r>
        <r>    6.9978 </r>
        <r>    7.2147 </r>
        <r>    7.2148 </r>
        <r>    7.6276 </r>
        <r>    7.6276 </r>
        <r>    7.8056 </r>
        <r>    8.1630 </r>
        <r>    8.4135 </r>
       </set>
       <set comment="kpoint 13">
        <r>  -34.9844 </r>
        <r>  -34.9673 </r>
        <r>  -34.9673 </r>
        <r>  -34.9666 </r>
        <r>  -17.0522 </r>
        <r>  -17.0507 </r>
        <r>  -17.0507 </r>
        <r>  -16.9577 </r>
        <r>  -16.9462 </r>
        <r>  -16.9462 </r>
        <r>  -16.9418 </r>
        <r>  -16.9418 </r>
        <r>  -16.9405 </r>
        <r>  -16.8901 </r>
        <r>  -16.8768 </r>
        <r>  -16.8726 </r>
        <r>   -1.8780 </r>
        <r>    0.8794 </r>
        <r>    0.8794 </r>
        <r>    1.1125 </r>
        <r>    1.9734 </r>
        <r>    2.0198 </r>
        <r>    2.0198 </r>
        <r>    2.6112 </r>
        <r>    2.6769 </r>
        <r>    2.6769 </r>
        <r>    3.7171 </r>
        <r>    4.0311 </r>
        <r>    4.0554 </r>
        <r>    5.2529 </r>
        <r>    5.4329 </r>
        <r>    5.6994 </r>
        <r>    5.6994 </r>
        <r>    5.7596 </r>
        <r>    6.1066 </r>
        <r>    6.1953 </r>
        <r>    6.1953 </r>
        <r>    6.6746 </r>
        <r>    6.7127 </r>
        <r>    6.7127 </r>
        <r>    7.0331 </r>
        <r>    7.2250 </r>
        <r>    7.2250 </r>
        <r>    7.6974 </r>
        <r>    7.6974 </r>
        <r>    7.9049 </r>
        <r>    8.2177 </r>
        <r>    8.5328 </r>
       </set>
       <set comment="kpoint 14">
        <r>  -34.9841 </r>
        <r>  -34.9674 </r>
        <r>  -34.9674 </r>
        <r>  -34.9666 </r>
        <r>  -17.0507 </r>
        <r>  -17.0491 </r>
        <r>  -17.0491 </r>
        <r>  -16.9598 </r>
        <r>  -16.9465 </r>
        <r>  -16.9465 </r>
        <r>  -16.9412 </r>
        <r>  -16.9412 </r>
        <r>  -16.9398 </r>
        <r>  -16.8933 </r>
        <r>  -16.8778 </r>
        <r>  -16.8728 </r>
        <r>   -1.8491 </r>
        <r>    0.8649 </r>
        <r>    0.8649 </r>
        <r>    1.1378 </r>
        <r>    1.9737 </r>
        <r>    2.0310 </r>
        <r>    2.0310 </r>
        <r>    2.5998 </r>
        <r>    2.6769 </r>
        <r>    2.6769 </r>
        <r>    3.6792 </r>
        <r>    4.0383 </r>
        <r>    4.0706 </r>
        <r>    5.2233 </r>
        <r>    5.4334 </r>
        <r>    5.6212 </r>
        <r>    5.6212 </r>
        <r>    5.6923 </r>
        <r>    6.0303 </r>
        <r>    6.1455 </r>
        <r>    6.1455 </r>
        <r>    6.6524 </r>
        <r>    6.7196 </r>
        <r>    6.7196 </r>
        <r>    7.0712 </r>
        <r>    7.2357 </r>
        <r>    7.2357 </r>
        <r>    7.7675 </r>
        <r>    7.7675 </r>
        <r>    8.0056 </r>
        <r>    8.2680 </r>
        <r>    8.6527 </r>
       </set>
       <set comment="kpoint 15">
        <r>  -34.9839 </r>
        <r>  -34.9675 </r>
        <r>  -34.9675 </r>
        <r>  -34.9666 </r>
        <r>  -17.0491 </r>
        <r>  -17.0475 </r>
        <r>  -17.0475 </r>
        <r>  -16.9620 </r>
        <r>  -16.9468 </r>
        <r>  -16.9468 </r>
        <r>  -16.9405 </r>
        <r>  -16.9405 </r>
        <r>  -16.9391 </r>
        <r>  -16.8966 </r>
        <r>  -16.8788 </r>
        <r>  -16.8731 </r>
        <r>   -1.8180 </r>
        <r>    0.8492 </r>
        <r>    0.8492 </r>
        <r>    1.1649 </r>
        <r>    1.9728 </r>
        <r>    2.0430 </r>
        <r>    2.0430 </r>
        <r>    2.5879 </r>
        <r>    2.6774 </r>
        <r>    2.6774 </r>
        <r>    3.6397 </r>
        <r>    4.0447 </r>
        <r>    4.0870 </r>
        <r>    5.1925 </r>
        <r>    5.4350 </r>
        <r>    5.5454 </r>
        <r>    5.5454 </r>
        <r>    5.6264 </r>
        <r>    5.9575 </r>
        <r>    6.0969 </r>
        <r>    6.0969 </r>
        <r>    6.6286 </r>
        <r>    6.7265 </r>
        <r>    6.7265 </r>
        <r>    7.1118 </r>
        <r>    7.2469 </r>
        <r>    7.2469 </r>
        <r>    7.8379 </r>
        <r>    7.8379 </r>
        <r>    8.1075 </r>
        <r>    8.3135 </r>
        <r>    8.7723 </r>
       </set>
       <set comment="kpoint 16">
        <r>  -34.9836 </r>
        <r>  -34.9677 </r>
        <r>  -34.9677 </r>
        <r>  -34.9667 </r>
        <r>  -17.0475 </r>
        <r>  -17.0458 </r>
        <r>  -17.0458 </r>
        <r>  -16.9643 </r>
        <r>  -16.9471 </r>
        <r>  -16.9471 </r>
        <r>  -16.9398 </r>
        <r>  -16.9398 </r>
        <r>  -16.9383 </r>
        <r>  -16.9001 </r>
        <r>  -16.8800 </r>
        <r>  -16.8734 </r>
        <r>   -1.7848 </r>
        <r>    0.8324 </r>
        <r>    0.8324 </r>
        <r>    1.1937 </r>
        <r>    1.9704 </r>
        <r>    2.0557 </r>
        <r>    2.0557 </r>
        <r>    2.5757 </r>
        <r>    2.6784 </r>
        <r>    2.6784 </r>
        <r>    3.5989 </r>
        <r>    4.0500 </r>
        <r>    4.1045 </r>
        <r>    5.1608 </r>
        <r>    5.4381 </r>
        <r>    5.4721 </r>
        <r>    5.4721 </r>
        <r>    5.5620 </r>
        <r>    5.8888 </r>
        <r>    6.0494 </r>
        <r>    6.0494 </r>
        <r>    6.6033 </r>
        <r>    6.7332 </r>
        <r>    6.7332 </r>
        <r>    7.1550 </r>
        <r>    7.2589 </r>
        <r>    7.2589 </r>
        <r>    7.9084 </r>
        <r>    7.9084 </r>
        <r>    8.2106 </r>
        <r>    8.3540 </r>
        <r>    8.8914 </r>
       </set>
       <set comment="kpoint 17">
        <r>  -34.9833 </r>
        <r>  -34.9678 </r>
        <r>  -34.9678 </r>
        <r>  -34.9667 </r>
        <r>  -17.0457 </r>
        <r>  -17.0441 </r>
        <r>  -17.0441 </r>
        <r>  -16.9667 </r>
        <r>  -16.9474 </r>
        <r>  -16.9474 </r>
        <r>  -16.9390 </r>
        <r>  -16.9390 </r>
        <r>  -16.9374 </r>
        <r>  -16.9037 </r>
        <r>  -16.8812 </r>
        <r>  -16.8738 </r>
        <r>   -1.7494 </r>
        <r>    0.8146 </r>
        <r>    0.8146 </r>
        <r>    1.2241 </r>
        <r>    1.9663 </r>
        <r>    2.0690 </r>
        <r>    2.0690 </r>
        <r>    2.5633 </r>
        <r>    2.6798 </r>
        <r>    2.6798 </r>
        <r>    3.5570 </r>
        <r>    4.0539 </r>
        <r>    4.1232 </r>
        <r>    5.1282 </r>
        <r>    5.4013 </r>
        <r>    5.4013 </r>
        <r>    5.4429 </r>
        <r>    5.4991 </r>
        <r>    5.8246 </r>
        <r>    6.0030 </r>
        <r>    6.0030 </r>
        <r>    6.5764 </r>
        <r>    6.7394 </r>
        <r>    6.7394 </r>
        <r>    7.2005 </r>
        <r>    7.2717 </r>
        <r>    7.2717 </r>
        <r>    7.9790 </r>
        <r>    7.9790 </r>
        <r>    8.3147 </r>
        <r>    8.3896 </r>
        <r>    9.0091 </r>
       </set>
       <set comment="kpoint 18">
        <r>  -34.9830 </r>
        <r>  -34.9679 </r>
        <r>  -34.9679 </r>
        <r>  -34.9667 </r>
        <r>  -17.0438 </r>
        <r>  -17.0424 </r>
        <r>  -17.0424 </r>
        <r>  -16.9692 </r>
        <r>  -16.9477 </r>
        <r>  -16.9477 </r>
        <r>  -16.9382 </r>
        <r>  -16.9382 </r>
        <r>  -16.9366 </r>
        <r>  -16.9075 </r>
        <r>  -16.8825 </r>
        <r>  -16.8741 </r>
        <r>   -1.7119 </r>
        <r>    0.7956 </r>
        <r>    0.7956 </r>
        <r>    1.2561 </r>
        <r>    1.9603 </r>
        <r>    2.0829 </r>
        <r>    2.0829 </r>
        <r>    2.5506 </r>
        <r>    2.6819 </r>
        <r>    2.6819 </r>
        <r>    3.5143 </r>
        <r>    4.0560 </r>
        <r>    4.1431 </r>
        <r>    5.0951 </r>
        <r>    5.3333 </r>
        <r>    5.3333 </r>
        <r>    5.4377 </r>
        <r>    5.4498 </r>
        <r>    5.7654 </r>
        <r>    5.9579 </r>
        <r>    5.9579 </r>
        <r>    6.5480 </r>
        <r>    6.7452 </r>
        <r>    6.7452 </r>
        <r>    7.2484 </r>
        <r>    7.2854 </r>
        <r>    7.2854 </r>
        <r>    8.0495 </r>
        <r>    8.0495 </r>
        <r>    8.4199 </r>
        <r>    8.4201 </r>
        <r>    9.1250 </r>
       </set>
       <set comment="kpoint 19">
        <r>  -34.9827 </r>
        <r>  -34.9681 </r>
        <r>  -34.9681 </r>
        <r>  -34.9667 </r>
        <r>  -17.0418 </r>
        <r>  -17.0407 </r>
        <r>  -17.0407 </r>
        <r>  -16.9718 </r>
        <r>  -16.9481 </r>
        <r>  -16.9481 </r>
        <r>  -16.9372 </r>
        <r>  -16.9372 </r>
        <r>  -16.9357 </r>
        <r>  -16.9114 </r>
        <r>  -16.8839 </r>
        <r>  -16.8745 </r>
        <r>   -1.6724 </r>
        <r>    0.7758 </r>
        <r>    0.7758 </r>
        <r>    1.2896 </r>
        <r>    1.9520 </r>
        <r>    2.0974 </r>
        <r>    2.0974 </r>
        <r>    2.5379 </r>
        <r>    2.6845 </r>
        <r>    2.6845 </r>
        <r>    3.4710 </r>
        <r>    4.0561 </r>
        <r>    4.1641 </r>
        <r>    5.0616 </r>
        <r>    5.2680 </r>
        <r>    5.2680 </r>
        <r>    5.3780 </r>
        <r>    5.4590 </r>
        <r>    5.7116 </r>
        <r>    5.9141 </r>
        <r>    5.9141 </r>
        <r>    6.5182 </r>
        <r>    6.7505 </r>
        <r>    6.7505 </r>
        <r>    7.2986 </r>
        <r>    7.3001 </r>
        <r>    7.3001 </r>
        <r>    8.1198 </r>
        <r>    8.1198 </r>
        <r>    8.4455 </r>
        <r>    8.5260 </r>
        <r>    9.2386 </r>
       </set>
       <set comment="kpoint 20">
        <r>  -34.9824 </r>
        <r>  -34.9682 </r>
        <r>  -34.9682 </r>
        <r>  -34.9667 </r>
        <r>  -17.0397 </r>
        <r>  -17.0389 </r>
        <r>  -17.0389 </r>
        <r>  -16.9744 </r>
        <r>  -16.9484 </r>
        <r>  -16.9484 </r>
        <r>  -16.9361 </r>
        <r>  -16.9361 </r>
        <r>  -16.9347 </r>
        <r>  -16.9154 </r>
        <r>  -16.8853 </r>
        <r>  -16.8749 </r>
        <r>   -1.6308 </r>
        <r>    0.7550 </r>
        <r>    0.7550 </r>
        <r>    1.3244 </r>
        <r>    1.9411 </r>
        <r>    2.1124 </r>
        <r>    2.1124 </r>
        <r>    2.5251 </r>
        <r>    2.6878 </r>
        <r>    2.6878 </r>
        <r>    3.4272 </r>
        <r>    4.0537 </r>
        <r>    4.1862 </r>
        <r>    5.0278 </r>
        <r>    5.2055 </r>
        <r>    5.2055 </r>
        <r>    5.3200 </r>
        <r>    5.4710 </r>
        <r>    5.6636 </r>
        <r>    5.8714 </r>
        <r>    5.8714 </r>
        <r>    6.4870 </r>
[...]
       <r>    7.0772    0.0000 </r>
       <r>    7.4079    0.0000 </r>
       <r>    7.4079    0.0000 </r>
       <r>    8.8296    0.0000 </r>
       <r>    8.8296    0.0000 </r>
       <r>    8.9484    0.0000 </r>
       <r>    8.9484    0.0000 </r>
      </set>
      <set comment="kpoint 34">
       <r>  -34.9712    1.0000 </r>
       <r>  -34.9712    1.0000 </r>
       <r>  -34.9712    1.0000 </r>
       <r>  -34.9712    1.0000 </r>
       <r>  -17.0669    1.0000 </r>
       <r>  -17.0669    1.0000 </r>
       <r>  -17.0669    1.0000 </r>
       <r>  -17.0669    1.0000 </r>
       <r>  -16.9044    1.0000 </r>
       <r>  -16.9044    1.0000 </r>
       <r>  -16.9044    1.0000 </r>
       <r>  -16.9044    1.0000 </r>
       <r>  -16.8986    1.0000 </r>
       <r>  -16.8986    1.0000 </r>
       <r>  -16.8986    1.0000 </r>
       <r>  -16.8986    1.0000 </r>
       <r>    0.4504    1.0000 </r>
       <r>    0.4504    1.0000 </r>
       <r>    0.4504    1.0000 </r>
       <r>    0.4504    1.0000 </r>
       <r>    1.7590    0.0000 </r>
       <r>    1.7590    0.0000 </r>
       <r>    1.7590    0.0000 </r>
       <r>    1.7590    0.0000 </r>
       <r>    3.7150    0.0000 </r>
       <r>    3.7150    0.0000 </r>
       <r>    3.7150    0.0000 </r>
       <r>    3.7150    0.0000 </r>
       <r>    3.8652    0.0000 </r>
       <r>    3.8652    0.0000 </r>
       <r>    3.8652    0.0000 </r>
       <r>    3.8652    0.0000 </r>
       <r>    6.3269    0.0000 </r>
       <r>    6.3269    0.0000 </r>
       <r>    6.3269    0.0000 </r>
       <r>    6.3269    0.0000 </r>
       <r>    6.5488    0.0000 </r>
       <r>    6.5488    0.0000 </r>
       <r>    6.5488    0.0000 </r>
       <r>    6.5488    0.0000 </r>
       <r>    7.2507    0.0000 </r>
       <r>    7.2507    0.0000 </r>
       <r>    7.2507    0.0000 </r>
       <r>    7.2507    0.0000 </r>
       <r>    8.6666    0.0000 </r>
       <r>    8.6666    0.0000 </r>
       <r>    8.6666    0.0000 </r>
       <r>    8.6666    0.0000 </r>
      </set>
      <set comment="kpoint 35">
       <r>  -34.9712    1.0000 </r>
       <r>  -34.9712    1.0000 </r>
       <r>  -34.9712    1.0000 </r>
       <r>  -34.9712    1.0000 </r>
       <r>  -17.0727    1.0000 </r>
       <r>  -17.0727    1.0000 </r>
       <r>  -17.0727    1.0000 </r>
       <r>  -17.0727    1.0000 </r>
       <r>  -16.8986    1.0000 </r>
       <r>  -16.8986    1.0000 </r>
       <r>  -16.8986    1.0000 </r>
       <r>  -16.8986    1.0000 </r>
       <r>  -16.8986    1.0000 </r>
       <r>  -16.8986    1.0000 </r>
       <r>  -16.8986    1.0000 </r>
       <r>  -16.8986    1.0000 </r>
       <r>    0.4895    1.0000 </r>
       <r>    0.4895    1.0000 </r>
       <r>    0.4895    1.0000 </r>
       <r>    0.4895    1.0000 </r>
       <r>    1.6874    0.0251 </r>
       <r>    1.6874    0.0251 </r>
       <r>    1.6874    0.0251 </r>
       <r>    1.6874    0.0251 </r>
       <r>    3.8068    0.0000 </r>
       <r>    3.8068    0.0000 </r>
       <r>    3.8068    0.0000 </r>
       <r>    3.8068    0.0000 </r>
       <r>    3.8068    0.0000 </r>
       <r>    3.8068    0.0000 </r>
       <r>    3.8068    0.0000 </r>
       <r>    3.8068    0.0000 </r>
       <r>    6.4991    0.0000 </r>
       <r>    6.4991    0.0000 </r>
       <r>    6.4991    0.0000 </r>
       <r>    6.4991    0.0000 </r>
       <r>    6.4991    0.0000 </r>
       <r>    6.4991    0.0000 </r>
       <r>    6.4991    0.0000 </r>
       <r>    6.4991    0.0000 </r>
       <r>    7.2778    0.0000 </r>
       <r>    7.2778    0.0000 </r>
       <r>    7.2778    0.0000 </r>
       <r>    7.2778    0.0000 </r>
       <r>    8.4254    0.0000 </r>
       <r>    8.4254    0.0000 </r>
       <r>    8.4254    0.0000 </r>
       <r>    8.4254    0.0000 </r>
      </set>
     </set>
    </set>
   </array>
  </eigenvalues>
  <separator name="orbital magnetization" >
   <v name="MAGDIPOLOUT">      0.00000000      0.00000000      0.00000000</v>
  </separator>
  <dos>
   <i name="efermi">      1.61816461 </i>
   <total>
    <array>
     <dimension dim="1">gridpoints</dimension>
     <dimension dim="2">spin</dimension>
     <field>energy</field>
     <field>total</field>
     <field>integrated</field>
     <set>
      <set comment="spin 1">
       <r>   -37.2522     0.0000     0.0000 </r>
       <r>   -37.0860     0.0000     0.0000 </r>
       <r>   -36.9198     0.0000     0.0000 </r>
       <r>   -36.7536     0.0000     0.0000 </r>
       <r>   -36.5874     0.0000     0.0000 </r>
       <r>   -36.4212     0.0000     0.0000 </r>
       <r>   -36.2550     0.0000     0.0000 </r>
       <r>   -36.0887     0.0000     0.0000 </r>
       <r>   -35.9225     0.0000     0.0000 </r>
       <r>   -35.7563     0.0000     0.0000 </r>
       <r>   -35.5901     0.0000     0.0000 </r>
       <r>   -35.4239     0.0000     0.0000 </r>
       <r>   -35.2577     0.0000     0.0000 </r>
       <r>   -35.0915     0.0179     0.0030 </r>
       <r>   -34.9253    43.3931     7.2154 </r>
       <r>   -34.7591     4.7205     8.0000 </r>
       <r>   -34.5928     0.0000     8.0000 </r>
       <r>   -34.4266     0.0000     8.0000 </r>
       <r>   -34.2604     0.0000     8.0000 </r>
       <r>   -34.0942     0.0000     8.0000 </r>
       <r>   -33.9280     0.0000     8.0000 </r>
       <r>   -33.7618     0.0000     8.0000 </r>
       <r>   -33.5956     0.0000     8.0000 </r>
       <r>   -33.4294     0.0000     8.0000 </r>
       <r>   -33.2632     0.0000     8.0000 </r>
       <r>   -33.0969     0.0000     8.0000 </r>
       <r>   -32.9307     0.0000     8.0000 </r>
       <r>   -32.7645     0.0000     8.0000 </r>
       <r>   -32.5983     0.0000     8.0000 </r>
       <r>   -32.4321     0.0000     8.0000 </r>
       <r>   -32.2659     0.0000     8.0000 </r>
       <r>   -32.0997     0.0000     8.0000 </r>
       <r>   -31.9335     0.0000     8.0000 </r>
       <r>   -31.7673     0.0000     8.0000 </r>
       <r>   -31.6010     0.0000     8.0000 </r>
       <r>   -31.4348     0.0000     8.0000 </r>
       <r>   -31.2686     0.0000     8.0000 </r>
       <r>   -31.1024     0.0000     8.0000 </r>
       <r>   -30.9362     0.0000     8.0000 </r>
       <r>   -30.7700     0.0000     8.0000 </r>
       <r>   -30.6038     0.0000     8.0000 </r>
       <r>   -30.4376     0.0000     8.0000 </r>
       <r>   -30.2713     0.0000     8.0000 </r>
       <r>   -30.1051     0.0000     8.0000 </r>
       <r>   -29.9389     0.0000     8.0000 </r>
       <r>   -29.7727     0.0000     8.0000 </r>
       <r>   -29.6065     0.0000     8.0000 </r>
       <r>   -29.4403     0.0000     8.0000 </r>
       <r>   -29.2741     0.0000     8.0000 </r>
       <r>   -29.1079     0.0000     8.0000 </r>
       <r>   -28.9417     0.0000     8.0000 </r>
       <r>   -28.7754     0.0000     8.0000 </r>
       <r>   -28.6092     0.0000     8.0000 </r>
       <r>   -28.4430     0.0000     8.0000 </r>
       <r>   -28.2768     0.0000     8.0000 </r>
       <r>   -28.1106     0.0000     8.0000 </r>
       <r>   -27.9444     0.0000     8.0000 </r>
       <r>   -27.7782     0.0000     8.0000 </r>
       <r>   -27.6120     0.0000     8.0000 </r>
       <r>   -27.4458     0.0000     8.0000 </r>
       <r>   -27.2795     0.0000     8.0000 </r>
       <r>   -27.1133     0.0000     8.0000 </r>
       <r>   -26.9471     0.0000     8.0000 </r>
       <r>   -26.7809     0.0000     8.0000 </r>
       <r>   -26.6147     0.0000     8.0000 </r>
       <r>   -26.4485     0.0000     8.0000 </r>
       <r>   -26.2823     0.0000     8.0000 </r>
       <r>   -26.1161     0.0000     8.0000 </r>
       <r>   -25.9499     0.0000     8.0000 </r>
       <r>   -25.7836     0.0000     8.0000 </r>
       <r>   -25.6174     0.0000     8.0000 </r>
       <r>   -25.4512     0.0000     8.0000 </r>
       <r>   -25.2850     0.0000     8.0000 </r>
       <r>   -25.1188     0.0000     8.0000 </r>
       <r>   -24.9526     0.0000     8.0000 </r>
       <r>   -24.7864     0.0000     8.0000 </r>
       <r>   -24.6202     0.0000     8.0000 </r>
       <r>   -24.4540     0.0000     8.0000 </r>
       <r>   -24.2877     0.0000     8.0000 </r>
       <r>   -24.1215     0.0000     8.0000 </r>
       <r>   -23.9553     0.0000     8.0000 </r>
       <r>   -23.7891     0.0000     8.0000 </r>
       <r>   -23.6229     0.0000     8.0000 </r>
       <r>   -23.4567     0.0000     8.0000 </r>
       <r>   -23.2905     0.0000     8.0000 </r>
       <r>   -23.1243     0.0000     8.0000 </r>
       <r>   -22.9581     0.0000     8.0000 </r>
       <r>   -22.7918     0.0000     8.0000 </r>
       <r>   -22.6256     0.0000     8.0000 </r>
       <r>   -22.4594     0.0000     8.0000 </r>
       <r>   -22.2932     0.0000     8.0000 </r>
       <r>   -22.1270     0.0000     8.0000 </r>
       <r>   -21.9608     0.0000     8.0000 </r>
       <r>   -21.7946     0.0000     8.0000 </r>
       <r>   -21.6284     0.0000     8.0000 </r>
       <r>   -21.4622     0.0000     8.0000 </r>
       <r>   -21.2959     0.0000     8.0000 </r>
       <r>   -21.1297     0.0000     8.0000 </r>
       <r>   -20.9635     0.0000     8.0000 </r>
       <r>   -20.7973     0.0000     8.0000 </r>
       <r>   -20.6311     0.0000     8.0000 </r>
       <r>   -20.4649     0.0000     8.0000 </r>
       <r>   -20.2987     0.0000     8.0000 </r>
       <r>   -20.1325     0.0000     8.0000 </r>
       <r>   -19.9662     0.0000     8.0000 </r>
       <r>   -19.8000     0.0000     8.0000 </r>
       <r>   -19.6338     0.0000     8.0000 </r>
       <r>   -19.4676     0.0000     8.0000 </r>
       <r>   -19.3014     0.0000     8.0000 </r>
       <r>   -19.1352     0.0000     8.0000 </r>
       <r>   -18.9690     0.0000     8.0000 </r>
       <r>   -18.8028     0.0000     8.0000 </r>
       <r>   -18.6366     0.0000     8.0000 </r>
       <r>   -18.4703     0.0000     8.0000 </r>
       <r>   -18.3041     0.0000     8.0000 </r>
       <r>   -18.1379     0.0000     8.0000 </r>
       <r>   -17.9717     0.0000     8.0000 </r>
       <r>   -17.8055     0.0000     8.0000 </r>
       <r>   -17.6393     0.0000     8.0000 </r>
       <r>   -17.4731     0.0000     8.0000 </r>
       <r>   -17.3069     0.0000     8.0000 </r>
       <r>   -17.1407     0.0937     8.0156 </r>
       <r>   -16.9744    53.7705    16.9528 </r>
       <r>   -16.8082    90.2140    31.9474 </r>
       <r>   -16.6420     0.3162    32.0000 </r>
       <r>   -16.4758     0.0000    32.0000 </r>
       <r>   -16.3096     0.0000    32.0000 </r>
       <r>   -16.1434     0.0000    32.0000 </r>
       <r>   -15.9772     0.0000    32.0000 </r>
       <r>   -15.8110     0.0000    32.0000 </r>
       <r>   -15.6448     0.0000    32.0000 </r>
       <r>   -15.4785     0.0000    32.0000 </r>
       <r>   -15.3123     0.0000    32.0000 </r>
       <r>   -15.1461     0.0000    32.0000 </r>
       <r>   -14.9799     0.0000    32.0000 </r>
       <r>   -14.8137     0.0000    32.0000 </r>
       <r>   -14.6475     0.0000    32.0000 </r>
       <r>   -14.4813     0.0000    32.0000 </r>
       <r>   -14.3151     0.0000    32.0000 </r>
       <r>   -14.1489     0.0000    32.0000 </r>
       <r>   -13.9826     0.0000    32.0000 </r>
       <r>   -13.8164     0.0000    32.0000 </r>
       <r>   -13.6502     0.0000    32.0000 </r>
       <r>   -13.4840     0.0000    32.0000 </r>
       <r>   -13.3178     0.0000    32.0000 </r>
       <r>   -13.1516     0.0000    32.0000 </r>
       <r>   -12.9854     0.0000    32.0000 </r>
       <r>   -12.8192     0.0000    32.0000 </r>
       <r>   -12.6530     0.0000    32.0000 </r>
       <r>   -12.4867     0.0000    32.0000 </r>
       <r>   -12.3205     0.0000    32.0000 </r>
       <r>   -12.1543     0.0000    32.0000 </r>
       <r>   -11.9881     0.0000    32.0000 </r>
       <r>   -11.8219     0.0000    32.0000 </r>
       <r>   -11.6557     0.0000    32.0000 </r>
       <r>   -11.4895     0.0000    32.0000 </r>
       <r>   -11.3233     0.0000    32.0000 </r>
       <r>   -11.1570     0.0000    32.0000 </r>
       <r>   -10.9908     0.0000    32.0000 </r>
       <r>   -10.8246     0.0000    32.0000 </r>
       <r>   -10.6584     0.0000    32.0000 </r>
       <r>   -10.4922     0.0000    32.0000 </r>
       <r>   -10.3260     0.0000    32.0000 </r>
       <r>   -10.1598     0.0000    32.0000 </r>
       <r>    -9.9936     0.0000    32.0000 </r>
       <r>    -9.8274     0.0000    32.0000 </r>
       <r>    -9.6611     0.0000    32.0000 </r>
       <r>    -9.4949     0.0000    32.0000 </r>
       <r>    -9.3287     0.0000    32.0000 </r>
       <r>    -9.1625     0.0000    32.0000 </r>
       <r>    -8.9963     0.0000    32.0000 </r>
       <r>    -8.8301     0.0000    32.0000 </r>
       <r>    -8.6639     0.0000    32.0000 </r>
       <r>    -8.4977     0.0000    32.0000 </r>
       <r>    -8.3315     0.0000    32.0000 </r>
       <r>    -8.1652     0.0000    32.0000 </r>
       <r>    -7.9990     0.0000    32.0000 </r>
       <r>    -7.8328     0.0000    32.0000 </r>
       <r>    -7.6666     0.0000    32.0000 </r>
       <r>    -7.5004     0.0000    32.0000 </r>
       <r>    -7.3342     0.0000    32.0000 </r>
       <r>    -7.1680     0.0000    32.0000 </r>
       <r>    -7.0018     0.0000    32.0000 </r>
       <r>    -6.8356     0.0000    32.0000 </r>
       <r>    -6.6693     0.0000    32.0000 </r>
       <r>    -6.5031     0.0000    32.0000 </r>
       <r>    -6.3369     0.0000    32.0000 </r>
       <r>    -6.1707     0.0000    32.0000 </r>
       <r>    -6.0045     0.0000    32.0000 </r>
       <r>    -5.8383     0.0000    32.0000 </r>
       <r>    -5.6721     0.0000    32.0000 </r>
       <r>    -5.5059     0.0000    32.0000 </r>
       <r>    -5.3397     0.0000    32.0000 </r>
       <r>    -5.1734     0.0000    32.0000 </r>
       <r>    -5.0072     0.0000    32.0000 </r>
       <r>    -4.8410     0.0000    32.0000 </r>
       <r>    -4.6748     0.0000    32.0000 </r>
       <r>    -4.5086     0.0000    32.0000 </r>
       <r>    -4.3424     0.0000    32.0000 </r>
       <r>    -4.1762     0.0000    32.0000 </r>
       <r>    -4.0100     0.0000    32.0000 </r>
       <r>    -3.8438     0.0000    32.0000 </r>
       <r>    -3.6775     0.0000    32.0000 </r>
       <r>    -3.5113     0.0000    32.0000 </r>
       <r>    -3.3451     0.0000    32.0000 </r>
       <r>    -3.1789     0.0000    32.0000 </r>
       <r>    -3.0127     0.0000    32.0000 </r>
       <r>    -2.8465     0.0000    32.0000 </r>
       <r>    -2.6803     0.0000    32.0000 </r>
       <r>    -2.5141     0.0000    32.0000 </r>
       <r>    -2.3479     0.0000    32.0000 </r>
       <r>    -2.1816     0.0000    32.0000 </r>
       <r>    -2.0154     0.0282    32.0047 </r>
       <r>    -1.8492     0.3717    32.0665 </r>
       <r>    -1.6830     0.3878    32.1309 </r>
       <r>    -1.5168     1.0268    32.3016 </r>
       <r>    -1.3506     0.4651    32.3789 </r>
       <r>    -1.1844     1.2922    32.5937 </r>
       <r>    -1.0182     0.9005    32.7433 </r>
       <r>    -0.8519     1.4295    32.9809 </r>
       <r>    -0.6857     1.3086    33.1984 </r>
       <r>    -0.5195     1.6320    33.4697 </r>
       <r>    -0.3533     1.9814    33.7990 </r>
       <r>    -0.1871     1.0267    33.9697 </r>
       <r>    -0.0209     2.9280    34.4563 </r>
       <r>     0.1453     2.3606    34.8487 </r>
       <r>     0.3115     2.0496    35.1894 </r>
       <r>     0.4777     3.8191    35.8242 </r>
       <r>     0.6440     2.6051    36.2571 </r>
       <r>     0.8102     4.4931    37.0040 </r>
       <r>     0.9764     3.2336    37.5414 </r>
       <r>     1.1426     4.0648    38.2170 </r>
       <r>     1.3088     3.8526    38.8574 </r>
       <r>     1.4750     2.7426    39.3132 </r>
       <r>     1.6412     5.1656    40.1718 </r>
       <r>     1.8074     5.7710    41.1310 </r>
       <r>     1.9736     7.8376    42.4337 </r>
       <r>     2.1399     9.5063    44.0138 </r>
       <r>     2.3061     8.1091    45.3616 </r>
       <r>     2.4723     9.5220    46.9443 </r>
       <r>     2.6385    10.0123    48.6084 </r>
       <r>     2.8047     8.4743    50.0170 </r>
       <r>     2.9709     6.6025    51.1144 </r>
       <r>     3.1371     5.4733    52.0241 </r>
       <r>     3.3033     5.3085    52.9064 </r>
       <r>     3.4695     3.4074    53.4728 </r>
       <r>     3.6358     4.7364    54.2600 </r>
       <r>     3.8020     3.3238    54.8124 </r>
       <r>     3.9682     4.7522    55.6023 </r>
       <r>     4.1344     9.5720    57.1933 </r>
       <r>     4.3006     9.1549    58.7149 </r>
       <r>     4.4668    11.8790    60.6894 </r>
       <r>     4.6330     9.3551    62.2443 </r>
       <r>     4.7992     4.3299    62.9640 </r>
       <r>     4.9654     5.9332    63.9501 </r>
       <r>     5.1317     6.8768    65.0931 </r>
       <r>     5.2979     3.7165    65.7108 </r>
       <r>     5.4641     4.5478    66.4667 </r>
       <r>     5.6303     6.8245    67.6010 </r>
       <r>     5.7965     9.5544    69.1891 </r>
       <r>     5.9627     9.5643    70.7788 </r>
       <r>     6.1289    10.1376    72.4638 </r>
       <r>     6.2951     7.8947    73.7760 </r>
       <r>     6.4613     8.7292    75.2269 </r>
       <r>     6.6276    12.7811    77.3512 </r>
       <r>     6.7938    11.6563    79.2886 </r>
       <r>     6.9600     4.7731    80.0820 </r>
       <r>     7.1262     9.4252    81.6486 </r>
       <r>     7.2924     7.0748    82.8245 </r>
       <r>     7.4586     5.7270    83.7764 </r>
       <r>     7.6248     5.6912    84.7223 </r>
       <r>     7.7910     4.9112    85.5386 </r>
       <r>     7.9572     4.5874    86.3011 </r>
       <r>     8.1235     3.1595    86.8262 </r>
       <r>     8.2897     2.7114    87.2769 </r>
       <r>     8.4559     5.4030    88.1750 </r>
       <r>     8.6221     3.2859    88.7211 </r>
       <r>     8.7883     3.7139    89.3384 </r>
       <r>     8.9545     6.9822    90.4989 </r>
       <r>     9.1207     3.6083    91.0987 </r>
       <r>     9.2869     5.6197    92.0327 </r>
       <r>     9.4532     4.8917    92.8458 </r>
       <r>     9.6194     9.7239    94.4620 </r>
       <r>     9.7856     3.6674    95.0716 </r>
       <r>     9.9518     3.4136    95.6390 </r>
       <r>    10.1180     1.7154    95.9241 </r>
       <r>    10.2842     0.1586    95.9504 </r>
       <r>    10.4504     0.2978    95.9999 </r>
       <r>    10.6166     0.0004    96.0000 </r>
       <r>    10.7828     0.0000    96.0000 </r>
       <r>    10.9491     0.0000    96.0000 </r>
       <r>    11.1153     0.0000    96.0000 </r>
       <r>    11.2815     0.0000    96.0000 </r>
       <r>    11.4477     0.0000    96.0000 </r>
       <r>    11.6139     0.0000    96.0000 </r>
       <r>    11.7801     0.0000    96.0000 </r>
       <r>    11.9463     0.0000    96.0000 </r>
       <r>    12.1125     0.0000    96.0000 </r>
       <r>    12.2787     0.0000    96.0000 </r>
       <r>    12.4450     0.0000    96.0000 </r>
       <r>    12.6112     0.0000    96.0000 </r>
      </set>
     </set>
    </array>
   </total>
  </dos>
 </calculation>
 <structure name="finalpos" >
  <crystal>
   <varray name="basis" >
    <v>       6.01969000       0.00000000       0.00000000 </v>
    <v>       0.00000000       6.01969000       0.00000000 </v>
    <v>       0.00000000       0.00000000       6.01969000 </v>
   </varray>
   <i name="volume">    218.13350616 </i>
   <varray name="rec_basis" >
    <v>       0.16612151      -0.00000000       0.00000000 </v>
    <v>       0.00000000       0.16612151       0.00000000 </v>
    <v>      -0.00000000      -0.00000000       0.16612151 </v>
   </varray>
  </crystal>
  <varray name="positions" >
   <v>       0.00000000       0.00000000       0.00000000 </v>
   <v>       0.00000000       0.50000000       0.50000000 </v>
   <v>       0.50000000       0.00000000       0.50000000 </v>
   <v>       0.50000000       0.50000000       0.00000000 </v>
  </varray>
 </structure>
</modeling>
