Sr                                      
           1
     6.019690    0.000000    0.000000
     0.000000    6.019690    0.000000
     0.000000    0.000000    6.019690
   Sr
     4
Direct configuration=     1
   0.00000000  0.00000000  0.00000000
   0.00000000  0.50000000  0.50000000
   0.50000000  0.00000000  0.50000000
   0.50000000  0.50000000  0.00000000
