 DBCSR| CPU Multiplication driver                                           BLAS (U)
 DBCSR| Multrec recursion limit                                              512 (U)
 DBCSR| Multiplication stack size                                           1000 (D)
 DBCSR| Maximum elements for images                                    UNLIMITED (U)
 DBCSR| Multiplicative factor virtual images                                   1 (U)
 DBCSR| Use multiplication densification                                       T (D)
 DBCSR| Multiplication size stacks                                             3 (U)
 DBCSR| Use memory pool for CPU allocation                                     F (U)
 DBCSR| Number of 3D layers                                               SINGLE (U)
 DBCSR| Use MPI memory allocation                                              F (U)
 DBCSR| Use RMA algorithm                                                      F (U)
 DBCSR| Use Communication thread                                               T (U)
 DBCSR| Communication thread load                                             45 (D)
 DBCSR| MPI: My process id                                                     0
 DBCSR| MPI: Number of processes                                               8
 DBCSR| OMP: Current number of threads                                        12
 DBCSR| OMP: Max number of threads                                            12
 DBCSR| Split modifier for TAS multiplication algorithm                  1.0E+00 (U)


  **** **** ******  **  PROGRAM STARTED AT               2025-08-03 20:50:33.808
 ***** ** ***  *** **   PROGRAM STARTED ON                          i04r10c03s04
 **    ****   ******    PROGRAM STARTED BY                               di38fab
 ***** **    ** ** **   PROGRAM PROCESS ID                               3764270
  **** **  *******  **  PROGRAM STARTED IN /hppfs/scratch/04/di38fab/09_GTH/Delt
                                           a_Set/V/TZVP-MOLOPT-PBE-GTH/8x8x8

 CP2K| version string:                 CP2K version 2025.1 (Development Version)
 CP2K| source code revision number:                                  git:3130539
 CP2K| cp2kflags: omp libint fftw3 libxc parallel scalapack max_contr=4         
 CP2K| is freely available from                            https://www.cp2k.org/
 CP2K| Program compiled at                         Tue Jun  3 16:14:32 CEST 2025
 CP2K| Program compiled on                                               login01
 CP2K| Program compiled for                                        Supermuc-foss
 CP2K| Data directory path                  /hppfs/work/pn36zo/di38fab/cp2k/data
 CP2K| Input file name                                                    GW.inp

 GLOBAL| Force Environment number                                              1
 GLOBAL| Basis set file name            /hppfs/scratch/04/di38fab/09_GTH/BASIS_A
 GLOBAL| Potential file name            /hppfs/work/pn36zo/di38fab/cp2k/data/GTH
 GLOBAL| MM Potential file name                                     MM_POTENTIAL
 GLOBAL| Coordinate file name                                              V.cif
 GLOBAL| Method name                                                        CP2K
 GLOBAL| Project name                                                       WSe2
 GLOBAL| Run type                                                         ENERGY
 GLOBAL| FFT library                                                       FFTW3
 GLOBAL| Diagonalization library                                       ScaLAPACK
 GLOBAL| Cholesky decomposition library                                ScaLAPACK
 GLOBAL| DGEMM library                                                      BLAS
 GLOBAL| Orthonormality check for eigenvectors                          DISABLED
 GLOBAL| Matrix multiplication library                                 ScaLAPACK
 GLOBAL| All-to-all communication in single precision                          F
 GLOBAL| FFTs using library dependent lengths                                  F
 GLOBAL| Grid backend                                                       AUTO
 GLOBAL| Global print level                                               MEDIUM
 GLOBAL| MPI I/O enabled                                                       T
 GLOBAL| Total number of message passing processes                             8
 GLOBAL| Number of threads for this process                                   12
 GLOBAL| This output is from process                                           0
 GLOBAL| OpenMP stack size per thread (OMP_STACKSIZE)                    default
 GLOBAL| CPU model name             Intel(R) Xeon(R) Platinum 8174 CPU @ 3.10GHz

 MEMORY| system memory details [Kb]
 MEMORY|                        rank 0           min           max       average
 MEMORY| MemTotal             98436664      98436664      98436708      98436686
 MEMORY| MemFree              84518324      84518324      84683208      84600766
 MEMORY| Buffers                     0             0             0             0
 MEMORY| Cached                2363916       2346200       2363916       2355058
 MEMORY| Slab                  1280068       1274792       1280068       1277430
 MEMORY| SReclaimable           277704        276132        277704        276918
 MEMORY| MemLikelyFree        87159944      87159944      87305540      87232742


 *** Fundamental physical constants (SI units) ***

 *** Literature: B. J. Mohr and B. N. Taylor,
 ***             CODATA recommended values of the fundamental physical
 ***             constants: 2006, Web Version 5.1
 ***             http://physics.nist.gov/constants

 Speed of light in vacuum [m/s]                             2.99792458000000E+08
 Magnetic constant or permeability of vacuum [N/A**2]       1.25663706143592E-06
 Electric constant or permittivity of vacuum [F/m]          8.85418781762039E-12
 Planck constant (h) [J*s]                                  6.62606896000000E-34
 Planck constant (h-bar) [J*s]                              1.05457162825177E-34
 Elementary charge [C]                                      1.60217648700000E-19
 Electron mass [kg]                                         9.10938215000000E-31
 Electron g factor [ ]                                     -2.00231930436220E+00
 Proton mass [kg]                                           1.67262163700000E-27
 Fine-structure constant                                    7.29735253760000E-03
 Rydberg constant [1/m]                                     1.09737315685270E+07
 Avogadro constant [1/mol]                                  6.02214179000000E+23
 Boltzmann constant [J/K]                                   1.38065040000000E-23
 Atomic mass unit [kg]                                      1.66053878200000E-27
 Bohr radius [m]                                            5.29177208590000E-11

 *** Conversion factors ***

 [u] -> [a.u.]                                              1.82288848426455E+03
 [Angstrom] -> [Bohr] = [a.u.]                              1.88972613288564E+00
 [a.u.] = [Bohr] -> [Angstrom]                              5.29177208590000E-01
 [a.u.] -> [s]                                              2.41888432650478E-17
 [a.u.] -> [fs]                                             2.41888432650478E-02
 [a.u.] -> [J]                                              4.35974393937059E-18
 [a.u.] -> [N]                                              8.23872205491840E-08
 [a.u.] -> [K]                                              3.15774647902944E+05
 [a.u.] -> [kJ/mol]                                         2.62549961709828E+03
 [a.u.] -> [kcal/mol]                                       6.27509468713739E+02
 [a.u.] -> [Pa]                                             2.94210107994716E+13
 [a.u.] -> [bar]                                            2.94210107994716E+08
 [a.u.] -> [atm]                                            2.90362800883016E+08
 [a.u.] -> [eV]                                             2.72113838565563E+01
 [a.u.] -> [Hz]                                             6.57968392072181E+15
 [a.u.] -> [1/cm] (wave numbers)                            2.19474631370540E+05
 [a.u./Bohr**2] -> [1/cm]                                   5.14048714338585E+03
 

 CELL_TOP| Volume [angstrom^3]:                                        26.971390
 CELL_TOP| Vector a [angstrom     2.999     0.000     0.000   |a| =     2.998940
 CELL_TOP| Vector b [angstrom     0.000     2.999     0.000   |b| =     2.998940
 CELL_TOP| Vector c [angstrom     0.000     0.000     2.999   |c| =     2.998940
 CELL_TOP| Angle (b,c), alpha [degree]:                                90.000000
 CELL_TOP| Angle (a,c), beta  [degree]:                                90.000000
 CELL_TOP| Angle (a,b), gamma [degree]:                                90.000000
 CELL_TOP| Numerically orthorhombic:                                         YES
 CELL_TOP| Periodicity                                                       XYZ

 CELL_CIF| Volume [angstrom^3]:                                        26.971390
 CELL_CIF| Vector a [angstrom     2.999     0.000     0.000   |a| =     2.998940
 CELL_CIF| Vector b [angstrom     0.000     2.999     0.000   |b| =     2.998940
 CELL_CIF| Vector c [angstrom     0.000     0.000     2.999   |c| =     2.998940
 CELL_CIF| Angle (b,c), alpha [degree]:                                90.000000
 CELL_CIF| Angle (a,c), beta  [degree]:                                90.000000
 CELL_CIF| Angle (a,b), gamma [degree]:                                90.000000
 CELL_CIF| Numerically orthorhombic:                                         YES
 CELL_CIF| Periodicity                                                       XYZ

 GENERATE|  Preliminary Number of Bonds generated:                             0
 GENERATE|  Achieved consistency in connectivity generation.

 CELL| Volume [angstrom^3]:                                            26.971390
 CELL| Vector a [angstrom]:       2.999     0.000     0.000   |a| =     2.998940
 CELL| Vector b [angstrom]:       0.000     2.999     0.000   |b| =     2.998940
 CELL| Vector c [angstrom]:       0.000     0.000     2.999   |c| =     2.998940
 CELL| Angle (b,c), alpha [degree]:                                    90.000000
 CELL| Angle (a,c), beta  [degree]:                                    90.000000
 CELL| Angle (a,b), gamma [degree]:                                    90.000000
 CELL| Numerically orthorhombic:                                             YES
 CELL| Periodicity                                                           XYZ

 CELL_REF| Volume [angstrom^3]:                                        26.971390
 CELL_REF| Vector a [angstrom     2.999     0.000     0.000   |a| =     2.998940
 CELL_REF| Vector b [angstrom     0.000     2.999     0.000   |b| =     2.998940
 CELL_REF| Vector c [angstrom     0.000     0.000     2.999   |c| =     2.998940
 CELL_REF| Angle (b,c), alpha [degree]:                                90.000000
 CELL_REF| Angle (a,c), beta  [degree]:                                90.000000
 CELL_REF| Angle (a,b), gamma [degree]:                                90.000000
 CELL_REF| Numerically orthorhombic:                                         YES
 CELL_REF| Periodicity                                                       XYZ

 *** WARNING in cryssym.F:180 :: Symmetry library SPGLIB not available ***


 *******************************************************************************
                                    Kpoints
 *******************************************************************************
 BRILLOUIN| K-point scheme                                        Monkhorst-Pack
 BRILLOUIN| K-Point grid                                             8    8    8
 BRILLOUIN| Accuracy in Symmetry determination                      0.100000E-05
 BRILLOUIN| K-Point point group symmetrization                               OFF
 BRILLOUIN| Wavefunction type                                            COMPLEX
 BRILLOUIN| List of Kpoints [2 Pi/Bohr]                                      256
 BRILLOUIN| Number           Weight            X              Y              Z
 BRILLOUIN|     1           0.00391       -0.43750       -0.43750       -0.43750
 BRILLOUIN|     2           0.00391       -0.43750       -0.43750       -0.31250
 BRILLOUIN|     3           0.00391       -0.43750       -0.43750       -0.18750
 BRILLOUIN|     4           0.00391       -0.43750       -0.43750       -0.06250
 BRILLOUIN|     5           0.00391       -0.43750       -0.43750        0.06250
 BRILLOUIN|     6           0.00391       -0.43750       -0.43750        0.18750
 BRILLOUIN|     7           0.00391       -0.43750       -0.43750        0.31250
 BRILLOUIN|     8           0.00391       -0.43750       -0.43750        0.43750
 BRILLOUIN|     9           0.00391       -0.43750       -0.31250       -0.43750
 BRILLOUIN|    10           0.00391       -0.43750       -0.31250       -0.31250
 BRILLOUIN|    11           0.00391       -0.43750       -0.31250       -0.18750
 BRILLOUIN|    12           0.00391       -0.43750       -0.31250       -0.06250
 BRILLOUIN|    13           0.00391       -0.43750       -0.31250        0.06250
 BRILLOUIN|    14           0.00391       -0.43750       -0.31250        0.18750
 BRILLOUIN|    15           0.00391       -0.43750       -0.31250        0.31250
 BRILLOUIN|    16           0.00391       -0.43750       -0.31250        0.43750
 BRILLOUIN|    17           0.00391       -0.43750       -0.18750       -0.43750
 BRILLOUIN|    18           0.00391       -0.43750       -0.18750       -0.31250
 BRILLOUIN|    19           0.00391       -0.43750       -0.18750       -0.18750
 BRILLOUIN|    20           0.00391       -0.43750       -0.18750       -0.06250
 BRILLOUIN|    21           0.00391       -0.43750       -0.18750        0.06250
 BRILLOUIN|    22           0.00391       -0.43750       -0.18750        0.18750
 BRILLOUIN|    23           0.00391       -0.43750       -0.18750        0.31250
 BRILLOUIN|    24           0.00391       -0.43750       -0.18750        0.43750
 BRILLOUIN|    25           0.00391       -0.43750       -0.06250       -0.43750
 BRILLOUIN|    26           0.00391       -0.43750       -0.06250       -0.31250
 BRILLOUIN|    27           0.00391       -0.43750       -0.06250       -0.18750
 BRILLOUIN|    28           0.00391       -0.43750       -0.06250       -0.06250
 BRILLOUIN|    29           0.00391       -0.43750       -0.06250        0.06250
 BRILLOUIN|    30           0.00391       -0.43750       -0.06250        0.18750
 BRILLOUIN|    31           0.00391       -0.43750       -0.06250        0.31250
 BRILLOUIN|    32           0.00391       -0.43750       -0.06250        0.43750
 BRILLOUIN|    33           0.00391       -0.43750        0.06250       -0.43750
 BRILLOUIN|    34           0.00391       -0.43750        0.06250       -0.31250
 BRILLOUIN|    35           0.00391       -0.43750        0.06250       -0.18750
 BRILLOUIN|    36           0.00391       -0.43750        0.06250       -0.06250
 BRILLOUIN|    37           0.00391       -0.43750        0.06250        0.06250
 BRILLOUIN|    38           0.00391       -0.43750        0.06250        0.18750
 BRILLOUIN|    39           0.00391       -0.43750        0.06250        0.31250
 BRILLOUIN|    40           0.00391       -0.43750        0.06250        0.43750
 BRILLOUIN|    41           0.00391       -0.43750        0.18750       -0.43750
 BRILLOUIN|    42           0.00391       -0.43750        0.18750       -0.31250
 BRILLOUIN|    43           0.00391       -0.43750        0.18750       -0.18750
 BRILLOUIN|    44           0.00391       -0.43750        0.18750       -0.06250
 BRILLOUIN|    45           0.00391       -0.43750        0.18750        0.06250
 BRILLOUIN|    46           0.00391       -0.43750        0.18750        0.18750
 BRILLOUIN|    47           0.00391       -0.43750        0.18750        0.31250
 BRILLOUIN|    48           0.00391       -0.43750        0.18750        0.43750
 BRILLOUIN|    49           0.00391       -0.43750        0.31250       -0.43750
 BRILLOUIN|    50           0.00391       -0.43750        0.31250       -0.31250
 BRILLOUIN|    51           0.00391       -0.43750        0.31250       -0.18750
 BRILLOUIN|    52           0.00391       -0.43750        0.31250       -0.06250
 BRILLOUIN|    53           0.00391       -0.43750        0.31250        0.06250
 BRILLOUIN|    54           0.00391       -0.43750        0.31250        0.18750
 BRILLOUIN|    55           0.00391       -0.43750        0.31250        0.31250
 BRILLOUIN|    56           0.00391       -0.43750        0.31250        0.43750
 BRILLOUIN|    57           0.00391       -0.43750        0.43750       -0.43750
 BRILLOUIN|    58           0.00391       -0.43750        0.43750       -0.31250
 BRILLOUIN|    59           0.00391       -0.43750        0.43750       -0.18750
 BRILLOUIN|    60           0.00391       -0.43750        0.43750       -0.06250
 BRILLOUIN|    61           0.00391       -0.43750        0.43750        0.06250
 BRILLOUIN|    62           0.00391       -0.43750        0.43750        0.18750
 BRILLOUIN|    63           0.00391       -0.43750        0.43750        0.31250
 BRILLOUIN|    64           0.00391       -0.43750        0.43750        0.43750
 BRILLOUIN|    65           0.00391       -0.31250       -0.43750       -0.43750
 BRILLOUIN|    66           0.00391       -0.31250       -0.43750       -0.31250
 BRILLOUIN|    67           0.00391       -0.31250       -0.43750       -0.18750
 BRILLOUIN|    68           0.00391       -0.31250       -0.43750       -0.06250
 BRILLOUIN|    69           0.00391       -0.31250       -0.43750        0.06250
 BRILLOUIN|    70           0.00391       -0.31250       -0.43750        0.18750
 BRILLOUIN|    71           0.00391       -0.31250       -0.43750        0.31250
 BRILLOUIN|    72           0.00391       -0.31250       -0.43750        0.43750
 BRILLOUIN|    73           0.00391       -0.31250       -0.31250       -0.43750
 BRILLOUIN|    74           0.00391       -0.31250       -0.31250       -0.31250
 BRILLOUIN|    75           0.00391       -0.31250       -0.31250       -0.18750
 BRILLOUIN|    76           0.00391       -0.31250       -0.31250       -0.06250
 BRILLOUIN|    77           0.00391       -0.31250       -0.31250        0.06250
 BRILLOUIN|    78           0.00391       -0.31250       -0.31250        0.18750
 BRILLOUIN|    79           0.00391       -0.31250       -0.31250        0.31250
 BRILLOUIN|    80           0.00391       -0.31250       -0.31250        0.43750
 BRILLOUIN|    81           0.00391       -0.31250       -0.18750       -0.43750
 BRILLOUIN|    82           0.00391       -0.31250       -0.18750       -0.31250
 BRILLOUIN|    83           0.00391       -0.31250       -0.18750       -0.18750
 BRILLOUIN|    84           0.00391       -0.31250       -0.18750       -0.06250
 BRILLOUIN|    85           0.00391       -0.31250       -0.18750        0.06250
 BRILLOUIN|    86           0.00391       -0.31250       -0.18750        0.18750
 BRILLOUIN|    87           0.00391       -0.31250       -0.18750        0.31250
 BRILLOUIN|    88           0.00391       -0.31250       -0.18750        0.43750
 BRILLOUIN|    89           0.00391       -0.31250       -0.06250       -0.43750
 BRILLOUIN|    90           0.00391       -0.31250       -0.06250       -0.31250
 BRILLOUIN|    91           0.00391       -0.31250       -0.06250       -0.18750
 BRILLOUIN|    92           0.00391       -0.31250       -0.06250       -0.06250
 BRILLOUIN|    93           0.00391       -0.31250       -0.06250        0.06250
 BRILLOUIN|    94           0.00391       -0.31250       -0.06250        0.18750
 BRILLOUIN|    95           0.00391       -0.31250       -0.06250        0.31250
 BRILLOUIN|    96           0.00391       -0.31250       -0.06250        0.43750
 BRILLOUIN|    97           0.00391       -0.31250        0.06250       -0.43750
 BRILLOUIN|    98           0.00391       -0.31250        0.06250       -0.31250
 BRILLOUIN|    99           0.00391       -0.31250        0.06250       -0.18750
 BRILLOUIN|   100           0.00391       -0.31250        0.06250       -0.06250
 BRILLOUIN|   101           0.00391       -0.31250        0.06250        0.06250
 BRILLOUIN|   102           0.00391       -0.31250        0.06250        0.18750
 BRILLOUIN|   103           0.00391       -0.31250        0.06250        0.31250
 BRILLOUIN|   104           0.00391       -0.31250        0.06250        0.43750
 BRILLOUIN|   105           0.00391       -0.31250        0.18750       -0.43750
 BRILLOUIN|   106           0.00391       -0.31250        0.18750       -0.31250
 BRILLOUIN|   107           0.00391       -0.31250        0.18750       -0.18750
 BRILLOUIN|   108           0.00391       -0.31250        0.18750       -0.06250
 BRILLOUIN|   109           0.00391       -0.31250        0.18750        0.06250
 BRILLOUIN|   110           0.00391       -0.31250        0.18750        0.18750
 BRILLOUIN|   111           0.00391       -0.31250        0.18750        0.31250
 BRILLOUIN|   112           0.00391       -0.31250        0.18750        0.43750
 BRILLOUIN|   113           0.00391       -0.31250        0.31250       -0.43750
 BRILLOUIN|   114           0.00391       -0.31250        0.31250       -0.31250
 BRILLOUIN|   115           0.00391       -0.31250        0.31250       -0.18750
 BRILLOUIN|   116           0.00391       -0.31250        0.31250       -0.06250
 BRILLOUIN|   117           0.00391       -0.31250        0.31250        0.06250
 BRILLOUIN|   118           0.00391       -0.31250        0.31250        0.18750
 BRILLOUIN|   119           0.00391       -0.31250        0.31250        0.31250
 BRILLOUIN|   120           0.00391       -0.31250        0.31250        0.43750
 BRILLOUIN|   121           0.00391       -0.31250        0.43750       -0.43750
 BRILLOUIN|   122           0.00391       -0.31250        0.43750       -0.31250
 BRILLOUIN|   123           0.00391       -0.31250        0.43750       -0.18750
 BRILLOUIN|   124           0.00391       -0.31250        0.43750       -0.06250
 BRILLOUIN|   125           0.00391       -0.31250        0.43750        0.06250
 BRILLOUIN|   126           0.00391       -0.31250        0.43750        0.18750
 BRILLOUIN|   127           0.00391       -0.31250        0.43750        0.31250
 BRILLOUIN|   128           0.00391       -0.31250        0.43750        0.43750
 BRILLOUIN|   129           0.00391       -0.18750       -0.43750       -0.43750
 BRILLOUIN|   130           0.00391       -0.18750       -0.43750       -0.31250
 BRILLOUIN|   131           0.00391       -0.18750       -0.43750       -0.18750
 BRILLOUIN|   132           0.00391       -0.18750       -0.43750       -0.06250
 BRILLOUIN|   133           0.00391       -0.18750       -0.43750        0.06250
 BRILLOUIN|   134           0.00391       -0.18750       -0.43750        0.18750
 BRILLOUIN|   135           0.00391       -0.18750       -0.43750        0.31250
 BRILLOUIN|   136           0.00391       -0.18750       -0.43750        0.43750
 BRILLOUIN|   137           0.00391       -0.18750       -0.31250       -0.43750
 BRILLOUIN|   138           0.00391       -0.18750       -0.31250       -0.31250
 BRILLOUIN|   139           0.00391       -0.18750       -0.31250       -0.18750
 BRILLOUIN|   140           0.00391       -0.18750       -0.31250       -0.06250
 BRILLOUIN|   141           0.00391       -0.18750       -0.31250        0.06250
 BRILLOUIN|   142           0.00391       -0.18750       -0.31250        0.18750
 BRILLOUIN|   143           0.00391       -0.18750       -0.31250        0.31250
 BRILLOUIN|   144           0.00391       -0.18750       -0.31250        0.43750
 BRILLOUIN|   145           0.00391       -0.18750       -0.18750       -0.43750
 BRILLOUIN|   146           0.00391       -0.18750       -0.18750       -0.31250
 BRILLOUIN|   147           0.00391       -0.18750       -0.18750       -0.18750
 BRILLOUIN|   148           0.00391       -0.18750       -0.18750       -0.06250
 BRILLOUIN|   149           0.00391       -0.18750       -0.18750        0.06250
 BRILLOUIN|   150           0.00391       -0.18750       -0.18750        0.18750
 BRILLOUIN|   151           0.00391       -0.18750       -0.18750        0.31250
 BRILLOUIN|   152           0.00391       -0.18750       -0.18750        0.43750
 BRILLOUIN|   153           0.00391       -0.18750       -0.06250       -0.43750
 BRILLOUIN|   154           0.00391       -0.18750       -0.06250       -0.31250
 BRILLOUIN|   155           0.00391       -0.18750       -0.06250       -0.18750
 BRILLOUIN|   156           0.00391       -0.18750       -0.06250       -0.06250
 BRILLOUIN|   157           0.00391       -0.18750       -0.06250        0.06250
 BRILLOUIN|   158           0.00391       -0.18750       -0.06250        0.18750
 BRILLOUIN|   159           0.00391       -0.18750       -0.06250        0.31250
 BRILLOUIN|   160           0.00391       -0.18750       -0.06250        0.43750
 BRILLOUIN|   161           0.00391       -0.18750        0.06250       -0.43750
 BRILLOUIN|   162           0.00391       -0.18750        0.06250       -0.31250
 BRILLOUIN|   163           0.00391       -0.18750        0.06250       -0.18750
 BRILLOUIN|   164           0.00391       -0.18750        0.06250       -0.06250
 BRILLOUIN|   165           0.00391       -0.18750        0.06250        0.06250
 BRILLOUIN|   166           0.00391       -0.18750        0.06250        0.18750
 BRILLOUIN|   167           0.00391       -0.18750        0.06250        0.31250
 BRILLOUIN|   168           0.00391       -0.18750        0.06250        0.43750
 BRILLOUIN|   169           0.00391       -0.18750        0.18750       -0.43750
 BRILLOUIN|   170           0.00391       -0.18750        0.18750       -0.31250
 BRILLOUIN|   171           0.00391       -0.18750        0.18750       -0.18750
 BRILLOUIN|   172           0.00391       -0.18750        0.18750       -0.06250
 BRILLOUIN|   173           0.00391       -0.18750        0.18750        0.06250
 BRILLOUIN|   174           0.00391       -0.18750        0.18750        0.18750
 BRILLOUIN|   175           0.00391       -0.18750        0.18750        0.31250
 BRILLOUIN|   176           0.00391       -0.18750        0.18750        0.43750
 BRILLOUIN|   177           0.00391       -0.18750        0.31250       -0.43750
 BRILLOUIN|   178           0.00391       -0.18750        0.31250       -0.31250
 BRILLOUIN|   179           0.00391       -0.18750        0.31250       -0.18750
 BRILLOUIN|   180           0.00391       -0.18750        0.31250       -0.06250
 BRILLOUIN|   181           0.00391       -0.18750        0.31250        0.06250
 BRILLOUIN|   182           0.00391       -0.18750        0.31250        0.18750
 BRILLOUIN|   183           0.00391       -0.18750        0.31250        0.31250
 BRILLOUIN|   184           0.00391       -0.18750        0.31250        0.43750
 BRILLOUIN|   185           0.00391       -0.18750        0.43750       -0.43750
 BRILLOUIN|   186           0.00391       -0.18750        0.43750       -0.31250
 BRILLOUIN|   187           0.00391       -0.18750        0.43750       -0.18750
 BRILLOUIN|   188           0.00391       -0.18750        0.43750       -0.06250
 BRILLOUIN|   189           0.00391       -0.18750        0.43750        0.06250
 BRILLOUIN|   190           0.00391       -0.18750        0.43750        0.18750
 BRILLOUIN|   191           0.00391       -0.18750        0.43750        0.31250
 BRILLOUIN|   192           0.00391       -0.18750        0.43750        0.43750
 BRILLOUIN|   193           0.00391       -0.06250       -0.43750       -0.43750
 BRILLOUIN|   194           0.00391       -0.06250       -0.43750       -0.31250
 BRILLOUIN|   195           0.00391       -0.06250       -0.43750       -0.18750
 BRILLOUIN|   196           0.00391       -0.06250       -0.43750       -0.06250
 BRILLOUIN|   197           0.00391       -0.06250       -0.43750        0.06250
 BRILLOUIN|   198           0.00391       -0.06250       -0.43750        0.18750
 BRILLOUIN|   199           0.00391       -0.06250       -0.43750        0.31250
 BRILLOUIN|   200           0.00391       -0.06250       -0.43750        0.43750
 BRILLOUIN|   201           0.00391       -0.06250       -0.31250       -0.43750
 BRILLOUIN|   202           0.00391       -0.06250       -0.31250       -0.31250
 BRILLOUIN|   203           0.00391       -0.06250       -0.31250       -0.18750
 BRILLOUIN|   204           0.00391       -0.06250       -0.31250       -0.06250
 BRILLOUIN|   205           0.00391       -0.06250       -0.31250        0.06250
 BRILLOUIN|   206           0.00391       -0.06250       -0.31250        0.18750
 BRILLOUIN|   207           0.00391       -0.06250       -0.31250        0.31250
 BRILLOUIN|   208           0.00391       -0.06250       -0.31250        0.43750
 BRILLOUIN|   209           0.00391       -0.06250       -0.18750       -0.43750
 BRILLOUIN|   210           0.00391       -0.06250       -0.18750       -0.31250
 BRILLOUIN|   211           0.00391       -0.06250       -0.18750       -0.18750
 BRILLOUIN|   212           0.00391       -0.06250       -0.18750       -0.06250
 BRILLOUIN|   213           0.00391       -0.06250       -0.18750        0.06250
 BRILLOUIN|   214           0.00391       -0.06250       -0.18750        0.18750
 BRILLOUIN|   215           0.00391       -0.06250       -0.18750        0.31250
 BRILLOUIN|   216           0.00391       -0.06250       -0.18750        0.43750
 BRILLOUIN|   217           0.00391       -0.06250       -0.06250       -0.43750
 BRILLOUIN|   218           0.00391       -0.06250       -0.06250       -0.31250
 BRILLOUIN|   219           0.00391       -0.06250       -0.06250       -0.18750
 BRILLOUIN|   220           0.00391       -0.06250       -0.06250       -0.06250
 BRILLOUIN|   221           0.00391       -0.06250       -0.06250        0.06250
 BRILLOUIN|   222           0.00391       -0.06250       -0.06250        0.18750
 BRILLOUIN|   223           0.00391       -0.06250       -0.06250        0.31250
 BRILLOUIN|   224           0.00391       -0.06250       -0.06250        0.43750
 BRILLOUIN|   225           0.00391       -0.06250        0.06250       -0.43750
 BRILLOUIN|   226           0.00391       -0.06250        0.06250       -0.31250
 BRILLOUIN|   227           0.00391       -0.06250        0.06250       -0.18750
 BRILLOUIN|   228           0.00391       -0.06250        0.06250       -0.06250
 BRILLOUIN|   229           0.00391       -0.06250        0.06250        0.06250
 BRILLOUIN|   230           0.00391       -0.06250        0.06250        0.18750
 BRILLOUIN|   231           0.00391       -0.06250        0.06250        0.31250
 BRILLOUIN|   232           0.00391       -0.06250        0.06250        0.43750
 BRILLOUIN|   233           0.00391       -0.06250        0.18750       -0.43750
 BRILLOUIN|   234           0.00391       -0.06250        0.18750       -0.31250
 BRILLOUIN|   235           0.00391       -0.06250        0.18750       -0.18750
 BRILLOUIN|   236           0.00391       -0.06250        0.18750       -0.06250
 BRILLOUIN|   237           0.00391       -0.06250        0.18750        0.06250
 BRILLOUIN|   238           0.00391       -0.06250        0.18750        0.18750
 BRILLOUIN|   239           0.00391       -0.06250        0.18750        0.31250
 BRILLOUIN|   240           0.00391       -0.06250        0.18750        0.43750
 BRILLOUIN|   241           0.00391       -0.06250        0.31250       -0.43750
 BRILLOUIN|   242           0.00391       -0.06250        0.31250       -0.31250
 BRILLOUIN|   243           0.00391       -0.06250        0.31250       -0.18750
 BRILLOUIN|   244           0.00391       -0.06250        0.31250       -0.06250
 BRILLOUIN|   245           0.00391       -0.06250        0.31250        0.06250
 BRILLOUIN|   246           0.00391       -0.06250        0.31250        0.18750
 BRILLOUIN|   247           0.00391       -0.06250        0.31250        0.31250
 BRILLOUIN|   248           0.00391       -0.06250        0.31250        0.43750
 BRILLOUIN|   249           0.00391       -0.06250        0.43750       -0.43750
 BRILLOUIN|   250           0.00391       -0.06250        0.43750       -0.31250
 BRILLOUIN|   251           0.00391       -0.06250        0.43750       -0.18750
 BRILLOUIN|   252           0.00391       -0.06250        0.43750       -0.06250
 BRILLOUIN|   253           0.00391       -0.06250        0.43750        0.06250
 BRILLOUIN|   254           0.00391       -0.06250        0.43750        0.18750
 BRILLOUIN|   255           0.00391       -0.06250        0.43750        0.31250
 BRILLOUIN|   256           0.00391       -0.06250        0.43750        0.43750
 *******************************************************************************

 *******************************************************************************
 *******************************************************************************
 **                                                                           **
 **     #####                         ##              ##                      **
 **    ##   ##            ##          ##              ##                      **
 **   ##     ##                       ##            ######                    **
 **   ##     ##  ##   ##  ##   #####  ##  ##   ####   ##    #####    #####    **
 **   ##     ##  ##   ##  ##  ##      ## ##   ##      ##   ##   ##  ##   ##   **
 **   ##  ## ##  ##   ##  ##  ##      ####     ###    ##   ######   ######    **
 **    ##  ###   ##   ##  ##  ##      ## ##      ##   ##   ##       ##        **
 **     #######   #####   ##   #####  ##  ##  ####    ##    #####   ##        **
 **           ##                                                    ##        **
 **                                                                           **
 **                                                ... make the atoms dance   **
 **                                                                           **
 **            Copyright (C) by CP2K developers group (2000-2025)             **
 **                      J. Chem. Phys. 152, 194103 (2020)                    **
 **                                                                           **
 *******************************************************************************

 DFT| Spin restricted Kohn-Sham (RKS) calculation                            RKS
 DFT| Multiplicity                                                             1
 DFT| Number of spin states                                                    1
 DFT| Charge                                                                   0
 DFT| Self-interaction correction (SIC)                                       NO
 DFT| Cutoffs: density                                              1.000000E-10
 DFT|          gradient                                             1.000000E-10
 DFT|          tau                                                  1.000000E-10
 DFT|          cutoff_smoothing_range                               0.000000E+00
 DFT| XC density smoothing                                                  NONE
 DFT| XC derivatives                                                          PW

 FUNCTIONAL| PBE:
 FUNCTIONAL| J.P.Perdew, K.Burke, M.Ernzerhof, Phys. Rev. Letter, vol. 77, n 18,
 FUNCTIONAL|  pp. 3865-3868, (1996) {spin unpolarized}                          


 QS| Method:                                                                 GPW
 QS| Density plane wave grid type                        NON-SPHERICAL FULLSPACE
 QS| Number of grid levels:                                                    4
 QS| Density cutoff [a.u.]:                                                500.0
 QS| Multi grid cutoff [a.u.]: 1) grid level                               500.0
 QS|                           2) grid level                               166.7
 QS|                           3) grid level                                55.6
 QS|                           4) grid level                                18.5
 QS| Grid level progression factor:                                          3.0
 QS| Relative density cutoff [a.u.]:                                        50.0
 QS| Interaction thresholds: eps_pgf_orb:                                1.0E-16
 QS|                         eps_filter_matrix:                          0.0E+00
 QS|                         eps_core_charge:                            1.0E-18
 QS|                         eps_rho_gspace:                             1.0E-16
 QS|                         eps_rho_rspace:                             1.0E-16
 QS|                         eps_gvg_rspace:                             1.0E-08
 QS|                         eps_ppl:                                    1.0E-02
 QS|                         eps_ppnl:                                   1.0E-10


 ATOMIC KIND INFORMATION

  1. Atomic kind: V                                     Number of atoms:       2

     Orbital Basis Set                                   TZVP-MOLOPT-GGA-GTH-q13

       Number of orbital shell sets:                                           1
       Number of orbital shells:                                              11
       Number of primitive Cartesian functions:                                6
       Number of Cartesian basis functions:                                   41
       Number of spherical basis functions:                                   35
       Norm type:                                                              2

       Normalised Cartesian orbitals:

                        Set   Shell   Orbital            Exponent    Coefficient

                          1       1    2s                7.334422       0.211175
                                                         3.711809       0.531595
                                                         1.527332      -0.431248
                                                         0.596297      -0.039522
                                                         0.214655      -0.097302
                                                         0.063437      -0.037653

                          1       2    3s                7.334422       0.317126
                                                         3.711809       0.572249
                                                         1.527332      -0.473718
                                                         0.596297      -0.302090
                                                         0.214655      -0.033205
                                                         0.063437       0.090196

                          1       3    4s                7.334422       0.159944
                                                         3.711809      -0.200742
                                                         1.527332       0.799073
                                                         0.596297       0.428120
                                                         0.214655      -0.392874
                                                         0.063437       0.064436

                          1       4    5s                7.334422       0.452195
                                                         3.711809       0.238773
                                                         1.527332      -0.580506
                                                         0.596297       0.434060
                                                         0.214655       0.063394
                                                         0.063437       0.023723

                          1       5    3px               7.334422      -2.100616
                                                         3.711809       1.110276
                                                         1.527332       1.115079
                                                         0.596297       0.268047
                                                         0.214655       0.041019
                                                         0.063437       0.007134
                          1       5    3py               7.334422      -2.100616
                                                         3.711809       1.110276
                                                         1.527332       1.115079
                                                         0.596297       0.268047
                                                         0.214655       0.041019
                                                         0.063437       0.007134
                          1       5    3pz               7.334422      -2.100616
                                                         3.711809       1.110276
                                                         1.527332       1.115079
                                                         0.596297       0.268047
                                                         0.214655       0.041019
                                                         0.063437       0.007134

                          1       6    4px               7.334422       0.555346
                                                         3.711809      -0.367926
                                                         1.527332      -0.728285
                                                         0.596297      -0.121932
                                                         0.214655       0.121976
                                                         0.063437       0.026959
                          1       6    4py               7.334422       0.555346
                                                         3.711809      -0.367926
                                                         1.527332      -0.728285
                                                         0.596297      -0.121932
                                                         0.214655       0.121976
                                                         0.063437       0.026959
                          1       6    4pz               7.334422       0.555346
                                                         3.711809      -0.367926
                                                         1.527332      -0.728285
                                                         0.596297      -0.121932
                                                         0.214655       0.121976
                                                         0.063437       0.026959

                          1       7    5px               7.334422       1.207043
                                                         3.711809      -0.582933
                                                         1.527332       1.168029
                                                         0.596297      -0.369393
                                                         0.214655      -0.197087
                                                         0.063437       0.046787
                          1       7    5py               7.334422       1.207043
                                                         3.711809      -0.582933
                                                         1.527332       1.168029
                                                         0.596297      -0.369393
                                                         0.214655      -0.197087
                                                         0.063437       0.046787
                          1       7    5pz               7.334422       1.207043
                                                         3.711809      -0.582933
                                                         1.527332       1.168029
                                                         0.596297      -0.369393
                                                         0.214655      -0.197087
                                                         0.063437       0.046787

                          1       8    4dx2              7.334422       4.921029
                                                         3.711809       3.765699
                                                         1.527332       1.283094
                                                         0.596297       0.288606
                                                         0.214655       0.019634
                                                         0.063437      -0.000924
                          1       8    4dxy              7.334422       8.523473
                                                         3.711809       6.522381
                                                         1.527332       2.222383
                                                         0.596297       0.499881
                                                         0.214655       0.034007
                                                         0.063437      -0.001600
                          1       8    4dxz              7.334422       8.523473
                                                         3.711809       6.522381
                                                         1.527332       2.222383
                                                         0.596297       0.499881
                                                         0.214655       0.034007
                                                         0.063437      -0.001600
                          1       8    4dy2              7.334422       4.921029
                                                         3.711809       3.765699
                                                         1.527332       1.283094
                                                         0.596297       0.288606
                                                         0.214655       0.019634
                                                         0.063437      -0.000924
                          1       8    4dyz              7.334422       8.523473
                                                         3.711809       6.522381
                                                         1.527332       2.222383
                                                         0.596297       0.499881
                                                         0.214655       0.034007
                                                         0.063437      -0.001600
                          1       8    4dz2              7.334422       4.921029
                                                         3.711809       3.765699
                                                         1.527332       1.283094
                                                         0.596297       0.288606
                                                         0.214655       0.019634
                                                         0.063437      -0.000924

                          1       9    5dx2              7.334422      -0.489387
                                                         3.711809      -0.202446
                                                         1.527332      -0.088804
                                                         0.596297      -0.070570
                                                         0.214655       0.064451
                                                         0.063437       0.008067
                          1       9    5dxy              7.334422      -0.847643
                                                         3.711809      -0.350648
                                                         1.527332      -0.153814
                                                         0.596297      -0.122231
                                                         0.214655       0.111633
                                                         0.063437       0.013973
                          1       9    5dxz              7.334422      -0.847643
                                                         3.711809      -0.350648
                                                         1.527332      -0.153814
                                                         0.596297      -0.122231
                                                         0.214655       0.111633
                                                         0.063437       0.013973
                          1       9    5dy2              7.334422      -0.489387
                                                         3.711809      -0.202446
                                                         1.527332      -0.088804
                                                         0.596297      -0.070570
                                                         0.214655       0.064451
                                                         0.063437       0.008067
                          1       9    5dyz              7.334422      -0.847643
                                                         3.711809      -0.350648
                                                         1.527332      -0.153814
                                                         0.596297      -0.122231
                                                         0.214655       0.111633
                                                         0.063437       0.013973
                          1       9    5dz2              7.334422      -0.489387
                                                         3.711809      -0.202446
                                                         1.527332      -0.088804
                                                         0.596297      -0.070570
                                                         0.214655       0.064451
                                                         0.063437       0.008067

                          1      10    6dx2              7.334422       5.691663
                                                         3.711809       4.623949
                                                         1.527332       2.081480
                                                         0.596297      -0.207476
                                                         0.214655      -0.075967
                                                         0.063437       0.008234
                          1      10    6dxy              7.334422       9.858249
                                                         3.711809       8.008914
                                                         1.527332       3.605228
                                                         0.596297      -0.359358
                                                         0.214655      -0.131579
                                                         0.063437       0.014262
                          1      10    6dxz              7.334422       9.858249
                                                         3.711809       8.008914
                                                         1.527332       3.605228
                                                         0.596297      -0.359358
                                                         0.214655      -0.131579
                                                         0.063437       0.014262
                          1      10    6dy2              7.334422       5.691663
                                                         3.711809       4.623949
                                                         1.527332       2.081480
                                                         0.596297      -0.207476
                                                         0.214655      -0.075967
                                                         0.063437       0.008234
                          1      10    6dyz              7.334422       9.858249
                                                         3.711809       8.008914
                                                         1.527332       3.605228
                                                         0.596297      -0.359358
                                                         0.214655      -0.131579
                                                         0.063437       0.014262
                          1      10    6dz2              7.334422       5.691663
                                                         3.711809       4.623949
                                                         1.527332       2.081480
                                                         0.596297      -0.207476
                                                         0.214655      -0.075967
                                                         0.063437       0.008234

                          1      11    5fx3              7.334422       0.657318
                                                         3.711809      -0.529873
                                                         1.527332      -0.268689
                                                         0.596297      -0.240683
                                                         0.214655      -0.025779
                                                         0.063437      -0.000065
                          1      11    5fx2y             7.334422       1.469808
                                                         3.711809      -1.184833
                                                         1.527332      -0.600806
                                                         0.596297      -0.538183
                                                         0.214655      -0.057643
                                                         0.063437      -0.000145
                          1      11    5fx2z             7.334422       1.469808
                                                         3.711809      -1.184833
                                                         1.527332      -0.600806
                                                         0.596297      -0.538183
                                                         0.214655      -0.057643
                                                         0.063437      -0.000145
                          1      11    5fxy2             7.334422       1.469808
                                                         3.711809      -1.184833
                                                         1.527332      -0.600806
                                                         0.596297      -0.538183
                                                         0.214655      -0.057643
                                                         0.063437      -0.000145
                          1      11    5fxyz             7.334422       2.545783
                                                         3.711809      -2.052190
                                                         1.527332      -1.040626
                                                         0.596297      -0.932161
                                                         0.214655      -0.099840
                                                         0.063437      -0.000251
                          1      11    5fxz2             7.334422       1.469808
                                                         3.711809      -1.184833
                                                         1.527332      -0.600806
                                                         0.596297      -0.538183
                                                         0.214655      -0.057643
                                                         0.063437      -0.000145
                          1      11    5fy3              7.334422       0.657318
                                                         3.711809      -0.529873
                                                         1.527332      -0.268689
                                                         0.596297      -0.240683
                                                         0.214655      -0.025779
                                                         0.063437      -0.000065
                          1      11    5fy2z             7.334422       1.469808
                                                         3.711809      -1.184833
                                                         1.527332      -0.600806
                                                         0.596297      -0.538183
                                                         0.214655      -0.057643
                                                         0.063437      -0.000145
                          1      11    5fyz2             7.334422       1.469808
                                                         3.711809      -1.184833
                                                         1.527332      -0.600806
                                                         0.596297      -0.538183
                                                         0.214655      -0.057643
                                                         0.063437      -0.000145
                          1      11    5fz3              7.334422       0.657318
                                                         3.711809      -0.529873
                                                         1.527332      -0.268689
                                                         0.596297      -0.240683
                                                         0.214655      -0.025779
                                                         0.063437      -0.000065

       Atomic covalent radius [Angstrom]:                                  1.220

       Atomic van der Waals radius [Angstrom]:                             1.610

     GTH Potential information for                                   GTH-PBE-q13

       Description:                       Goedecker-Teter-Hutter pseudopotential
                                           Goedecker et al., PRB 54, 1703 (1996)
                                          Hartwigsen et al., PRB 58, 3641 (1998)
                                                      Krack, TCA 114, 145 (2005)

       Gaussian exponent of the core charge distribution:               3.555556
       Electronic configuration (s p d ...):                           4   6   3

       Parameters of the local part of the GTH pseudopotential:

                          rloc        C1          C2          C3          C4
                        0.375000    7.474704   -0.370264

       Parameters of the non-local part of the GTH (SOC) pseudopotential:

                   l      r(l)      h(i,j,l)
                                    k(i,j,l)
                   0    0.327795    1.940878    4.725688
                                    4.725688   -6.100837
                   1    0.244766   -5.978167    9.358639
                                    9.358639  -11.073291
                                    0.190322   -0.059461
                                   -0.059461    0.070355
                   2    0.241739   -9.499891
                                    0.006482


 MOLECULE KIND INFORMATION


 All atoms are their own molecule, skipping detailed information


 TOTAL NUMBERS AND MAXIMUM NUMBERS

  Total number of            - Atomic kinds:                                   1
                             - Atoms:                                          2
                             - Shell sets:                                     2
                             - Shells:                                        22
                             - Primitive Cartesian functions:                 12
                             - Cartesian basis functions:                     82
                             - Spherical basis functions:                     70

  Maximum angular momentum of- Orbital basis functions:                        3
                             - Local part of the GTH pseudopotential:          2
                             - Non-local part of the GTH pseudopotential:      3


 MODULE QUICKSTEP: ATOMIC COORDINATES IN ANGSTROM

   Atom Kind Element         X             Y             Z       Z(eff)     Mass
      1    1 V    23      0.000000      0.000000      0.000000  13.0000  50.9415
      2    1 V    23      1.499470      1.499470      1.499470  13.0000  50.9415



 SCF PARAMETERS         Density guess:                                    ATOMIC
                        --------------------------------------------------------
                        max_scf:                                             500
                        max_scf_history:                                       0
                        max_diis:                                              4
                        --------------------------------------------------------
                        eps_scf:                                        1.00E-09
                        eps_scf_history:                                0.00E+00
                        eps_diis:                                       1.00E-01
                        eps_eigval:                                     1.00E-05
                        --------------------------------------------------------
                        level_shift [a.u.]:                             0.000000
                        added MOs                                        57    0
                        --------------------------------------------------------
                        Mixing method:                            BROYDEN_MIXING
                                                charge density mixing in g-space
                        --------------------------------------------------------
                        Smear method:                                FERMI_DIRAC
                        Electronic temperature [K]:                        300.0
                        Electronic temperature [a.u.]:                  9.50E-04
                        Accuracy threshold:                             1.00E-10
                        --------------------------------------------------------
                        No outer SCF

 PW_GRID| Information for grid number                                          1
 PW_GRID| Grid distributed over                                     8 processors
 PW_GRID| Real space group dimensions                                     8    1
 PW_GRID| the grid is blocked:                                                NO
 PW_GRID| Cutoff [a.u.]                                                    500.0
 PW_GRID| spherical cutoff:                                                   NO
 PW_GRID|   Bounds   1            -30      29                Points:          60
 PW_GRID|   Bounds   2            -30      29                Points:          60
 PW_GRID|   Bounds   3            -30      29                Points:          60
 PW_GRID| Volume element (a.u.^3)  0.8426E-03     Volume (a.u.^3)       182.0120
 PW_GRID| Grid span                                                    FULLSPACE
 PW_GRID|   Distribution                         Average         Max         Min
 PW_GRID|   G-Vectors                            27000.0       27000       27000
 PW_GRID|   G-Rays                                 450.0         450         450
 PW_GRID|   Real Space Points                    27000.0       28800       25200

 PW_GRID| Information for grid number                                          2
 PW_GRID| Number of the reference grid                                         1
 PW_GRID| Grid distributed over                                     8 processors
 PW_GRID| Real space group dimensions                                     8    1
 PW_GRID| the grid is blocked:                                                NO
 PW_GRID| Cutoff [a.u.]                                                    166.7
 PW_GRID| spherical cutoff:                                                   NO
 PW_GRID|   Bounds   1            -18      17                Points:          36
 PW_GRID|   Bounds   2            -18      17                Points:          36
 PW_GRID|   Bounds   3            -18      17                Points:          36
 PW_GRID| Volume element (a.u.^3)  0.3901E-02     Volume (a.u.^3)       182.0120
 PW_GRID| Grid span                                                    FULLSPACE
 PW_GRID|   Distribution                         Average         Max         Min
 PW_GRID|   G-Vectors                             5832.0        5904        5796
 PW_GRID|   G-Rays                                 162.0         164         161
 PW_GRID|   Real Space Points                     5832.0        6480        5184

 PW_GRID| Information for grid number                                          3
 PW_GRID| Number of the reference grid                                         1
 PW_GRID| Grid distributed over                                     8 processors
 PW_GRID| Real space group dimensions                                     8    1
 PW_GRID| the grid is blocked:                                                NO
 PW_GRID| Cutoff [a.u.]                                                     55.6
 PW_GRID| spherical cutoff:                                                   NO
 PW_GRID|   Bounds   1            -10       9                Points:          20
 PW_GRID|   Bounds   2            -10       9                Points:          20
 PW_GRID|   Bounds   3            -10       9                Points:          20
 PW_GRID| Volume element (a.u.^3)  0.2275E-01     Volume (a.u.^3)       182.0120
 PW_GRID| Grid span                                                    FULLSPACE
 PW_GRID|   Distribution                         Average         Max         Min
 PW_GRID|   G-Vectors                             1000.0        1040         980
 PW_GRID|   G-Rays                                  50.0          52          49
 PW_GRID|   Real Space Points                     1000.0        1200         800

 PW_GRID| Information for grid number                                          4
 PW_GRID| Number of the reference grid                                         1
 PW_GRID| Grid distributed over                                     8 processors
 PW_GRID| Real space group dimensions                                     8    1
 PW_GRID| the grid is blocked:                                                NO
 PW_GRID| Cutoff [a.u.]                                                     18.5
 PW_GRID| spherical cutoff:                                                   NO
 PW_GRID|   Bounds   1             -6       5                Points:          12
 PW_GRID|   Bounds   2             -6       5                Points:          12
 PW_GRID|   Bounds   3             -6       5                Points:          12
 PW_GRID| Volume element (a.u.^3)  0.1053         Volume (a.u.^3)       182.0120
 PW_GRID| Grid span                                                    FULLSPACE
 PW_GRID|   Distribution                         Average         Max         Min
 PW_GRID|   G-Vectors                              216.0         240         204
 PW_GRID|   G-Rays                                  18.0          20          17
 PW_GRID|   Real Space Points                      216.0         288         144

 POISSON| Solver                                                        PERIODIC
 POISSON| Periodicity                                                        XYZ

 RS_GRID| Information for grid number                                          1
 RS_GRID|   Bounds   1            -30      29                Points:          60
 RS_GRID|   Bounds   2            -30      29                Points:          60
 RS_GRID|   Bounds   3            -30      29                Points:          60
 RS_GRID| Real space fully replicated
 RS_GRID| Group size                                                           1

 RS_GRID| Information for grid number                                          2
 RS_GRID|   Bounds   1            -18      17                Points:          36
 RS_GRID|   Bounds   2            -18      17                Points:          36
 RS_GRID|   Bounds   3            -18      17                Points:          36
 RS_GRID| Real space fully replicated
 RS_GRID| Group size                                                           1

 RS_GRID| Information for grid number                                          3
 RS_GRID|   Bounds   1            -10       9                Points:          20
 RS_GRID|   Bounds   2            -10       9                Points:          20
 RS_GRID|   Bounds   3            -10       9                Points:          20
 RS_GRID| Real space fully replicated
 RS_GRID| Group size                                                           1

 RS_GRID| Information for grid number                                          4
 RS_GRID|   Bounds   1             -6       5                Points:          12
 RS_GRID|   Bounds   2             -6       5                Points:          12
 RS_GRID|   Bounds   3             -6       5                Points:          12
 RS_GRID| Real space fully replicated
 RS_GRID| Group size                                                           1

 Number of electrons:                                                         26
 Number of occupied orbitals:                                                 13
 Number of molecular orbitals:                                                70

 Number of orbital functions:                                                 70
 Number of independent orbital functions:                                     70

 Extrapolation method: initial_guess

 Atomic guess: The first density matrix is obtained in terms of atomic orbitals
               and electronic configurations assigned to each atomic kind

 Guess for atomic kind: V

 Electronic structure
    Total number of core electrons                                         10.00
    Total number of valence electrons                                      13.00
    Total number of electrons                                              23.00
    Multiplicity                                                   not specified
    S   [  2.00  2.00] 2.00  2.00
    P   [  6.00] 6.00
    D      3.00


 *******************************************************************************
                  Iteration          Convergence                     Energy [au]
 *******************************************************************************
                          1         4.35724                     -67.242523530259
                          2         2.24279                     -68.958653611182
                          3        0.398768                     -70.894329070629
                          4        0.635398E-01                 -70.927797633540
                          5        0.124026E-01                 -70.929246702091
                          6        0.214735E-03                 -70.929312885909
                          7        0.176655E-06                 -70.929312900124

 Energy components [Hartree]           Total Energy ::          -70.929312900124
                                        Band Energy ::          -15.377509527761
                                     Kinetic Energy ::           33.052094956444
                                   Potential Energy ::         -103.981407856567
                                      Virial (-V/T) ::            3.145985390445
                                        Core Energy ::         -120.876962274968
                                          XC Energy ::           -8.161499032386
                                     Coulomb Energy ::           58.109148407231
                       Total Pseudopotential Energy ::         -154.039828883534
                       Local Pseudopotential Energy ::         -147.490916807035
                    Nonlocal Pseudopotential Energy ::           -6.548912076499
                                        Confinement ::            1.107716521219

 Orbital energies  State     L     Occupation   Energy[a.u.]          Energy[eV]

                       1     0          2.000      -2.617567          -71.227608
                       2     0          2.000      -0.132600           -3.608233

                       1     1          6.000      -1.566757          -42.633630

                       1     2          3.000      -0.158878           -4.323283


 Total Electron Density at R=0:                                         0.004287
 Re-scaling the density matrix to get the right number of electrons
                  # Electrons              Trace(P)               Scaling factor
                           26                26.000                        1.000


 SCF WAVEFUNCTION OPTIMIZATION

  Step     Update method      Time    Convergence         Total energy    Change
  ------------------------------------------------------------------------------
     1 NoMix/Diag. 0.10E+00   21.9     2.38551245      -144.0517397347 -1.44E+02
     2 Broy./Diag. 0.10E+00   22.5     0.00614645      -145.0117863646 -9.60E-01
     3 Broy./Diag. 0.10E+00   22.5     0.02513161      -144.1658966666  8.46E-01
     4 Broy./Diag. 0.10E+00   22.5     0.00257351      -142.9390556463  1.23E+00
     5 Broy./Diag. 0.10E+00   22.5     0.01335751      -142.9889718707 -4.99E-02
     6 Broy./Diag. 0.10E+00   22.4     0.00071397      -143.0981164025 -1.09E-01
     7 Broy./Diag. 0.10E+00   22.7     0.00114860      -143.1155821267 -1.75E-02
     8 Broy./Diag. 0.10E+00   22.5     0.00014511      -143.1049169825  1.07E-02
     9 Broy./Diag. 0.10E+00   22.6     0.00001450      -143.1019418961  2.98E-03
    10 Broy./Diag. 0.10E+00   22.5     0.00001688      -143.1010833960  8.59E-04
    11 Broy./Diag. 0.10E+00   22.5     0.00000049      -143.1007406869  3.43E-04
    12 Broy./Diag. 0.10E+00   22.5     0.00000512      -143.1007493472 -8.66E-06
    13 Broy./Diag. 0.10E+00   22.5     0.00000003      -143.1007538348 -4.49E-06
    14 Broy./Diag. 0.10E+00   22.5     0.00000025      -143.1007566657 -2.83E-06
    15 Broy./Diag. 0.10E+00   22.5     5.2091E-09      -143.1007562920  3.74E-07
    16 Broy./Diag. 0.10E+00   22.5     0.00000003      -143.1007563265 -3.45E-08
    17 Broy./Diag. 0.10E+00   22.6     9.7897E-10      -143.1007563326 -6.09E-09

  *** SCF run converged in    17 steps ***


  Electronic density on regular grids:        -26.0000000000        0.0000000000
  Core density on regular grids:               26.0000000000        0.0000000000
  Total charge density on r-space grids:        0.0000000000
  Total charge density g-space grids:           0.0000000000

  Overlap energy of the core charge distribution:               0.00000000000000
  Self energy of the core charge distribution:               -254.26143898552218
  Core Hamiltonian energy:                                     66.66395894282539
  Hartree energy:                                              61.79849211026590
  Exchange-correlation energy:                                -17.30167246711218
  Electronic entropic energy:                                  -0.00009593307715
  Fermi energy:                                                 0.48432445503625

  Total energy:                                              -143.10075633261906

 !-----------------------------------------------------------------------------!
                     Mulliken Population Analysis

 #  Atom  Element  Kind  Atomic population                           Net charge
       1     V        1         13.000000                              0.000000
       2     V        1         13.000000                              0.000000
 # Total charge                             26.000000                  0.000000

 !-----------------------------------------------------------------------------!

 !-----------------------------------------------------------------------------!
                           Hirshfeld Charges

  #Atom  Element  Kind  Ref Charge     Population                    Net charge
      1       V      1      13.000         13.000                         0.000
      2       V      1      13.000         13.000                         0.000

  Total Charge                                                            0.000
 !-----------------------------------------------------------------------------!

 KPOINTS| Band Structure Calculation
 KPOINTS| Number of k-point sets                                               1
 KPOINTS| Number of added MOs/bands                                           -1
 KPOINTS| Number of k-points in set    1                                     148
 KPOINTS| In units of b-vector [2pi/Bohr]
 KPOINTS| Special point     1 not specifi     0.000000     0.000000     0.000000
 KPOINTS| Special point     2 not specifi     0.500000    -0.500000     0.500000
 KPOINTS| Special point     3 not specifi     0.000000     0.000000     0.500000
 KPOINTS| Special point     4 not specifi     0.000000     0.000000     0.000000
 KPOINTS| Time for k-point line                                            8.536

 ENERGY| Total FORCE_EVAL ( QS ) energy [hartree]           -143.100756332619056

 -------------------------------------------------------------------------------
 -                                                                             -
 -                                DBCSR STATISTICS                             -
 -                                                                             -
 -------------------------------------------------------------------------------
 COUNTER                                    TOTAL       BLAS       SMM       ACC
 flops inhomo. stacks                           0       0.0%      0.0%      0.0%
 flops total                         0.000000E+00       0.0%      0.0%      0.0%
 flops max/rank                      0.000000E+00       0.0%      0.0%      0.0%
 matmuls inhomo. stacks                         0       0.0%      0.0%      0.0%
 matmuls total                                  0       0.0%      0.0%      0.0%
 number of processed stacks                     0       0.0%      0.0%      0.0%
 average stack size                                     0.0       0.0       0.0
 marketing flops                     0.000000E+00
 -------------------------------------------------------------------------------
 -                                                                             -
 -                      DBCSR MESSAGE PASSING PERFORMANCE                      -
 -                                                                             -
 -------------------------------------------------------------------------------
 ROUTINE             CALLS      AVE VOLUME [Bytes]
 MP_Bcast                1                     12.
 MP_Allreduce           19                     21.
 MP_Alltoall        403492                   7823.
 -------------------------------------------------------------------------------

 -------------------------------------------------------------------------------
 -                                                                             -
 -                                DBM STATISTICS                               -
 -                                                                             -
 -------------------------------------------------------------------------------
    M  x    N  x    K                                          COUNT     PERCENT
 -------------------------------------------------------------------------------

 -------------------------------------------------------------------------------
 -                                                                             -
 -                                GRID STATISTICS                              -
 -                                                                             -
 -------------------------------------------------------------------------------
 LP    KERNEL             BACKEND                              COUNT     PERCENT
 6     collocate ortho    CPU                                 465480      51.43%
 6     integrate ortho    CPU                                 439620      48.57%
 0     collocate general  CPU                                      4       0.00%
 0     integrate general  CPU                                      2       0.00%
 -------------------------------------------------------------------------------

 MEMORY| Estimated peak process memory [MiB]                                 803

 -------------------------------------------------------------------------------
 ----                             MULTIGRID INFO                            ----
 -------------------------------------------------------------------------------
 count for grid        1:          85732          cutoff [a.u.]          500.00
 count for grid        2:          36864          cutoff [a.u.]          166.67
 count for grid        3:          27866          cutoff [a.u.]           55.56
 count for grid        4:          28974          cutoff [a.u.]           18.52
 total gridlevel count  :         179436

 -------------------------------------------------------------------------------
 -                                                                             -
 -                         MESSAGE PASSING PERFORMANCE                         -
 -                                                                             -
 -------------------------------------------------------------------------------

 ROUTINE             CALLS      AVE VOLUME [Bytes]
 MP_Group                6
 MP_Bcast           161312                  26853.
 MP_Allreduce       156365                     25.
 MP_Sync                 4
 MP_Alltoall           311                1237066.
 MP_SendRecv           518                  77776.
 MP_ISendRecv          483                  75809.
 MP_Wait            110711
 MP_comm_split           4
 MP_ISend           117644                   1167.
 MP_IRecv           187520                    721.
 -------------------------------------------------------------------------------


 -------------------------------------------------------------------------------
 -                                                                             -
 -                           R E F E R E N C E S                               -
 -                                                                             -
 -------------------------------------------------------------------------------
 
 CP2K version 2025.1 (Development Version), the CP2K developers group (2025).
 CP2K is freely available from https://www.cp2k.org/ .
 
 T. D. Kuehne, M. Iannuzzi, M. Del Ben, V. V. Rybkin, P. Seewald, F. Stein, T. 
 Laino, R. Z. Khaliullin, O. Schuett, F. Schiffmann, D. Golze, J. Wilhelm, S. 
 Chulkov, M. H. Bani-Hashemian, V. Weber, U. Borstnik, M. Taillefumier, A. S. 
 Jakobovits, A. Lazzaro, H. Pabst, T. Mueller, R. Schade, M. Guidon, S. 
 Andermatt, N. Holmberg, G. K. Schenter, A. Hehn, A. Bussy, F. Belleflamme, G. 
 Tabacchi, A. Gloess, M. Lass, I. Bethune, C. J. Mundy, C. Plessl, M. Watkins, 
 J. VandeVondele, M. Krack, J. Hutter.
 J. Chem. Phys. 152, 194103 (2020).
 CP2K: An electronic structure and molecular dynamics software package - 
 Quickstep: Efficient and accurate electronic structure calculations.
 https://doi.org/10.1063/5.0007045

 O. Schuett, P. Messmer, J. Hutter, J. VandeVondele.
 Electronic Structure Calculations on Graphics Processing Units, 173-190 (2016).
 GPU-Accelerated Sparse Matrix-Matrix Multiplication for Linear Scaling Density 
 Functional Theory.
 https://doi.org/10.1002/9781118670712.ch8

 J. Hutter, M. Iannuzzi, F. Schiffmann, J. VandeVondele.
 WIREs Comput Mol Sci. 4, 15-25 (2014).
 CP2K: atomistic simulations of condensed matter systems.
 https://doi.org/10.1002/wcms.1159

 U. Borstnik, J. VandeVondele, V. Weber, J. Hutter.
 Parallel Comput. 40, 47-58 (2014).
 Sparse matrix multiplication: The distributed block-compressed sparse row 
 library.
 https://doi.org/10.1016/j.parco.2014.03.012

 J. VandeVondele, J. Hutter.
 J. Chem. Phys. 127, 114105 (2007).
 Gaussian basis sets for accurate calculations on molecular systems in gas and 
 condensed phases.
 https://doi.org/10.1063/1.2770708

 J. VandeVondele, M. Krack, F. Mohamed, M. Parrinello, T. Chassaing, J. Hutter.
 Comput. Phys. Commun. 167, 103-128 (2005).
 QUICKSTEP: Fast and accurate density functional calculations using a mixed 
 Gaussian and plane waves approach.
 https://doi.org/10.1016/j.cpc.2004.12.014

 M. Krack.
 Theor. Chem. Acc. 114, 145-152 (2005).
 Pseudopotentials for H to Kr optimized for gradient-corrected 
 exchange-correlation functionals.
 https://doi.org/10.1007/s00214-005-0655-y

 M. Frigo, S. G. Johnson.
 Proc. IEEE 93, 216-231 (2005).
 The design and implementation of FFTW3.
 https://doi.org/10.1109/JPROC.2004.840301

 C. Hartwigsen, S. Goedecker, J. Hutter.
 Phys. Rev. B 58, 3641-3662 (1998).
 Relativistic separable dual-space Gaussian pseudopotentials from H to Rn.
 https://doi.org/10.1103/PhysRevB.58.3641

 G. Lippert, J. Hutter, M. Parrinello.
 Mol. Phys. 92, 477-487 (1997).
 A hybrid Gaussian and plane wave density functional scheme.
 https://doi.org/10.1080/002689797170220

 S. Goedecker, M. Teter, J. Hutter.
 Phys. Rev. B 54, 1703-1710 (1996).
 Separable dual-space Gaussian pseudopotentials.
 https://doi.org/10.1103/PhysRevB.54.1703

 J. P. Perdew, K. Burke, M. Ernzerhof.
 Phys. Rev. Lett. 77, 3865-3868 (1996).
 Generalized gradient approximation made simple.
 https://doi.org/10.1103/PhysRevLett.77.3865


 -------------------------------------------------------------------------------
 -                                                                             -
 -                                T I M I N G                                  -
 -                                                                             -
 -------------------------------------------------------------------------------
 SUBROUTINE                       CALLS  ASD         SELF TIME        TOTAL TIME
                                MAXIMUM       AVERAGE  MAXIMUM  AVERAGE  MAXIMUM
 CP2K                                 1  1.0    0.023    0.026  402.232  402.232
 qs_energies                          1  2.0    0.014    0.040  401.059  401.076
 scf_env_do_scf                       1  3.0    0.000    0.000  384.945  384.945
 scf_env_do_scf_inner_loop           17  4.0    0.045    0.047  384.945  384.945
 do_general_diag_kp                  18  5.8    0.100    0.116  376.707  378.855
 qs_scf_new_mos_kp                   17  5.0    0.000    0.000  368.253  370.386
 mp_alltoall_i22                  68798  8.7  293.537  360.154  293.537  360.154
 dbcsr_desymmetrize_deep          39047  7.4    0.600    0.775  206.960  253.394
 rskp_transform                    9000  6.9   43.964  236.905   43.964  236.905
 dbcsr_complete_redistribute      29751  8.1    1.025    1.216   98.917  119.084
 kpoint_density_transform            17  7.0    0.064    0.075  113.869  114.232
 copy_fm_to_dbcsr                  8704  8.0    0.051    0.060   92.475  112.449
 transform_dmat                    4352  8.0   20.037  109.385   20.037  109.385
 qs_ks_update_qs_env                 17  5.0    0.000    0.000    4.748   14.317
 rebuild_ks_matrix                   17  6.0    0.000    0.000    2.982   12.550
 qs_ks_build_kohn_sham_matrix        17  7.0    0.085    0.088    2.981   12.550
 sum_up_and_integrate                17  8.0    0.000    0.000    2.333   11.849
 integrate_v_rspace                  17  9.0    0.057    0.307    2.333   11.849
 transfer_rs2pw                      74  8.0    0.001    0.001    9.572   11.789
 mp_sendrecv_dv                     518 10.0    9.552   11.768    9.552   11.768
 transfer_rs2pw_500                  20  8.8    0.015    0.018    9.554   11.768
 copy_dbcsr_to_fm                 21047  6.8    0.214    0.240   11.570   11.708
 grid_integrate_task_list            17 10.0    2.155   11.472    2.155   11.472
 qs_rho_update_rho_low               18  5.0    0.000    0.000    8.224    8.253
 calculate_rho_elec                  18  6.0    0.011    0.034    8.224    8.253
 density_rs2pw                       18  7.0    0.001    0.001    6.692    8.220
 grid_collocate_task_list            18  7.0    1.520    8.044    1.520    8.044
 cp_dbcsr_alloc_block_from_nbl    21433  5.0    0.970    4.976    1.063    5.373
 qs_energies_init_hamiltonians        1  3.0    0.000    0.000    4.648    4.648
 build_core_hamiltonian_matrix        1  4.0    0.011    0.011    0.835    3.749
 qs_env_update_s_mstruct              1  4.0    0.000    0.000    3.106    3.639
 calculate_rho_core                   1  5.0    0.000    0.001    2.921    3.608
 mp_sum_d                        104153  9.0    2.808    3.355    2.808    3.355
 dbcsr_dot                       103599  8.0    0.491    0.925    2.926    3.212
 dbcsr_finalize                  117758  7.6    0.437    0.528    2.829    3.135
 cp_fm_start_copy_general         26704  7.3    0.443    0.621    2.718    2.772
 mp_alltoall_d11v                206394  9.3    2.313    2.422    2.313    2.422
 dbcsr_create_new                223599  7.6    1.625    2.148    1.771    2.308
 write_kpoints_restart               17  5.0    0.015    0.019    2.304    2.304
 init_scf_run                         1  3.0    0.000    0.000    1.731    2.015
 scf_env_initial_rho_setup            1  4.0    0.000    0.000    1.731    2.015
 dbcsr_merge_all                  29751 10.1    1.150    1.401    1.716    1.948
 cp_cfm_geeig_canon                 581  6.8    0.005    0.005    1.784    1.812
 evaluate_core_matrix_traces         17  6.0    0.000    0.000    1.767    1.767
 calculate_ptrace_kp                 34  7.0    0.077    0.079    1.767    1.767
 mp_cart_sub                      42096  8.8    1.753    1.766    1.753    1.766
 cp_cfm_heevd                      1162  7.8    0.001    0.002    1.621    1.647
 cp_cfm_heevd_base                 1162  8.8    1.620    1.646    1.620    1.646
 hybrid_alltoall_any              39047  8.4    0.156    0.167    1.522    1.604
 mixing_allocate                      1  3.0    0.017    0.018    0.347    1.579
 calculate_first_density_matrix       1  5.0    0.002    0.002    1.248    1.532
 calculate_atomic_block_dm            1  6.0    0.001    0.001    1.241    1.526
 self_consistency_check              17  5.0    0.073    0.075    1.374    1.452
 mp_allgather_i                   53408  8.3    1.298    1.409    1.298    1.409
 cp_sm_mix                        51799  6.0    0.169    0.407    1.212    1.314
 mp_alltoall_i11v                128300  8.9    1.191    1.223    1.191    1.223
 dbcsr_copy                      115349  6.6    0.644    0.722    0.966    1.164
 mp_max_d                         51801  7.0    0.919    1.077    0.919    1.077
 mp_cart_create                   21054  8.8    1.015    1.061    1.015    1.061
 create_qs_kind_set                   1  2.0    0.000    0.000    1.005    1.005
 read_qs_kind                         1  3.0    0.616    0.624    1.005    1.005
 copy_fm_to_dbcsr_bc               8704  9.0    0.117    0.127    0.456    0.896
 build_overlap_matrix_low             1  5.0    0.032    0.088    0.194    0.867
 build_kinetic_matrix_low             1  5.0    0.032    0.086    0.192    0.856
 cp_fm_write_unformatted           3047  6.0    0.609    0.805    0.621    0.853
 calculate_ecore_overlap              1  4.0    0.000    0.000    0.666    0.820
 qs_env_rebuild_rho                   1  5.0    0.000    0.000    0.173    0.787
 qs_rho_rebuild                       1  6.0    0.009    0.009    0.173    0.787
 mp_sum_iv                           24  5.3    0.617    0.760    0.617    0.760
 qs_scf_ensure_work_matrices          1  3.0    0.000    0.000    0.617    0.759
 mp_bcast_iv                     106970  8.3    0.652    0.744    0.652    0.744
 dbcsr_work_create                68798  8.7    0.405    0.432    0.660    0.738
 build_core_ppnl                      1  5.0    0.150    0.718    0.150    0.718
 dbcsr_iterator_start            349296  8.6    0.613    0.624    0.702    0.714
 dbcsr_data_new                  766412  9.5    0.425    0.516    0.425    0.516
 dbcsr_set                       169700  7.1    0.147    0.154    0.260    0.515
 tree_to_linear_d                 29751 11.1    0.443    0.507    0.443    0.507
 copy_dbcsr_to_fm_bc              21047  7.8    0.210    0.217    0.488    0.493
 dbcsr_work_destroy_all           68798  9.7    0.326    0.328    0.489    0.492
 dbcsr_iterator_stop             349296  8.6    0.387    0.395    0.460    0.471
 parser_read_line                134577  4.0    0.044    0.046    0.445    0.449
 dbcsr_reserve_blocks             30137  7.5    0.121    0.422    0.133    0.446
 dbcsr_data_release             1193802  9.8    0.406    0.440    0.406    0.440
 build_core_ppl                       1  5.0    0.079    0.437    0.079    0.437
 kpoint_set_mo_occupation            17  7.0    0.391    0.395    0.422    0.433
 parser_read_line_low               153  5.2    0.048    0.200    0.401    0.406
 broadcast_input_information        153  6.2    0.099    0.102    0.353    0.382
 dbcsr_destroy                   120001  7.2    0.189    0.206    0.342    0.365
 dbcsr_zero                      169700  8.1    0.113    0.360    0.113    0.360
 fft_wrap_pw1pw2                    311 10.0    0.002    0.002    0.239    0.272
 dbcsr_copy_into_existing         11751  9.0    0.088    0.191    0.153    0.260
 fft_wrap_pw1pw2_500                206 11.3    0.010    0.011    0.218    0.250
 fft3d_ps                           311 12.0    0.053    0.056    0.208    0.241
 mp_bcast_im                      53408  8.3    0.198    0.227    0.198    0.227
 cp_fm_finish_copy_general        11028  7.7    0.185    0.204    0.201    0.226
 quick_finalize                   39047  9.4    0.099    0.128    0.165    0.224
 kpoint_density_matrices             17  7.0    0.009    0.009    0.174    0.200
 parallel_gemm_fm                  2176  8.0    0.002    0.002    0.161    0.187
 parallel_gemm_fm_gemm             2176  9.0    0.002    0.002    0.159    0.185
 cp_fm_gemm                        2176 10.0    0.157    0.183    0.157    0.183
 mp_waitall_1                    110711  8.3    0.088    0.178    0.088    0.178
 mp_bcast_i_src                     612  7.2    0.142    0.170    0.142    0.170
 mp_alltoall_z22v                   311 14.0    0.137    0.167    0.137    0.167
 mp_comm_free                     63186  8.8    0.147    0.159    0.147    0.159
 potential_pw2rs                     17 10.0    0.001    0.001    0.121    0.155
 cp_cfm_gemm                       1743  7.8    0.146    0.149    0.146    0.149
 yz_to_x                            141 12.8    0.005    0.006    0.096    0.128
 qs_vxc_create                       17  8.0    0.000    0.000    0.124    0.124
 xc_vxc_pw_create                    17  9.0    0.004    0.005    0.124    0.124
 mp_bcast_am_src                    153  7.2    0.099    0.104    0.110    0.116
 dbcsr_iterator_seek             349296  9.6    0.089    0.110    0.089    0.110
 dbcsr_make_index_exist          223599  8.6    0.096    0.107    0.096    0.107
 dbcsr_sort_indices               98935 10.5    0.050    0.093    0.050    0.093
 xc_pw_derive                       102 11.0    0.000    0.000    0.081    0.084
 kpoint_init_cell_index               2  3.5    0.053    0.067    0.073    0.075
 dbcsr_reserve_all_blocks          8704 10.0    0.013    0.016    0.062    0.074
 gspace_mixing                       16  5.0    0.003    0.004    0.073    0.073
 mp_isend_dv                      27296  8.2    0.063    0.067    0.063    0.067
 xc_rho_set_and_dset_create          17 10.0    0.004    0.005    0.063    0.065
 merge_index                      29751 11.1    0.058    0.064    0.058    0.064
 qs_create_task_list                  1  5.0    0.000    0.000    0.012    0.063
 generate_qs_task_list                1  6.0    0.009    0.050    0.012    0.063
 topology_control                     1  2.0    0.000    0.000    0.062    0.062
 x_to_yz                            170 13.2    0.011    0.011    0.057    0.059
 scf_post_calculation_gpw             1  3.0    0.000    0.000    0.058    0.059
 write_available_results              1  4.0    0.000    0.000    0.058    0.058
 write_mo_free_results                1  5.0    0.001    0.001    0.058    0.058
 xc_pw_divergence                    17 10.0    0.000    0.000    0.054    0.057
 mp_sum_dv                          312  3.2    0.038    0.056    0.038    0.056
 broyden_mixing                      16  6.0    0.053    0.054    0.055    0.056
 mp_irecv_iv                     106816  8.3    0.007    0.054    0.007    0.054
 dbcsr_data_copy_aa2              29751 10.9    0.024    0.050    0.024    0.050
 mp_recv_dv                        9141  7.0    0.006    0.048    0.006    0.048
 dbcsr_switch_data_area           39047 10.4    0.036    0.037    0.046    0.048
 transfer_pw2rs                      69 10.9    0.000    0.000    0.047    0.047
 mp_sum_dm3                          17  8.0    0.031    0.044    0.031    0.044
 read_cell_cif                        2  4.5    0.002    0.004    0.043    0.043
 cp_fm_cleanup_copy_general       19088  7.0    0.026    0.028    0.040    0.042
 -------------------------------------------------------------------------------

 The number of warnings for this run is : 1
 
 -------------------------------------------------------------------------------
  **** **** ******  **  PROGRAM ENDED AT                 2025-08-03 20:57:16.394
 ***** ** ***  *** **   PROGRAM RAN ON                              i04r10c03s04
 **    ****   ******    PROGRAM RAN BY                                   di38fab
 ***** **    ** ** **   PROGRAM PROCESS ID                               3764270
  **** **  *******  **  PROGRAM STOPPED IN /hppfs/scratch/04/di38fab/09_GTH/Delt
                                           a_Set/V/TZVP-MOLOPT-PBE-GTH/8x8x8
