Au                                      
   1.00000000000000     
     4.174100    0.000000    0.000000
     0.000000    4.174100    0.000000
     0.000000    0.000000    4.174100
   Au
     4
Direct
  0.000000  0.000000  0.000000
  0.000000  0.500000  0.500000
  0.500000  0.000000  0.500000
  0.500000  0.500000  0.000000
 
   36   36   36
  353.81      341.21      308.58      266.93      224.55      183.21      141.76      101.49      66.947      42.223    
  27.401      18.796      13.572      10.544      8.7499      7.6146      6.9079      6.5456      6.4416      6.5456    
  6.9079      7.6146      8.7499      10.544      13.572      18.796      27.401      42.223      66.947      101.49    
  141.76      183.21      224.55      266.93      308.58      341.21      341.21      329.48      298.99      259.69    
  219.06      178.79      138.10      98.667      65.077      41.200      26.927      18.576      13.501      10.554    
  8.8035      7.6931      7.0015      6.6473      6.5456      6.6473      7.0015      7.6931      8.8035      10.554    
  13.501      18.576      26.927      41.200      65.077      98.667      138.10      178.79      219.06      259.69    
  298.99      329.48      308.58      298.99      273.70      240.10      203.75      166.17      127.63      90.672    
  59.846      38.378      25.622      17.981      13.333      10.624      9.0032      7.9712      7.3291      7.0015    
  6.9079      7.0015      7.3291      7.9712      9.0032      10.624      13.333      17.981      25.622      38.378    
  59.846      90.672      127.63      166.17      203.75      240.10      273.70      298.99      266.93      259.69    
  240.10      212.73      181.15      146.96      111.73      78.797      52.296      34.408      23.775      17.175    
  13.174      10.832      9.4221      8.5244      7.9712      7.6931      7.6146      7.6931      7.9712      8.5244    
  9.4221      10.832      13.174      17.175      23.775      34.408      52.296      78.797      111.73      146.96    
  181.15      212.73      240.10      259.69      224.55      219.06      203.75      181.15      153.63      123.22    
  92.466      64.941      43.851      30.098      21.710      16.364      13.145      11.259      10.128      9.4221    
  9.0032      8.8035      8.7499      8.8035      9.0032      9.4221      10.128      11.259      13.145      16.364    
  21.710      30.098      43.851      64.941      92.466      123.22      153.63      181.15      203.75      219.06    
  183.21      178.79      166.17      146.96      123.22      97.361      72.348      51.222      35.901      26.100    
  19.768      15.760      13.384      12.026      11.259      10.832      10.624      10.554      10.544      10.554    
  10.624      10.832      11.259      12.026      13.384      15.760      19.768      26.100      35.901      51.222    
  72.348      97.361      123.22      146.96      166.17      178.79      141.76      138.10      127.63      111.73    
  92.466      72.348      53.999      39.457      29.367      22.690      18.257      15.572      14.092      13.384    
  13.145      13.174      13.333      13.501      13.572      13.501      13.333      13.174      13.145      13.384    
  14.092      15.572      18.257      22.690      29.367      39.457      53.999      72.348      92.466      111.73    
  127.63      138.10      101.49      98.667      90.672      78.797      64.941      51.222      39.457      30.598    
  24.392      20.081      17.412      16.028      15.572      15.760      16.364      17.175      17.981      18.576    
  18.796      18.576      17.981      17.175      16.364      15.760      15.572      16.028      17.412      20.081    
  24.392      30.598      39.457      51.222      64.941      78.797      90.672      98.667      66.947      65.077    
  59.846      52.296      43.851      35.901      29.367      24.392      20.753      18.471      17.421      17.412    
  18.257      19.768      21.710      23.775      25.622      26.927      27.401      26.927      25.622      23.775    
  21.710      19.768      18.257      17.412      17.421      18.471      20.753      24.392      29.367      35.901    
  43.851      52.296      59.846      65.077      42.223      41.200      38.378      34.408      30.098      26.100    
  22.690      20.081      18.471      17.930      18.471      20.081      22.690      26.100      30.098      34.408    
  38.378      41.200      42.223      41.200      38.378      34.408      30.098      26.100      22.690      20.081    
  18.471      17.930      18.471      20.081      22.690      26.100      30.098      34.408      38.378      41.200    
  27.401      26.927      25.622      23.775      21.710      19.768      18.257      17.412      17.421      18.471    
  20.753      24.392      29.367      35.901      43.851      52.296      59.846      65.077      66.947      65.077    
  59.846      52.296      43.851      35.901      29.367      24.392      20.753      18.471      17.421      17.412    
  18.257      19.768      21.710      23.775      25.622      26.927      18.796      18.576      17.981      17.175    
  16.364      15.760      15.572      16.028      17.412      20.081      24.392      30.598      39.457      51.222    
  64.941      78.797      90.672      98.667      101.49      98.667      90.672      78.797      64.941      51.222    
  39.457      30.598      24.392      20.081      17.412      16.028      15.572      15.760      16.364      17.175    
  17.981      18.576      13.572      13.501      13.333      13.174      13.145      13.384      14.092      15.572    
  18.257      22.690      29.367      39.457      53.999      72.348      92.466      111.73      127.63      138.10    
  141.76      138.10      127.63      111.73      92.466      72.348      53.999      39.457      29.367      22.690    
  18.257      15.572      14.092      13.384      13.145      13.174      13.333      13.501      10.544      10.554    
  10.624      10.832      11.259      12.026      13.384      15.760      19.768      26.100      35.901      51.222    
  72.348      97.361      123.22      146.96      166.17      178.79      183.21      178.79      166.17      146.96    
  123.22      97.361      72.348      51.222      35.901      26.100      19.768      15.760      13.384      12.026    
  11.259      10.832      10.624      10.554      8.7499      8.8035      9.0032      9.4221      10.128      11.259    
  13.145      16.364      21.710      30.098      43.851      64.941      92.466      123.22      153.63      181.15    
  203.75      219.06      224.55      219.06      203.75      181.15      153.63      123.22      92.466      64.941    
  43.851      30.098      21.710      16.364      13.145      11.259      10.128      9.4221      9.0032      8.8035    
  7.6146      7.6931      7.9712      8.5244      9.4221      10.832      13.174      17.175      23.775      34.408    
  52.296      78.797      111.73      146.96      181.15      212.73      240.10      259.69      266.93      259.69    
  240.10      212.73      181.15      146.96      111.73      78.797      52.296      34.408      23.775      17.175    
  13.174      10.832      9.4221      8.5244      7.9712      7.6931      6.9079      7.0015      7.3291      7.9712    
  9.0032      10.624      13.333      17.981      25.622      38.378      59.846      90.672      127.63      166.17    
  203.75      240.10      273.70      298.99      308.58      298.99      273.70      240.10      203.75      166.17    
  127.63      90.672      59.846      38.378      25.622      17.981      13.333      10.624      9.0032      7.9712    
  7.3291      7.0015      6.5456      6.6473      7.0015      7.6931      8.8035      10.554      13.501      18.576    
  26.927      41.200      65.077      98.667      138.10      178.79      219.06      259.69      298.99      329.48    
  341.21      329.48      298.99      259.69      219.06      178.79      138.10      98.667      65.077      41.200    
  26.927      18.576      13.501      10.554      8.8035      7.6931      7.0015      6.6473      6.4416      6.5456    
  6.9079      7.6146      8.7499      10.544      13.572      18.796      27.401      42.223      66.947      101.49    
  141.76      183.21      224.55      266.93      308.58      341.21      353.81      341.21      308.58      266.93    
  224.55      183.21      141.76      101.49      66.947      42.223      27.401      18.796      13.572      10.544    
  8.7499      7.6146      6.9079      6.5456      6.5456      6.6473      7.0015      7.6931      8.8035      10.554    
  13.501      18.576      26.927      41.200      65.077      98.667      138.10      178.79      219.06      259.69    
  298.99      329.48      341.21      329.48      298.99      259.69      219.06      178.79      138.10      98.667    
  65.077      41.200      26.927      18.576      13.501      10.554      8.8035      7.6931      7.0015      6.6473    
  6.9079      7.0015      7.3291      7.9712      9.0032      10.624      13.333      17.981      25.622      38.378    
  59.846      90.672      127.63      166.17      203.75      240.10      273.70      298.99      308.58      298.99    
  273.70      240.10      203.75      166.17      127.63      90.672      59.846      38.378      25.622      17.981    
  13.333      10.624      9.0032      7.9712      7.3291      7.0015      7.6146      7.6931      7.9712      8.5244    
  9.4221      10.832      13.174      17.175      23.775      34.408      52.296      78.797      111.73      146.96    
  181.15      212.73      240.10      259.69      266.93      259.69      240.10      212.73      181.15      146.96    
  111.73      78.797      52.296      34.408      23.775      17.175      13.174      10.832      9.4221      8.5244    
  7.9712      7.6931      8.7499      8.8035      9.0032      9.4221      10.128      11.259      13.145      16.364    
  21.710      30.098      43.851      64.941      92.466      123.22      153.63      181.15      203.75      219.06    
  224.55      219.06      203.75      181.15      153.63      123.22      92.466      64.941      43.851      30.098    
  21.710      16.364      13.145      11.259      10.128      9.4221      9.0032      8.8035      10.544      10.554    
  10.624      10.832      11.259      12.026      13.384      15.760      19.768      26.100      35.901      51.222    
  72.348      97.361      123.22      146.96      166.17      178.79      183.21      178.79      166.17      146.96    
  123.22      97.361      72.348      51.222      35.901      26.100      19.768      15.760      13.384      12.026    
  11.259      10.832      10.624      10.554      13.572      13.501      13.333      13.174      13.145      13.384    
  14.092      15.572      18.257      22.690      29.367      39.457      53.999      72.348      92.466      111.73    
  127.63      138.10      141.76      138.10      127.63      111.73      92.466      72.348      53.999      39.457    
  29.367      22.690      18.257      15.572      14.092      13.384      13.145      13.174      13.333      13.501    
  18.796      18.576      17.981      17.175      16.364      15.760      15.572      16.028      17.412      20.081    
  24.392      30.598      39.457      51.222      64.941      78.797      90.672      98.667      101.49      98.667    
  90.672      78.797      64.941      51.222      39.457      30.598      24.392      20.081      17.412      16.028    
  15.572      15.760      16.364      17.175      17.981      18.576      27.401      26.927      25.622      23.775    
  21.710      19.768      18.257      17.412      17.421      18.471      20.753      24.392      29.367      35.901    
  43.851      52.296      59.846      65.077      66.947      65.077      59.846      52.296      43.851      35.901    
  29.367      24.392      20.753      18.471      17.421      17.412      18.257      19.768      21.710      23.775    
  25.622      26.927      42.223      41.200      38.378      34.408      30.098      26.100      22.690      20.081    
  18.471      17.930      18.471      20.081      22.690      26.100      30.098      34.408      38.378      41.200    
  42.223      41.200      38.378      34.408      30.098      26.100      22.690      20.081      18.471      17.930    
  18.471      20.081      22.690      26.100      30.098      34.408      38.378      41.200      66.947      65.077    
  59.846      52.296      43.851      35.901      29.367      24.392      20.753      18.471      17.421      17.412    
  18.257      19.768      21.710      23.775      25.622      26.927      27.401      26.927      25.622      23.775    
  21.710      19.768      18.257      17.412      17.421      18.471      20.753      24.392      29.367      35.901    
  43.851      52.296      59.846      65.077      101.49      98.667      90.672      78.797      64.941      51.222    
  39.457      30.598      24.392      20.081      17.412      16.028      15.572      15.760      16.364      17.175    
  17.981      18.576      18.796      18.576      17.981      17.175      16.364      15.760      15.572      16.028    
  17.412      20.081      24.392      30.598      39.457      51.222      64.941      78.797      90.672      98.667    
  141.76      138.10      127.63      111.73      92.466      72.348      53.999      39.457      29.367      22.690    
  18.257      15.572      14.092      13.384      13.145      13.174      13.333      13.501      13.572      13.501    
  13.333      13.174      13.145      13.384      14.092      15.572      18.257      22.690      29.367      39.457    
  53.999      72.348      92.466      111.73      127.63      138.10      183.21      178.79      166.17      146.96    
  123.22      97.361      72.348      51.222      35.901      26.100      19.768      15.760      13.384      12.026    
  11.259      10.832      10.624      10.554      10.544      10.554      10.624      10.832      11.259      12.026    
  13.384      15.760      19.768      26.100      35.901      51.222      72.348      97.361      123.22      146.96    
  166.17      178.79      224.55      219.06      203.75      181.15      153.63      123.22      92.466      64.941    
  43.851      30.098      21.710      16.364      13.145      11.259      10.128      9.4221      9.0032      8.8035    
  8.7499      8.8035      9.0032      9.4221      10.128      11.259      13.145      16.364      21.710      30.098    
  43.851      64.941      92.466      123.22      153.63      181.15      203.75      219.06      266.93      259.69    
  240.10      212.73      181.15      146.96      111.73      78.797      52.296      34.408      23.775      17.175    
  13.174      10.832      9.4221      8.5244      7.9712      7.6931      7.6146      7.6931      7.9712      8.5244    
  9.4221      10.832      13.174      17.175      23.775      34.408      52.296      78.797      111.73      146.96    
  181.15      212.73      240.10      259.69      308.58      298.99      273.70      240.10      203.75      166.17    
  127.63      90.672      59.846      38.378      25.622      17.981      13.333      10.624      9.0032      7.9712    
  7.3291      7.0015      6.9079      7.0015      7.3291      7.9712      9.0032      10.624      13.333      17.981    
  25.622      38.378      59.846      90.672      127.63      166.17      203.75      240.10      273.70      298.99    
  341.21      329.48      298.99      259.69      219.06      178.79      138.10      98.667      65.077      41.200    
  26.927      18.576      13.501      10.554      8.8035      7.6931      7.0015      6.6473      6.5456      6.6473    
  7.0015      7.6931      8.8035      10.554      13.501      18.576      26.927      41.200      65.077      98.667    
  138.10      178.79      219.06      259.69      298.99      329.48      341.21      329.48      298.99      259.69    
  219.06      178.79      138.10      98.667      65.077      41.200      26.927      18.576      13.501      10.554    
  8.8035      7.6931      7.0015      6.6473      6.5456      6.6473      7.0015      7.6931      8.8035      10.554    
  13.501      18.576      26.927      41.200      65.077      98.667      138.10      178.79      219.06      259.69    
  298.99      329.48      329.48      318.55      289.98      252.80      213.76      174.46      134.52      95.920    
  63.265      40.214      26.467      18.361      13.431      10.563      8.8549      7.7692      7.0928      6.7466    
  6.6473      6.7466      7.0928      7.7692      8.8549      10.563      13.431      18.361      26.467      40.214    
  63.265      95.920      134.52      174.46      213.76      252.80      289.98      318.55      298.99      289.98    
  266.11      234.07      198.90      162.10      124.26      88.131      58.203      37.495      25.202      17.779    
  13.264      10.628      9.0475      8.0393      7.4123      7.0928      7.0015      7.0928      7.4123      8.0393    
  9.0475      10.628      13.264      17.779      25.202      37.495      58.203      88.131      124.26      162.10    
  198.90      234.07      266.11      289.98      259.69      252.80      234.07      207.64      176.82      143.26    
  108.71      76.581      50.906      33.670      23.402      16.991      13.105      10.828      9.4534      8.5781    
  8.0393      7.7692      7.6931      7.7692      8.0393      8.5781      9.4534      10.828      13.105      16.991    
  23.402      33.670      50.906      76.581      108.71      143.26      176.82      207.64      234.07      252.80    
  219.06      213.76      198.90      176.82      149.84      119.98      89.898      63.137      42.758      29.515    
  21.387      16.198      13.073      11.240      10.140      9.4534      9.0475      8.8549      8.8035      8.8549    
  9.0475      9.4534      10.140      11.240      13.073      16.198      21.387      29.515      42.758      63.137    
  89.898      119.98      149.84      176.82      198.90      213.76      178.79      174.46      162.10      143.26    
  119.98      94.680      70.323      49.866      35.100      25.646      19.496      15.608      13.304      11.985    
  11.240      10.828      10.628      10.563      10.554      10.563      10.628      10.828      11.240      11.985    
  13.304      15.608      19.496      25.646      35.100      49.866      70.323      94.680      119.98      143.26    
  162.10      174.46      138.10      134.52      124.26      108.71      89.898      70.323      52.548      38.522    
  28.802      22.327      18.027      15.424      13.990      13.304      13.073      13.105      13.264      13.431    
  13.501      13.431      13.264      13.105      13.073      13.304      13.990      15.424      18.027      22.327    
  28.802      38.522      52.548      70.323      89.898      108.71      124.26      134.52      98.667      95.920    
  88.131      76.581      63.137      49.866      38.522      29.990      23.977      19.793      17.207      15.866    
  15.424      15.608      16.198      16.991      17.779      18.361      18.576      18.361      17.779      16.991    
  16.198      15.608      15.424      15.866      17.207      19.793      23.977      29.990      38.522      49.866    
  63.137      76.581      88.131      95.920      65.077      63.265      58.203      50.906      42.758      35.100    
  28.802      23.977      20.444      18.232      17.216      17.207      18.027      19.496      21.387      23.402    
  25.202      26.467      26.927      26.467      25.202      23.402      21.387      19.496      18.027      17.207    
  17.216      18.232      20.444      23.977      28.802      35.100      42.758      50.906      58.203      63.265    
  41.200      40.214      37.495      33.670      29.515      25.646      22.327      19.793      18.232      17.708    
  18.232      19.793      22.327      25.646      29.515      33.670      37.495      40.214      41.200      40.214    
  37.495      33.670      29.515      25.646      22.327      19.793      18.232      17.708      18.232      19.793    
  22.327      25.646      29.515      33.670      37.495      40.214      26.927      26.467      25.202      23.402    
  21.387      19.496      18.027      17.207      17.216      18.232      20.444      23.977      28.802      35.100    
  42.758      50.906      58.203      63.265      65.077      63.265      58.203      50.906      42.758      35.100    
  28.802      23.977      20.444      18.232      17.216      17.207      18.027      19.496      21.387      23.402    
  25.202      26.467      18.576      18.361      17.779      16.991      16.198      15.608      15.424      15.866    
  17.207      19.793      23.977      29.990      38.522      49.866      63.137      76.581      88.131      95.920    
  98.667      95.920      88.131      76.581      63.137      49.866      38.522      29.990      23.977      19.793    
  17.207      15.866      15.424      15.608      16.198      16.991      17.779      18.361      13.501      13.431    
  13.264      13.105      13.073      13.304      13.990      15.424      18.027      22.327      28.802      38.522    
  52.548      70.323      89.898      108.71      124.26      134.52      138.10      134.52      124.26      108.71    
  89.898      70.323      52.548      38.522      28.802      22.327      18.027      15.424      13.990      13.304    
  13.073      13.105      13.264      13.431      10.554      10.563      10.628      10.828      11.240      11.985    
  13.304      15.608      19.496      25.646      35.100      49.866      70.323      94.680      119.98      143.26    
  162.10      174.46      178.79      174.46      162.10      143.26      119.98      94.680      70.323      49.866    
  35.100      25.646      19.496      15.608      13.304      11.985      11.240      10.828      10.628      10.563    
  8.8035      8.8549      9.0475      9.4534      10.140      11.240      13.073      16.198      21.387      29.515    
  42.758      63.137      89.898      119.98      149.84      176.82      198.90      213.76      219.06      213.76    
  198.90      176.82      149.84      119.98      89.898      63.137      42.758      29.515      21.387      16.198    
  13.073      11.240      10.140      9.4534      9.0475      8.8549      7.6931      7.7692      8.0393      8.5781    
  9.4534      10.828      13.105      16.991      23.402      33.670      50.906      76.581      108.71      143.26    
  176.82      207.64      234.07      252.80      259.69      252.80      234.07      207.64      176.82      143.26    
  108.71      76.581      50.906      33.670      23.402      16.991      13.105      10.828      9.4534      8.5781    
  8.0393      7.7692      7.0015      7.0928      7.4123      8.0393      9.0475      10.628      13.264      17.779    
  25.202      37.495      58.203      88.131      124.26      162.10      198.90      234.07      266.11      289.98    
  298.99      289.98      266.11      234.07      198.90      162.10      124.26      88.131      58.203      37.495    
  25.202      17.779      13.264      10.628      9.0475      8.0393      7.4123      7.0928      6.6473      6.7466    
  7.0928      7.7692      8.8549      10.563      13.431      18.361      26.467      40.214      63.265      95.920    
  134.52      174.46      213.76      252.80      289.98      318.55      329.48      318.55      289.98      252.80    
  213.76      174.46      134.52      95.920      63.265      40.214      26.467      18.361      13.431      10.563    
  8.8549      7.7692      7.0928      6.7466      6.5456      6.6473      7.0015      7.6931      8.8035      10.554    
  13.501      18.576      26.927      41.200      65.077      98.667      138.10      178.79      219.06      259.69    
  298.99      329.48      341.21      329.48      298.99      259.69      219.06      178.79      138.10      98.667    
  65.077      41.200      26.927      18.576      13.501      10.554      8.8035      7.6931      7.0015      6.6473    
  6.6473      6.7466      7.0928      7.7692      8.8549      10.563      13.431      18.361      26.467      40.214    
  63.265      95.920      134.52      174.46      213.76      252.80      289.98      318.55      329.48      318.55    
  289.98      252.80      213.76      174.46      134.52      95.920      63.265      40.214      26.467      18.361    
  13.431      10.563      8.8549      7.7692      7.0928      6.7466      7.0015      7.0928      7.4123      8.0393    
  9.0475      10.628      13.264      17.779      25.202      37.495      58.203      88.131      124.26      162.10    
  198.90      234.07      266.11      289.98      298.99      289.98      266.11      234.07      198.90      162.10    
  124.26      88.131      58.203      37.495      25.202      17.779      13.264      10.628      9.0475      8.0393    
  7.4123      7.0928      7.6931      7.7692      8.0393      8.5781      9.4534      10.828      13.105      16.991    
  23.402      33.670      50.906      76.581      108.71      143.26      176.82      207.64      234.07      252.80    
  259.69      252.80      234.07      207.64      176.82      143.26      108.71      76.581      50.906      33.670    
  23.402      16.991      13.105      10.828      9.4534      8.5781      8.0393      7.7692      8.8035      8.8549    
  9.0475      9.4534      10.140      11.240      13.073      16.198      21.387      29.515      42.758      63.137    
  89.898      119.98      149.84      176.82      198.90      213.76      219.06      213.76      198.90      176.82    
  149.84      119.98      89.898      63.137      42.758      29.515      21.387      16.198      13.073      11.240    
  10.140      9.4534      9.0475      8.8549      10.554      10.563      10.628      10.828      11.240      11.985    
  13.304      15.608      19.496      25.646      35.100      49.866      70.323      94.680      119.98      143.26    
  162.10      174.46      178.79      174.46      162.10      143.26      119.98      94.680      70.323      49.866    
  35.100      25.646      19.496      15.608      13.304      11.985      11.240      10.828      10.628      10.563    
  13.501      13.431      13.264      13.105      13.073      13.304      13.990      15.424      18.027      22.327    
  28.802      38.522      52.548      70.323      89.898      108.71      124.26      134.52      138.10      134.52    
  124.26      108.71      89.898      70.323      52.548      38.522      28.802      22.327      18.027      15.424    
  13.990      13.304      13.073      13.105      13.264      13.431      18.576      18.361      17.779      16.991    
  16.198      15.608      15.424      15.866      17.207      19.793      23.977      29.990      38.522      49.866    
  63.137      76.581      88.131      95.920      98.667      95.920      88.131      76.581      63.137      49.866    
  38.522      29.990      23.977      19.793      17.207      15.866      15.424      15.608      16.198      16.991    
  17.779      18.361      26.927      26.467      25.202      23.402      21.387      19.496      18.027      17.207    
  17.216      18.232      20.444      23.977      28.802      35.100      42.758      50.906      58.203      63.265    
  65.077      63.265      58.203      50.906      42.758      35.100      28.802      23.977      20.444      18.232    
  17.216      17.207      18.027      19.496      21.387      23.402      25.202      26.467      41.200      40.214    
  37.495      33.670      29.515      25.646      22.327      19.793      18.232      17.708      18.232      19.793    
  22.327      25.646      29.515      33.670      37.495      40.214      41.200      40.214      37.495      33.670    
  29.515      25.646      22.327      19.793      18.232      17.708      18.232      19.793      22.327      25.646    
  29.515      33.670      37.495      40.214      65.077      63.265      58.203      50.906      42.758      35.100    
  28.802      23.977      20.444      18.232      17.216      17.207      18.027      19.496      21.387      23.402    
  25.202      26.467      26.927      26.467      25.202      23.402      21.387      19.496      18.027      17.207    
  17.216      18.232      20.444      23.977      28.802      35.100      42.758      50.906      58.203      63.265    
  98.667      95.920      88.131      76.581      63.137      49.866      38.522      29.990      23.977      19.793    
  17.207      15.866      15.424      15.608      16.198      16.991      17.779      18.361      18.576      18.361    
  17.779      16.991      16.198      15.608      15.424      15.866      17.207      19.793      23.977      29.990    
  38.522      49.866      63.137      76.581      88.131      95.920      138.10      134.52      124.26      108.71    
  89.898      70.323      52.548      38.522      28.802      22.327      18.027      15.424      13.990      13.304    
  13.073      13.105      13.264      13.431      13.501      13.431      13.264      13.105      13.073      13.304    
  13.990      15.424      18.027      22.327      28.802      38.522      52.548      70.323      89.898      108.71    
  124.26      134.52      178.79      174.46      162.10      143.26      119.98      94.680      70.323      49.866    
  35.100      25.646      19.496      15.608      13.304      11.985      11.240      10.828      10.628      10.563    
  10.554      10.563      10.628      10.828      11.240      11.985      13.304      15.608      19.496      25.646    
  35.100      49.866      70.323      94.680      119.98      143.26      162.10      174.46      219.06      213.76    