Au                                      
   1.00000000000000     
     4.174100    0.000000    0.000000
     0.000000    4.174100    0.000000
     0.000000    0.000000    4.174100
   Au
     4
Direct
  0.000000  0.000000  0.000000
  0.000000  0.500000  0.500000
  0.500000  0.000000  0.500000
  0.500000  0.500000  0.000000
 
   36   36   36
 0.35380521755E+03 0.34120839267E+03 0.30858188707E+03 0.26693201761E+03 0.22454841134E+03
 0.18320685687E+03 0.14175763489E+03 0.10148629050E+03 0.66947175211E+02 0.42223191715E+02
 0.27400564335E+02 0.18796041925E+02 0.13572172019E+02 0.10544018752E+02 0.87499464395E+01
 0.76146421376E+01 0.69078569325E+01 0.65456164890E+01 0.64415594570E+01 0.65456164890E+01
 0.69078569325E+01 0.76146421376E+01 0.87499464395E+01 0.10544018752E+02 0.13572172019E+02
 0.18796041925E+02 0.27400564335E+02 0.42223191715E+02 0.66947175211E+02 0.10148629050E+03
 0.14175763489E+03 0.18320685687E+03 0.22454841134E+03 0.26693201761E+03 0.30858188707E+03
 0.34120839267E+03 0.34120839267E+03 0.32948280176E+03 0.29898927918E+03 0.25968898304E+03
 0.21906422092E+03 0.17878574861E+03 0.13810077534E+03 0.98667459561E+02 0.65076701027E+02
 0.41200065801E+02 0.26926651212E+02 0.18576268232E+02 0.13501007242E+02 0.10554346742E+02
 0.88034750547E+01 0.76930924257E+01 0.70015454447E+01 0.66473157089E+01 0.65456164890E+01
 0.66473160256E+01 0.70015458719E+01 0.76930927175E+01 0.88034751213E+01 0.10554346727E+02
 0.13501007426E+02 0.18576268819E+02 0.26926652128E+02 0.41200066680E+02 0.65076701452E+02
 0.98667459396E+02 0.13810077488E+03 0.17878574842E+03 0.21906422138E+03 0.25968898410E+03
 0.29898928039E+03 0.32948280254E+03 0.30858188707E+03 0.29898927917E+03 0.27370027912E+03
 0.24010323474E+03 0.20375348932E+03 0.16616678475E+03 0.12762937793E+03 0.90671541089E+02
 0.59845556954E+02 0.38378239339E+02 0.25622493955E+02 0.17981205652E+02 0.13333051700E+02
 0.10623936553E+02 0.90032230227E+01 0.79711588003E+01 0.73290995080E+01 0.70015454429E+01
 0.69078569325E+01 0.70015458737E+01 0.73291000662E+01 0.79711591326E+01 0.90032230212E+01
 0.10623936466E+02 0.13333051978E+02 0.17981206619E+02 0.25622495484E+02 0.38378240819E+02
 0.59845557682E+02 0.90671540812E+02 0.12762937711E+03 0.16616678430E+03 0.20375348989E+03
 0.24010323631E+03 0.27370028097E+03 0.29898928039E+03 0.26693201761E+03 0.25968898302E+03
 0.24010323472E+03 0.21272695486E+03 0.18114529664E+03 0.14695904039E+03 0.11173150264E+03
 0.78796815743E+02 0.52295981370E+02 0.34408359060E+02 0.23775248004E+02 0.17174965132E+02
 0.13174150633E+02 0.10832098678E+02 0.94221117590E+01 0.85244213939E+01 0.79711587966E+01
 0.76930924214E+01 0.76146421376E+01 0.76930927220E+01 0.79711591367E+01 0.85244214853E+01
 0.94221115528E+01 0.10832098456E+02 0.13174150859E+02 0.17174966135E+02 0.23775249658E+02
 0.34408360708E+02 0.52295982223E+02 0.78796815461E+02 0.11173150165E+03 0.14695903962E+03
 0.18114529685E+03 0.21272695609E+03 0.24010323633E+03 0.25968898411E+03 0.22454841134E+03
 0.21906422089E+03 0.20375348927E+03 0.18114529661E+03 0.15363479551E+03 0.12321585618E+03
 0.92465697093E+02 0.64941491162E+02 0.43850835907E+02 0.30098437625E+02 0.21709526587E+02
 0.16364175831E+02 0.13144821062E+02 0.11258818223E+02 0.10127915110E+02 0.94221117606E+01
 0.90032230201E+01 0.88034750507E+01 0.87499464395E+01 0.88034751257E+01 0.90032230253E+01
 0.94221115528E+01 0.10127914707E+02 0.11258817856E+02 0.13144821082E+02 0.16364176509E+02
 0.21709527869E+02 0.30098439015E+02 0.43850836722E+02 0.64941491010E+02 0.92465696180E+02
 0.12321585517E+03 0.15363479505E+03 0.18114529688E+03 0.20375348994E+03 0.21906422141E+03
 0.18320685687E+03 0.17878574857E+03 0.16616678469E+03 0.14695904033E+03 0.12321585615E+03
 0.97361040708E+02 0.72347949674E+02 0.51222455735E+02 0.35901076535E+02 0.26100248417E+02
 0.19768177785E+02 0.15759668089E+02 0.13384032614E+02 0.12026434413E+02 0.11258818239E+02
 0.10832098695E+02 0.10623936563E+02 0.10554346745E+02 0.10544018752E+02 0.10554346725E+02
 0.10623936460E+02 0.10832098444E+02 0.11258817844E+02 0.12026433982E+02 0.13384032345E+02
 0.15759668198E+02 0.19768178357E+02 0.26100249253E+02 0.35901077183E+02 0.51222455799E+02
 0.72347949081E+02 0.97361039734E+02 0.12321585520E+03 0.14695903968E+03 0.16616678436E+03
 0.17878574846E+03 0.14175763489E+03 0.13810077530E+03 0.12762937787E+03 0.11173150259E+03
 0.92465697065E+02 0.72347949668E+02 0.53998759918E+02 0.39456506718E+02 0.29366655277E+02
 0.22689700244E+02 0.18257153613E+02 0.15571567091E+02 0.14092105919E+02 0.13384032645E+02
 0.13144821108E+02 0.13174150678E+02 0.13333051732E+02 0.13501007257E+02 0.13572172019E+02
 0.13501007411E+02 0.13333051950E+02 0.13174150821E+02 0.13144821044E+02 0.13384032320E+02
 0.14092105408E+02 0.15571566606E+02 0.18257153399E+02 0.22689700401E+02 0.29366655638E+02
 0.39456506952E+02 0.53998759769E+02 0.72347949089E+02 0.92465696211E+02 0.11173150170E+03
 0.12762937717E+03 0.13810077492E+03 0.10148629050E+03 0.98667459546E+02 0.90671541069E+02
 0.78796815731E+02 0.64941491166E+02 0.51222455751E+02 0.39456506734E+02 0.30598345024E+02
 0.24391978602E+02 0.20080967922E+02 0.17412094754E+02 0.16028210158E+02 0.15571567125E+02
 0.15759668154E+02 0.16364175911E+02 0.17174965209E+02 0.17981205710E+02 0.18576268262E+02
 0.18796041925E+02 0.18576268791E+02 0.17981206566E+02 0.17174966068E+02 0.16364176441E+02
 0.15759668144E+02 0.15571566577E+02 0.16028209298E+02 0.17412093934E+02 0.20080967443E+02
 0.24391978549E+02 0.30598345228E+02 0.39456506940E+02 0.51222455787E+02 0.64941491011E+02
 0.78796815476E+02 0.90671540834E+02 0.98667459411E+02 0.66947175211E+02 0.65076701039E+02
 0.59845556981E+02 0.52295981412E+02 0.43850835960E+02 0.35901076589E+02 0.29366655319E+02
 0.24391978622E+02 0.20752861003E+02 0.18470636234E+02 0.17421296721E+02 0.17412094779E+02
 0.18257153671E+02 0.19768177871E+02 0.21709526687E+02 0.23775248099E+02 0.25622494027E+02
 0.26926651250E+02 0.27400564335E+02 0.26926652091E+02 0.25622495418E+02 0.23775249574E+02
 0.21709527782E+02 0.19768178284E+02 0.18257153350E+02 0.17412093913E+02 0.17421295649E+02
 0.18470635308E+02 0.20752860462E+02 0.24391978531E+02 0.29366655603E+02 0.35901077138E+02
 0.43850836678E+02 0.52295982187E+02 0.59845557658E+02 0.65076701440E+02 0.42223191715E+02
 0.41200065834E+02 0.38378239401E+02 0.34408359143E+02 0.30098437715E+02 0.26100248498E+02
 0.22689700303E+02 0.20080967954E+02 0.18470636243E+02 0.17929630625E+02 0.18470636243E+02
 0.20080967954E+02 0.22689700303E+02 0.26100248498E+02 0.30098437715E+02 0.34408359143E+02
 0.38378239401E+02 0.41200065834E+02 0.42223191715E+02 0.41200066648E+02 0.38378240761E+02
 0.34408360633E+02 0.30098438936E+02 0.26100249183E+02 0.22689700350E+02 0.20080967416E+02
 0.18470635300E+02 0.17929629538E+02 0.18470635300E+02 0.20080967416E+02 0.22689700350E+02
 0.26100249183E+02 0.30098438936E+02 0.34408360633E+02 0.38378240761E+02 0.41200066648E+02
 0.27400564335E+02 0.26926651250E+02 0.25622494027E+02 0.23775248099E+02 0.21709526687E+02
 0.19768177871E+02 0.18257153671E+02 0.17412094779E+02 0.17421296721E+02 0.18470636234E+02
 0.20752861003E+02 0.24391978622E+02 0.29366655319E+02 0.35901076589E+02 0.43850835960E+02
 0.52295981412E+02 0.59845556981E+02 0.65076701039E+02 0.66947175211E+02 0.65076701440E+02
 0.59845557658E+02 0.52295982187E+02 0.43850836678E+02 0.35901077138E+02 0.29366655603E+02
 0.24391978531E+02 0.20752860462E+02 0.18470635308E+02 0.17421295649E+02 0.17412093913E+02
 0.18257153350E+02 0.19768178284E+02 0.21709527782E+02 0.23775249574E+02 0.25622495418E+02
 0.26926652091E+02 0.18796041925E+02 0.18576268262E+02 0.17981205710E+02 0.17174965209E+02
 0.16364175911E+02 0.15759668154E+02 0.15571567125E+02 0.16028210158E+02 0.17412094754E+02
 0.20080967922E+02 0.24391978602E+02 0.30598345024E+02 0.39456506734E+02 0.51222455751E+02
 0.64941491166E+02 0.78796815731E+02 0.90671541069E+02 0.98667459546E+02 0.10148629050E+03
 0.98667459411E+02 0.90671540834E+02 0.78796815476E+02 0.64941491011E+02 0.51222455787E+02
 0.39456506940E+02 0.30598345228E+02 0.24391978549E+02 0.20080967443E+02 0.17412093934E+02
 0.16028209298E+02 0.15571566577E+02 0.15759668144E+02 0.16364176441E+02 0.17174966068E+02
 0.17981206566E+02 0.18576268791E+02 0.13572172019E+02 0.13501007257E+02 0.13333051732E+02
 0.13174150678E+02 0.13144821108E+02 0.13384032645E+02 0.14092105919E+02 0.15571567091E+02
 0.18257153613E+02 0.22689700244E+02 0.29366655277E+02 0.39456506718E+02 0.53998759918E+02
 0.72347949668E+02 0.92465697065E+02 0.11173150259E+03 0.12762937787E+03 0.13810077530E+03
 0.14175763489E+03 0.13810077492E+03 0.12762937717E+03 0.11173150170E+03 0.92465696211E+02
 0.72347949089E+02 0.53998759769E+02 0.39456506952E+02 0.29366655638E+02 0.22689700401E+02
 0.18257153399E+02 0.15571566606E+02 0.14092105408E+02 0.13384032320E+02 0.13144821044E+02
 0.13174150821E+02 0.13333051950E+02 0.13501007411E+02 0.10544018752E+02 0.10554346745E+02
 0.10623936563E+02 0.10832098695E+02 0.11258818239E+02 0.12026434413E+02 0.13384032614E+02
 0.15759668089E+02 0.19768177785E+02 0.26100248417E+02 0.35901076535E+02 0.51222455735E+02
 0.72347949674E+02 0.97361040708E+02 0.12321585615E+03 0.14695904033E+03 0.16616678469E+03
 0.17878574857E+03 0.18320685687E+03 0.17878574846E+03 0.16616678436E+03 0.14695903968E+03
 0.12321585520E+03 0.97361039734E+02 0.72347949081E+02 0.51222455799E+02 0.35901077183E+02
 0.26100249253E+02 0.19768178357E+02 0.15759668198E+02 0.13384032345E+02 0.12026433982E+02
 0.11258817844E+02 0.10832098444E+02 0.10623936460E+02 0.10554346725E+02 0.87499464395E+01
 0.88034750507E+01 0.90032230201E+01 0.94221117606E+01 0.10127915110E+02 0.11258818223E+02
 0.13144821062E+02 0.16364175831E+02 0.21709526587E+02 0.30098437625E+02 0.43850835907E+02
 0.64941491162E+02 0.92465697093E+02 0.12321585618E+03 0.15363479551E+03 0.18114529661E+03
 0.20375348927E+03 0.21906422089E+03 0.22454841134E+03 0.21906422141E+03 0.20375348994E+03
 0.18114529688E+03 0.15363479505E+03 0.12321585517E+03 0.92465696180E+02 0.64941491010E+02
 0.43850836722E+02 0.30098439015E+02 0.21709527869E+02 0.16364176509E+02 0.13144821082E+02
 0.11258817856E+02 0.10127914707E+02 0.94221115528E+01 0.90032230253E+01 0.88034751257E+01
 0.76146421376E+01 0.76930924214E+01 0.79711587966E+01 0.85244213939E+01 0.94221117590E+01
 0.10832098678E+02 0.13174150633E+02 0.17174965132E+02 0.23775248004E+02 0.34408359060E+02
 0.52295981370E+02 0.78796815743E+02 0.11173150264E+03 0.14695904039E+03 0.18114529664E+03
 0.21272695486E+03 0.24010323472E+03 0.25968898302E+03 0.26693201761E+03 0.25968898411E+03
 0.24010323633E+03 0.21272695609E+03 0.18114529685E+03 0.14695903962E+03 0.11173150165E+03
 0.78796815461E+02 0.52295982223E+02 0.34408360708E+02 0.23775249658E+02 0.17174966135E+02
 0.13174150859E+02 0.10832098456E+02 0.94221115528E+01 0.85244214853E+01 0.79711591367E+01
 0.76930927220E+01 0.69078569325E+01 0.70015454429E+01 0.73290995080E+01 0.79711588003E+01
 0.90032230227E+01 0.10623936553E+02 0.13333051700E+02 0.17981205652E+02 0.25622493955E+02
 0.38378239339E+02 0.59845556954E+02 0.90671541089E+02 0.12762937793E+03 0.16616678475E+03
 0.20375348932E+03 0.24010323474E+03 0.27370027912E+03 0.29898927917E+03 0.30858188707E+03
 0.29898928039E+03 0.27370028097E+03 0.24010323631E+03 0.20375348989E+03 0.16616678430E+03
 0.12762937711E+03 0.90671540812E+02 0.59845557682E+02 0.38378240819E+02 0.25622495484E+02
 0.17981206619E+02 0.13333051978E+02 0.10623936466E+02 0.90032230212E+01 0.79711591326E+01
 0.73291000662E+01 0.70015458737E+01 0.65456164890E+01 0.66473157089E+01 0.70015454447E+01
 0.76930924257E+01 0.88034750547E+01 0.10554346742E+02 0.13501007242E+02 0.18576268232E+02
 0.26926651212E+02 0.41200065801E+02 0.65076701027E+02 0.98667459561E+02 0.13810077534E+03
 0.17878574861E+03 0.21906422092E+03 0.25968898304E+03 0.29898927918E+03 0.32948280176E+03
 0.34120839267E+03 0.32948280254E+03 0.29898928039E+03 0.25968898410E+03 0.21906422138E+03
 0.17878574842E+03 0.13810077488E+03 0.98667459396E+02 0.65076701452E+02 0.41200066680E+02
 0.26926652128E+02 0.18576268819E+02 0.13501007426E+02 0.10554346727E+02 0.88034751213E+01
 0.76930927175E+01 0.70015458719E+01 0.66473160256E+01 0.64415594570E+01 0.65456164890E+01
 0.69078569325E+01 0.76146421376E+01 0.87499464395E+01 0.10544018752E+02 0.13572172019E+02
 0.18796041925E+02 0.27400564335E+02 0.42223191715E+02 0.66947175211E+02 0.10148629050E+03
 0.14175763489E+03 0.18320685687E+03 0.22454841134E+03 0.26693201761E+03 0.30858188707E+03
 0.34120839267E+03 0.35380521755E+03 0.34120839267E+03 0.30858188707E+03 0.26693201761E+03
 0.22454841134E+03 0.18320685687E+03 0.14175763489E+03 0.10148629050E+03 0.66947175211E+02
 0.42223191715E+02 0.27400564335E+02 0.18796041925E+02 0.13572172019E+02 0.10544018752E+02
 0.87499464395E+01 0.76146421376E+01 0.69078569325E+01 0.65456164890E+01 0.65456164890E+01
 0.66473160256E+01 0.70015458719E+01 0.76930927175E+01 0.88034751213E+01 0.10554346727E+02
 0.13501007426E+02 0.18576268819E+02 0.26926652128E+02 0.41200066680E+02 0.65076701452E+02
 0.98667459396E+02 0.13810077488E+03 0.17878574842E+03 0.21906422138E+03 0.25968898410E+03
 0.29898928039E+03 0.32948280254E+03 0.34120839267E+03 0.32948280176E+03 0.29898927918E+03
 0.25968898304E+03 0.21906422092E+03 0.17878574861E+03 0.13810077534E+03 0.98667459561E+02
 0.65076701027E+02 0.41200065801E+02 0.26926651212E+02 0.18576268232E+02 0.13501007242E+02
 0.10554346742E+02 0.88034750547E+01 0.76930924257E+01 0.70015454447E+01 0.66473157089E+01
 0.69078569325E+01 0.70015458737E+01 0.73291000662E+01 0.79711591326E+01 0.90032230212E+01
 0.10623936466E+02 0.13333051978E+02 0.17981206619E+02 0.25622495484E+02 0.38378240819E+02
 0.59845557682E+02 0.90671540812E+02 0.12762937711E+03 0.16616678430E+03 0.20375348989E+03
 0.24010323631E+03 0.27370028097E+03 0.29898928039E+03 0.30858188707E+03 0.29898927917E+03
 0.27370027912E+03 0.24010323474E+03 0.20375348932E+03 0.16616678475E+03 0.12762937793E+03
 0.90671541089E+02 0.59845556954E+02 0.38378239339E+02 0.25622493955E+02 0.17981205652E+02
 0.13333051700E+02 0.10623936553E+02 0.90032230227E+01 0.79711588003E+01 0.73290995080E+01
 0.70015454429E+01 0.76146421376E+01 0.76930927220E+01 0.79711591367E+01 0.85244214853E+01
 0.94221115528E+01 0.10832098456E+02 0.13174150859E+02 0.17174966135E+02 0.23775249658E+02
 0.34408360708E+02 0.52295982223E+02 0.78796815461E+02 0.11173150165E+03 0.14695903962E+03
 0.18114529685E+03 0.21272695609E+03 0.24010323633E+03 0.25968898411E+03 0.26693201761E+03
 0.25968898302E+03 0.24010323472E+03 0.21272695486E+03 0.18114529664E+03 0.14695904039E+03
 0.11173150264E+03 0.78796815743E+02 0.52295981370E+02 0.34408359060E+02 0.23775248004E+02
 0.17174965132E+02 0.13174150633E+02 0.10832098678E+02 0.94221117590E+01 0.85244213939E+01
 0.79711587966E+01 0.76930924214E+01 0.87499464395E+01 0.88034751257E+01 0.90032230253E+01
 0.94221115528E+01 0.10127914707E+02 0.11258817856E+02 0.13144821082E+02 0.16364176509E+02
 0.21709527869E+02 0.30098439015E+02 0.43850836722E+02 0.64941491010E+02 0.92465696180E+02
 0.12321585517E+03 0.15363479505E+03 0.18114529688E+03 0.20375348994E+03 0.21906422141E+03
 0.22454841134E+03 0.21906422089E+03 0.20375348927E+03 0.18114529661E+03 0.15363479551E+03
 0.12321585618E+03 0.92465697093E+02 0.64941491162E+02 0.43850835907E+02 0.30098437625E+02
 0.21709526587E+02 0.16364175831E+02 0.13144821062E+02 0.11258818223E+02 0.10127915110E+02
 0.94221117606E+01 0.90032230201E+01 0.88034750507E+01 0.10544018752E+02 0.10554346725E+02
 0.10623936460E+02 0.10832098444E+02 0.11258817844E+02 0.12026433982E+02 0.13384032345E+02
 0.15759668198E+02 0.19768178357E+02 0.26100249253E+02 0.35901077183E+02 0.51222455799E+02
 0.72347949081E+02 0.97361039734E+02 0.12321585520E+03 0.14695903968E+03 0.16616678436E+03
 0.17878574846E+03 0.18320685687E+03 0.17878574857E+03 0.16616678469E+03 0.14695904033E+03
 0.12321585615E+03 0.97361040708E+02 0.72347949674E+02 0.51222455735E+02 0.35901076535E+02
 0.26100248417E+02 0.19768177785E+02 0.15759668089E+02 0.13384032614E+02 0.12026434413E+02
 0.11258818239E+02 0.10832098695E+02 0.10623936563E+02 0.10554346745E+02 0.13572172019E+02
 0.13501007411E+02 0.13333051950E+02 0.13174150821E+02 0.13144821044E+02 0.13384032320E+02
 0.14092105408E+02 0.15571566606E+02 0.18257153399E+02 0.22689700401E+02 0.29366655638E+02
 0.39456506952E+02 0.53998759769E+02 0.72347949089E+02 0.92465696211E+02 0.11173150170E+03
 0.12762937717E+03 0.13810077492E+03 0.14175763489E+03 0.13810077530E+03 0.12762937787E+03
 0.11173150259E+03 0.92465697065E+02 0.72347949668E+02 0.53998759918E+02 0.39456506718E+02
 0.29366655277E+02 0.22689700244E+02 0.18257153613E+02 0.15571567091E+02 0.14092105919E+02
 0.13384032645E+02 0.13144821108E+02 0.13174150678E+02 0.13333051732E+02 0.13501007257E+02
 0.18796041925E+02 0.18576268791E+02 0.17981206566E+02 0.17174966068E+02 0.16364176441E+02
 0.15759668144E+02 0.15571566577E+02 0.16028209298E+02 0.17412093934E+02 0.20080967443E+02
 0.24391978549E+02 0.30598345228E+02 0.39456506940E+02 0.51222455787E+02 0.64941491011E+02
 0.78796815476E+02 0.90671540834E+02 0.98667459411E+02 0.10148629050E+03 0.98667459546E+02
 0.90671541069E+02 0.78796815731E+02 0.64941491166E+02 0.51222455751E+02 0.39456506734E+02
 0.30598345024E+02 0.24391978602E+02 0.20080967922E+02 0.17412094754E+02 0.16028210158E+02
 0.15571567125E+02 0.15759668154E+02 0.16364175911E+02 0.17174965209E+02 0.17981205710E+02
 0.18576268262E+02 0.27400564335E+02 0.26926652091E+02 0.25622495418E+02 0.23775249574E+02
 0.21709527782E+02 0.19768178284E+02 0.18257153350E+02 0.17412093913E+02 0.17421295649E+02
 0.18470635308E+02 0.20752860462E+02 0.24391978531E+02 0.29366655603E+02 0.35901077138E+02
 0.43850836678E+02 0.52295982187E+02 0.59845557658E+02 0.65076701440E+02 0.66947175211E+02
 0.65076701039E+02 0.59845556981E+02 0.52295981412E+02 0.43850835960E+02 0.35901076589E+02
 0.29366655319E+02 0.24391978622E+02 0.20752861003E+02 0.18470636234E+02 0.17421296721E+02
 0.17412094779E+02 0.18257153671E+02 0.19768177871E+02 0.21709526687E+02 0.23775248099E+02
 0.25622494027E+02 0.26926651250E+02 0.42223191715E+02 0.41200066648E+02 0.38378240761E+02
 0.34408360633E+02 0.30098438936E+02 0.26100249183E+02 0.22689700350E+02 0.20080967416E+02
 0.18470635300E+02 0.17929629538E+02 0.18470635300E+02 0.20080967416E+02 0.22689700350E+02
 0.26100249183E+02 0.30098438936E+02 0.34408360633E+02 0.38378240761E+02 0.41200066648E+02
 0.42223191715E+02 0.41200065834E+02 0.38378239401E+02 0.34408359143E+02 0.30098437715E+02
 0.26100248498E+02 0.22689700303E+02 0.20080967954E+02 0.18470636243E+02 0.17929630625E+02
 0.18470636243E+02 0.20080967954E+02 0.22689700303E+02 0.26100248498E+02 0.30098437715E+02
 0.34408359143E+02 0.38378239401E+02 0.41200065834E+02 0.66947175211E+02 0.65076701440E+02
 0.59845557658E+02 0.52295982187E+02 0.43850836678E+02 0.35901077138E+02 0.29366655603E+02
 0.24391978531E+02 0.20752860462E+02 0.18470635308E+02 0.17421295649E+02 0.17412093913E+02
 0.18257153350E+02 0.19768178284E+02 0.21709527782E+02 0.23775249574E+02 0.25622495418E+02
 0.26926652091E+02 0.27400564335E+02 0.26926651250E+02 0.25622494027E+02 0.23775248099E+02
 0.21709526687E+02 0.19768177871E+02 0.18257153671E+02 0.17412094779E+02 0.17421296721E+02
 0.18470636234E+02 0.20752861003E+02 0.24391978622E+02 0.29366655319E+02 0.35901076589E+02
 0.43850835960E+02 0.52295981412E+02 0.59845556981E+02 0.65076701039E+02 0.10148629050E+03
 0.98667459411E+02 0.90671540834E+02 0.78796815476E+02 0.64941491011E+02 0.51222455787E+02
 0.39456506940E+02 0.30598345228E+02 0.24391978549E+02 0.20080967443E+02 0.17412093934E+02
 0.16028209298E+02 0.15571566577E+02 0.15759668144E+02 0.16364176441E+02 0.17174966068E+02
 0.17981206566E+02 0.18576268791E+02 0.18796041925E+02 0.18576268262E+02 0.17981205710E+02
 0.17174965209E+02 0.16364175911E+02 0.15759668154E+02 0.15571567125E+02 0.16028210158E+02
 0.17412094754E+02 0.20080967922E+02 0.24391978602E+02 0.30598345024E+02 0.39456506734E+02
 0.51222455751E+02 0.64941491166E+02 0.78796815731E+02 0.90671541069E+02 0.98667459546E+02
 0.14175763489E+03 0.13810077492E+03 0.12762937717E+03 0.11173150170E+03 0.92465696211E+02
 0.72347949089E+02 0.53998759769E+02 0.39456506952E+02 0.29366655638E+02 0.22689700401E+02
 0.18257153399E+02 0.15571566606E+02 0.14092105408E+02 0.13384032320E+02 0.13144821044E+02
 0.13174150821E+02 0.13333051950E+02 0.13501007411E+02 0.13572172019E+02 0.13501007257E+02
 0.13333051732E+02 0.13174150678E+02 0.13144821108E+02 0.13384032645E+02 0.14092105919E+02
 0.15571567091E+02 0.18257153613E+02 0.22689700244E+02 0.29366655277E+02 0.39456506718E+02
 0.53998759918E+02 0.72347949668E+02 0.92465697065E+02 0.11173150259E+03 0.12762937787E+03
 0.13810077530E+03 0.18320685687E+03 0.17878574846E+03 0.16616678436E+03 0.14695903968E+03
 0.12321585520E+03 0.97361039734E+02 0.72347949081E+02 0.51222455799E+02 0.35901077183E+02
 0.26100249253E+02 0.19768178357E+02 0.15759668198E+02 0.13384032345E+02 0.12026433982E+02
 0.11258817844E+02 0.10832098444E+02 0.10623936460E+02 0.10554346725E+02 0.10544018752E+02
 0.10554346745E+02 0.10623936563E+02 0.10832098695E+02 0.11258818239E+02 0.12026434413E+02
 0.13384032614E+02 0.15759668089E+02 0.19768177785E+02 0.26100248417E+02 0.35901076535E+02
 0.51222455735E+02 0.72347949674E+02 0.97361040708E+02 0.12321585615E+03 0.14695904033E+03
 0.16616678469E+03 0.17878574857E+03 0.22454841134E+03 0.21906422141E+03 0.20375348994E+03
 0.18114529688E+03 0.15363479505E+03 0.12321585517E+03 0.92465696180E+02 0.64941491010E+02
 0.43850836722E+02 0.30098439015E+02 0.21709527869E+02 0.16364176509E+02 0.13144821082E+02
 0.11258817856E+02 0.10127914707E+02 0.94221115528E+01 0.90032230253E+01 0.88034751257E+01
 0.87499464395E+01 0.88034750507E+01 0.90032230201E+01 0.94221117606E+01 0.10127915110E+02
 0.11258818223E+02 0.13144821062E+02 0.16364175831E+02 0.21709526587E+02 0.30098437625E+02
 0.43850835907E+02 0.64941491162E+02 0.92465697093E+02 0.12321585618E+03 0.15363479551E+03
 0.18114529661E+03 0.20375348927E+03 0.21906422089E+03 0.26693201761E+03 0.25968898411E+03
 0.24010323633E+03 0.21272695609E+03 0.18114529685E+03 0.14695903962E+03 0.11173150165E+03
 0.78796815461E+02 0.52295982223E+02 0.34408360708E+02 0.23775249658E+02 0.17174966135E+02
 0.13174150859E+02 0.10832098456E+02 0.94221115528E+01 0.85244214853E+01 0.79711591367E+01
 0.76930927220E+01 0.76146421376E+01 0.76930924214E+01 0.79711587966E+01 0.85244213939E+01
 0.94221117590E+01 0.10832098678E+02 0.13174150633E+02 0.17174965132E+02 0.23775248004E+02
 0.34408359060E+02 0.52295981370E+02 0.78796815743E+02 0.11173150264E+03 0.14695904039E+03
 0.18114529664E+03 0.21272695486E+03 0.24010323472E+03 0.25968898302E+03 0.30858188707E+03
 0.29898928039E+03 0.27370028097E+03 0.24010323631E+03 0.20375348989E+03 0.16616678430E+03
 0.12762937711E+03 0.90671540812E+02 0.59845557682E+02 0.38378240819E+02 0.25622495484E+02
 0.17981206619E+02 0.13333051978E+02 0.10623936466E+02 0.90032230212E+01 0.79711591326E+01
 0.73291000662E+01 0.70015458737E+01 0.69078569325E+01 0.70015454429E+01 0.73290995080E+01
 0.79711588003E+01 0.90032230227E+01 0.10623936553E+02 0.13333051700E+02 0.17981205652E+02
 0.25622493955E+02 0.38378239339E+02 0.59845556954E+02 0.90671541089E+02 0.12762937793E+03
 0.16616678475E+03 0.20375348932E+03 0.24010323474E+03 0.27370027912E+03 0.29898927917E+03
 0.34120839267E+03 0.32948280254E+03 0.29898928039E+03 0.25968898410E+03 0.21906422138E+03
 0.17878574842E+03 0.13810077488E+03 0.98667459396E+02 0.65076701452E+02 0.41200066680E+02
 0.26926652128E+02 0.18576268819E+02 0.13501007426E+02 0.10554346727E+02 0.88034751213E+01
 0.76930927175E+01 0.70015458719E+01 0.66473160256E+01 0.65456164890E+01 0.66473157089E+01
 0.70015454447E+01 0.76930924257E+01 0.88034750547E+01 0.10554346742E+02 0.13501007242E+02
 0.18576268232E+02 0.26926651212E+02 0.41200065801E+02 0.65076701027E+02 0.98667459561E+02
 0.13810077534E+03 0.17878574861E+03 0.21906422092E+03 0.25968898304E+03 0.29898927918E+03
 0.32948280176E+03 0.34120839267E+03 0.32948280176E+03 0.29898927917E+03 0.25968898302E+03
 0.21906422089E+03 0.17878574857E+03 0.13810077530E+03 0.98667459546E+02 0.65076701039E+02
 0.41200065834E+02 0.26926651250E+02 0.18576268262E+02 0.13501007257E+02 0.10554346745E+02
 0.88034750507E+01 0.76930924214E+01 0.70015454429E+01 0.66473157089E+01 0.65456164890E+01
 0.66473160256E+01 0.70015458737E+01 0.76930927220E+01 0.88034751257E+01 0.10554346725E+02
 0.13501007411E+02 0.18576268791E+02 0.26926652091E+02 0.41200066648E+02 0.65076701440E+02
 0.98667459411E+02 0.13810077492E+03 0.17878574846E+03 0.21906422141E+03 0.25968898411E+03
 0.29898928039E+03 0.32948280254E+03 0.32948280176E+03 0.31854547349E+03 0.28997901030E+03
 0.25279700799E+03 0.21376018947E+03 0.17446172927E+03 0.13451899117E+03 0.95919678859E+02
 0.63265231910E+02 0.40213946761E+02 0.26467451842E+02 0.18361248627E+02 0.13430641503E+02
 0.10563377540E+02 0.88548635318E+01 0.77691621739E+01 0.70928320896E+01 0.67466419421E+01
 0.66473160256E+01 0.67466425644E+01 0.70928329383E+01 0.77691627715E+01 0.88548636930E+01
 0.10563377522E+02 0.13430641831E+02 0.18361249694E+02 0.26467453528E+02 0.40213948397E+02
 0.63265232727E+02 0.95919678597E+02 0.13451899036E+03 0.17446172890E+03 0.21376019026E+03
 0.25279700984E+03 0.28997901242E+03 0.31854547487E+03 0.29898927918E+03 0.28997901030E+03
 0.26610869507E+03 0.23406598819E+03 0.19889753645E+03 0.16210319421E+03 0.12426457640E+03
 0.88130723273E+02 0.58202554074E+02 0.37494790544E+02 0.25201792507E+02 0.17779080613E+02
 0.13264138715E+02 0.10628364406E+02 0.90475012328E+01 0.80393161206E+01 0.74123176296E+01
 0.70928322220E+01 0.70015458719E+01 0.70928329383E+01 0.74123185905E+01 0.80393167635E+01
 0.90475013544E+01 0.10628364340E+02 0.13264139119E+02 0.17779081975E+02 0.25201794684E+02
 0.37494792685E+02 0.58202555184E+02 0.88130722976E+02 0.12426457531E+03 0.16210319355E+03
 0.19889753710E+03 0.23406599012E+03 0.26610869737E+03 0.28997901182E+03 0.25968898304E+03
 0.25279700799E+03 0.23406598818E+03 0.20763642077E+03 0.17682337998E+03 0.14326345574E+03
 0.10870946897E+03 0.76580735660E+02 0.50905757738E+02 0.33670004976E+02 0.23402126706E+02
 0.16990574461E+02 0.13105476029E+02 0.10827549435E+02 0.94534084097E+01 0.85780629650E+01
 0.80393160683E+01 0.77691622228E+01 0.76930927175E+01 0.77691627715E+01 0.80393167649E+01
 0.85780633441E+01 0.94534083330E+01 0.10827549241E+02 0.13105476342E+02 0.16990575753E+02
 0.23402128856E+02 0.33670007167E+02 0.50905758965E+02 0.76580735469E+02 0.10870946786E+03
 0.14326345480E+03 0.17682338011E+03 0.20763642203E+03 0.23406598987E+03 0.25279700914E+03
 0.21906422092E+03 0.21376018947E+03 0.19889753643E+03 0.17682337996E+03 0.14983614913E+03
 0.11997562746E+03 0.89898075199E+02 0.63136572405E+02 0.42757872611E+02 0.29514644018E+02
 0.21386879066E+02 0.16198302553E+02 0.13073323201E+02 0.11240098866E+02 0.10139596658E+02
 0.94534083263E+01 0.90475010828E+01 0.88548634317E+01 0.88034751213E+01 0.88548636930E+01
 0.90475013557E+01 0.94534083325E+01 0.10139596344E+02 0.11240098500E+02 0.13073323251E+02
 0.16198303403E+02 0.21386880688E+02 0.29514645827E+02 0.42757873781E+02 0.63136572454E+02
 0.89898074341E+02 0.11997562643E+03 0.14983614862E+03 0.17682338016E+03 0.19889753702E+03
 0.21376018993E+03 0.17878574861E+03 0.17446172927E+03 0.16210319418E+03 0.14326345570E+03
 0.11997562744E+03 0.94680450693E+02 0.70322824441E+02 0.49866438906E+02 0.35100105985E+02
 0.25645595226E+02 0.19496233120E+02 0.15608248983E+02 0.13303517771E+02 0.11985253852E+02
 0.11240098882E+02 0.10827549389E+02 0.10628364297E+02 0.10563377436E+02 0.10554346727E+02
 0.10563377522E+02 0.10628364337E+02 0.10827549233E+02 0.11240098492E+02 0.11985253362E+02
 0.13303517462E+02 0.15608249156E+02 0.19496233892E+02 0.25645596358E+02 0.35100106946E+02
 0.49866439238E+02 0.70322824053E+02 0.94680449863E+02 0.11997562656E+03 0.14326345505E+03
 0.16210319380E+03 0.17446172910E+03 0.13810077534E+03 0.13451899117E+03 0.12426457637E+03
 0.10870946894E+03 0.89898075176E+02 0.70322824435E+02 0.52547910338E+02 0.38521773446E+02
 0.28802320724E+02 0.22327053550E+02 0.18027264313E+02 0.15424168376E+02 0.13989843773E+02
 0.13303517894E+02 0.13073323380E+02 0.13105476207E+02 0.13264138872E+02 0.13430641654E+02
 0.13501007426E+02 0.13430641831E+02 0.13264139105E+02 0.13105476319E+02 0.13073323225E+02
 0.13303517445E+02 0.13989843161E+02 0.15424167869E+02 0.18027264185E+02 0.22327053890E+02
 0.28802321330E+02 0.38521773949E+02 0.52547910455E+02 0.70322824094E+02 0.89898074500E+02
 0.10870946815E+03 0.12426457569E+03 0.13451899078E+03 0.98667459561E+02 0.95919678859E+02
 0.88130723262E+02 0.76580735649E+02 0.63136572404E+02 0.49866438915E+02 0.38521773456E+02
 0.29990112637E+02 0.23977177003E+02 0.19793395379E+02 0.17206894416E+02 0.15866206896E+02
 0.15424168539E+02 0.15608249297E+02 0.16198302985E+02 0.16990574974E+02 0.17779081171E+02
 0.18361249202E+02 0.18576268819E+02 0.18361249694E+02 0.17779081951E+02 0.16990575712E+02
 0.16198303358E+02 0.15608249119E+02 0.15424167850E+02 0.15866205958E+02 0.17206893605E+02
 0.19793394996E+02 0.23977177118E+02 0.29990113062E+02 0.38521773905E+02 0.49866439182E+02
 0.63136572433E+02 0.76580735511E+02 0.88130723078E+02 0.95919678738E+02 0.65076701027E+02
 0.63265231910E+02 0.58202554086E+02 0.50905757763E+02 0.42757872645E+02 0.35100106022E+02
 0.28802320754E+02 0.23977177018E+02 0.20444085510E+02 0.18231958721E+02 0.17215511547E+02
 0.17206894569E+02 0.18027264632E+02 0.19496233607E+02 0.21386879709E+02 0.23402127479E+02
 0.25201793372E+02 0.26467452745E+02 0.26926652128E+02 0.26467453528E+02 0.25201794654E+02
 0.23402128807E+02 0.21386880633E+02 0.19496233845E+02 0.18027264155E+02 0.17206893593E+02
 0.17215510433E+02 0.18231957830E+02 0.20444085075E+02 0.23977177086E+02 0.28802321222E+02
 0.35100106742E+02 0.42757873490E+02 0.50905758610E+02 0.58202554789E+02 0.63265232314E+02
 0.41200065801E+02 0.40213946761E+02 0.37494790573E+02 0.33670005028E+02 0.29514644080E+02