   4   4   0   0
  0.1818145E+02  0.4174100E-09  0.4174100E-09  0.4174100E-09  0.5000000E-15
  1.000000000000000E-004
  CAR 
 Au                                      
     37.25132757     -2.57555321  301      8.43855512      1.00000000
     -2.576  0.0000E+00  0.0000E+00
     -2.443  0.0000E+00  0.0000E+00
     -2.310  0.0000E+00  0.0000E+00
     -2.177  0.0000E+00  0.0000E+00
     -2.045  0.0000E+00  0.0000E+00
     -1.912  0.0000E+00  0.0000E+00
     -1.779  0.0000E+00  0.0000E+00
     -1.646  0.0000E+00  0.0000E+00
     -1.514  0.0000E+00  0.0000E+00
     -1.381  0.0000E+00  0.0000E+00
     -1.248  0.0000E+00  0.0000E+00
     -1.115  0.0000E+00  0.0000E+00
     -0.982  0.3498E-11  0.4643E-12
     -0.850  0.7368E-04  0.9781E-05
     -0.717  0.1932E-01  0.2575E-02
     -0.584  0.1321E+00  0.2011E-01
     -0.451  0.1250E+00  0.3671E-01
     -0.319  0.3198E+00  0.7917E-01
     -0.186  0.1510E+00  0.9921E-01
     -0.053  0.3547E+00  0.1463E+00
      0.080  0.3864E+00  0.1976E+00
      0.212  0.3500E+00  0.2441E+00
      0.345  0.3596E+00  0.2918E+00
      0.478  0.4545E+00  0.3521E+00
      0.611  0.5620E+00  0.4267E+00
      0.743  0.7540E+00  0.5268E+00
      0.876  0.2478E+00  0.5597E+00
      1.009  0.8154E+00  0.6680E+00
      1.142  0.8138E+00  0.7760E+00
      1.274  0.8191E+00  0.8848E+00
      1.407  0.9525E+00  0.1011E+01
      1.540  0.1436E+01  0.1202E+01
      1.673  0.2207E+01  0.1495E+01
      1.805  0.3154E+01  0.1914E+01
      1.938  0.3969E+01  0.2440E+01
      2.071  0.5262E+01  0.3139E+01
      2.204  0.6995E+01  0.4068E+01
      2.336  0.9848E+01  0.5375E+01
      2.469  0.9160E+01  0.6591E+01
      2.602  0.7748E+01  0.7620E+01
      2.735  0.9087E+01  0.8826E+01
      2.867  0.6903E+01  0.9742E+01
      3.000  0.5307E+01  0.1045E+02
      3.133  0.9884E+01  0.1176E+02
      3.266  0.1347E+02  0.1355E+02
      3.398  0.1416E+02  0.1543E+02
      3.531  0.5339E+01  0.1614E+02
      3.664  0.5313E+01  0.1684E+02
      3.797  0.8444E+01  0.1796E+02
      3.930  0.6549E+01  0.1883E+02
      4.062  0.6131E+01  0.1965E+02
      4.195  0.5893E+01  0.2043E+02
      4.328  0.5688E+01  0.2118E+02
      4.461  0.5727E+01  0.2194E+02
      4.593  0.6963E+01  0.2287E+02
      4.726  0.2314E+01  0.2317E+02
      4.859  0.5647E+01  0.2392E+02
      4.992  0.9728E+01  0.2522E+02
      5.124  0.1040E+02  0.2660E+02
      5.257  0.7824E+01  0.2763E+02
      5.390  0.1012E+02  0.2898E+02
      5.523  0.1168E+02  0.3053E+02
      5.655  0.9122E+01  0.3174E+02
      5.788  0.7846E+01  0.3278E+02
      5.921  0.7593E+01  0.3379E+02
      6.054  0.8163E+01  0.3487E+02
      6.186  0.7419E+01  0.3586E+02
      6.319  0.7421E+01  0.3684E+02
      6.452  0.9570E+01  0.3811E+02
      6.585  0.1119E+02  0.3960E+02
      6.717  0.7605E+01  0.4061E+02
      6.850  0.6413E+01  0.4146E+02
      6.983  0.2717E+01  0.4182E+02
      7.116  0.1864E+01  0.4207E+02
      7.248  0.2589E+01  0.4241E+02
      7.381  0.1348E+01  0.4259E+02
      7.514  0.1090E+01  0.4274E+02
      7.647  0.1423E+01  0.4292E+02
      7.779  0.1530E+01  0.4313E+02
      7.912  0.1110E+01  0.4328E+02
      8.045  0.9728E+00  0.4340E+02
      8.178  0.1185E+01  0.4356E+02
      8.310  0.1790E+01  0.4380E+02
      8.443  0.1549E+01  0.4401E+02
      8.576  0.8992E+00  0.4412E+02
      8.709  0.5309E+00  0.4419E+02
      8.841  0.1743E+01  0.4443E+02
      8.974  0.1538E+01  0.4463E+02
      9.107  0.1188E+01  0.4479E+02
      9.240  0.6049E+00  0.4487E+02
      9.373  0.1256E+01  0.4504E+02
      9.505  0.1336E+01  0.4521E+02
      9.638  0.1639E+01  0.4543E+02
      9.771  0.1048E+01  0.4557E+02
      9.904  0.1144E+01  0.4572E+02
     10.036  0.7047E+00  0.4581E+02
     10.169  0.1668E+01  0.4604E+02
     10.302  0.4721E+00  0.4610E+02
     10.435  0.1539E+01  0.4630E+02
     10.567  0.1111E+01  0.4645E+02
     10.700  0.1058E+01  0.4659E+02
     10.833  0.1081E+01  0.4673E+02
     10.966  0.1166E+01  0.4689E+02
     11.098  0.6401E+00  0.4697E+02
     11.231  0.1969E+01  0.4724E+02
     11.364  0.1472E+01  0.4743E+02
     11.497  0.1963E+01  0.4769E+02
     11.629  0.1525E+01  0.4789E+02
     11.762  0.1858E+01  0.4814E+02
     11.895  0.1093E+01  0.4829E+02
     12.028  0.9184E+00  0.4841E+02
     12.160  0.1180E+01  0.4856E+02
     12.293  0.1187E+01  0.4872E+02
     12.426  0.1625E+01  0.4894E+02
     12.559  0.5845E+00  0.4902E+02
     12.691  0.8879E+00  0.4913E+02
     12.824  0.8776E+00  0.4925E+02
     12.957  0.1715E+01  0.4948E+02
     13.090  0.1705E+01  0.4970E+02
     13.222  0.1707E+01  0.4993E+02
     13.355  0.1442E+01  0.5012E+02
     13.488  0.6067E+00  0.5020E+02
     13.621  0.2150E+01  0.5049E+02
     13.753  0.1786E+01  0.5073E+02
     13.886  0.1970E+01  0.5099E+02
     14.019  0.1496E+01  0.5119E+02
     14.152  0.1013E+01  0.5132E+02
     14.284  0.1316E+01  0.5149E+02
     14.417  0.1696E+01  0.5172E+02
     14.550  0.9117E+00  0.5184E+02
     14.683  0.7930E+00  0.5195E+02
     14.816  0.5426E+00  0.5202E+02
     14.948  0.1725E+01  0.5225E+02
     15.081  0.1059E+01  0.5239E+02
     15.214  0.1409E+01  0.5257E+02
     15.347  0.1600E+01  0.5279E+02
     15.479  0.1310E+01  0.5296E+02
     15.612  0.1464E+01  0.5316E+02
     15.745  0.1569E+01  0.5336E+02
     15.878  0.1086E+01  0.5351E+02
     16.010  0.9812E+00  0.5364E+02
     16.143  0.9488E+00  0.5376E+02
     16.276  0.2023E+01  0.5403E+02
     16.409  0.2655E+01  0.5438E+02
     16.541  0.2313E+01  0.5469E+02
     16.674  0.7139E+00  0.5479E+02
     16.807  0.9515E+00  0.5491E+02
     16.940  0.1030E+01  0.5505E+02
     17.072  0.1462E+01  0.5524E+02
     17.205  0.1971E+01  0.5551E+02
     17.338  0.1558E+01  0.5571E+02
     17.471  0.1339E+01  0.5589E+02
     17.603  0.2853E+01  0.5627E+02
     17.736  0.1665E+01  0.5649E+02
     17.869  0.7343E+00  0.5659E+02
     18.002  0.1281E+01  0.5676E+02
     18.134  0.1683E+01  0.5698E+02
     18.267  0.2832E+01  0.5736E+02
     18.400  0.2381E+01  0.5767E+02
     18.533  0.1050E+01  0.5781E+02
     18.665  0.1574E+01  0.5802E+02
     18.798  0.6695E+00  0.5811E+02
     18.931  0.2247E+01  0.5841E+02
     19.064  0.2863E+01  0.5879E+02
     19.196  0.4099E+01  0.5933E+02
     19.329  0.1867E+01  0.5958E+02
     19.462  0.1619E+01  0.5980E+02
     19.595  0.1294E+01  0.5997E+02
     19.728  0.1065E+01  0.6011E+02
     19.860  0.2497E+01  0.6044E+02
     19.993  0.2623E+01  0.6079E+02
     20.126  0.1663E+01  0.6101E+02
     20.259  0.3706E+01  0.6150E+02
     20.391  0.1363E+01  0.6168E+02
     20.524  0.1767E+01  0.6192E+02
     20.657  0.1071E+01  0.6206E+02
     20.790  0.2427E+01  0.6238E+02
     20.922  0.1885E+01  0.6263E+02
     21.055  0.2004E+01  0.6290E+02
     21.188  0.2260E+01  0.6320E+02
     21.321  0.2444E+01  0.6352E+02
     21.453  0.1990E+01  0.6379E+02
     21.586  0.1304E+01  0.6396E+02
     21.719  0.2363E+01  0.6427E+02
     21.852  0.3233E+01  0.6470E+02
     21.984  0.1378E+01  0.6489E+02
     22.117  0.6698E+00  0.6497E+02
     22.250  0.2298E+01  0.6528E+02
     22.383  0.2261E+01  0.6558E+02
     22.515  0.2555E+01  0.6592E+02
     22.648  0.2164E+01  0.6621E+02
     22.781  0.3236E+01  0.6664E+02
     22.914  0.2516E+01  0.6697E+02
     23.046  0.2852E+01  0.6735E+02
     23.179  0.1899E+01  0.6760E+02
     23.312  0.2982E+01  0.6800E+02
     23.445  0.2325E+01  0.6830E+02
     23.577  0.1347E+01  0.6848E+02
     23.710  0.1881E+01  0.6873E+02
     23.843  0.2097E+01  0.6901E+02
     23.976  0.2723E+01  0.6937E+02
     24.108  0.3028E+01  0.6978E+02
     24.241  0.2439E+01  0.7010E+02
     24.374  0.2352E+01  0.7041E+02
     24.507  0.1092E+01  0.7056E+02
     24.639  0.2163E+01  0.7084E+02
     24.772  0.2557E+01  0.7118E+02
     24.905  0.1581E+01  0.7139E+02
     25.038  0.3927E+01  0.7191E+02
     25.171  0.2877E+01  0.7230E+02
     25.303  0.3974E+01  0.7282E+02
     25.436  0.3056E+01  0.7323E+02
     25.569  0.3692E+01  0.7372E+02
     25.702  0.3516E+01  0.7419E+02
     25.834  0.4051E+01  0.7472E+02
     25.967  0.3893E+01  0.7524E+02
     26.100  0.2832E+01  0.7562E+02
     26.233  0.2590E+01  0.7596E+02
     26.365  0.2864E+01  0.7634E+02
     26.498  0.2641E+01  0.7669E+02
     26.631  0.2562E+01  0.7703E+02
     26.764  0.1895E+01  0.7728E+02
     26.896  0.1209E+01  0.7744E+02
     27.029  0.3650E+01  0.7793E+02
     27.162  0.2229E+01  0.7822E+02
     27.295  0.2718E+01  0.7858E+02
     27.427  0.2644E+01  0.7894E+02
     27.560  0.2278E+01  0.7924E+02
     27.693  0.2154E+01  0.7952E+02
     27.826  0.2185E+01  0.7981E+02
     27.958  0.2169E+01  0.8010E+02
     28.091  0.2126E+01  0.8038E+02
     28.224  0.2181E+01  0.8067E+02
     28.357  0.9616E+00  0.8080E+02
     28.489  0.7050E+00  0.8090E+02
     28.622  0.1565E+01  0.8110E+02
     28.755  0.1217E+01  0.8126E+02
     28.888  0.7898E+00  0.8137E+02
     29.020  0.1575E+01  0.8158E+02
     29.153  0.2602E+01  0.8192E+02
     29.286  0.3085E+01  0.8233E+02
     29.419  0.1380E+01  0.8252E+02
     29.551  0.1594E+01  0.8273E+02
     29.684  0.2344E+01  0.8304E+02
     29.817  0.1302E+01  0.8321E+02
     29.950  0.8866E+00  0.8333E+02
     30.082  0.1774E+01  0.8357E+02
     30.215  0.1499E+01  0.8376E+02
     30.348  0.3430E+01  0.8422E+02
     30.481  0.1355E+01  0.8440E+02
     30.614  0.2028E+01  0.8467E+02
     30.746  0.1339E+01  0.8485E+02
     30.879  0.1920E+01  0.8510E+02
     31.012  0.2009E+01  0.8537E+02
     31.145  0.2180E+01  0.8566E+02
     31.277  0.2332E+01  0.8597E+02
     31.410  0.2518E+01  0.8630E+02
     31.543  0.2717E+01  0.8666E+02
     31.676  0.2625E+01  0.8701E+02
     31.808  0.2690E+01  0.8737E+02
     31.941  0.4233E+01  0.8793E+02
     32.074  0.3256E+01  0.8836E+02
     32.207  0.2813E+01  0.8874E+02
     32.339  0.2882E+01  0.8912E+02
     32.472  0.3219E+01  0.8955E+02
     32.605  0.3364E+01  0.8999E+02
     32.738  0.3706E+01  0.9048E+02
     32.870  0.3638E+01  0.9097E+02
     33.003  0.3219E+01  0.9139E+02
     33.136  0.4556E+01  0.9200E+02
     33.269  0.6121E+01  0.9281E+02
     33.401  0.4887E+01  0.9346E+02
     33.534  0.2401E+01  0.9378E+02
     33.667  0.3023E+01  0.9418E+02
     33.800  0.2680E+01  0.9454E+02
     33.932  0.3715E+01  0.9503E+02
     34.065  0.1922E+01  0.9528E+02
     34.198  0.2019E+01  0.9555E+02
     34.331  0.9219E+00  0.9568E+02
     34.463  0.2133E+00  0.9570E+02
     34.596  0.3665E+00  0.9575E+02
     34.729  0.4949E+00  0.9582E+02
     34.862  0.9075E+00  0.9594E+02
     34.994  0.5407E-01  0.9595E+02
     35.127  0.1170E-01  0.9595E+02
     35.260  0.2454E+00  0.9598E+02
     35.393  0.1442E+00  0.9600E+02
     35.525  0.8305E-02  0.9600E+02
     35.658  0.7354E-04  0.9600E+02
     35.791  0.3499E-11  0.9600E+02
     35.924  0.0000E+00  0.9600E+02
     36.057  0.0000E+00  0.9600E+02
     36.189  0.0000E+00  0.9600E+02
     36.322  0.0000E+00  0.9600E+02
     36.455  0.0000E+00  0.9600E+02
     36.588  0.0000E+00  0.9600E+02
     36.720  0.0000E+00  0.9600E+02
     36.853  0.0000E+00  0.9600E+02
     36.986  0.0000E+00  0.9600E+02
     37.119  0.0000E+00  0.9600E+02
     37.251  0.0000E+00  0.9600E+02
