    4    4    1    1
  0.1818145E+02  0.4174100E-09  0.4174100E-09  0.4174100E-09  0.5000000E-15
  1.000000000000000E-004
  CAR 
 Au                                      
     44    294     96
 
  0.0000000E+00  0.0000000E+00  0.0000000E+00  0.5787037E-03
      1         -0.765240   1.000000
      2         -0.765236   1.000000
      3          1.820858   1.000000
      4          1.820858   1.000000
      5          1.820858   1.000000
      6          1.820859   1.000000
      7          1.820859   1.000000
      8          1.820859   1.000000
      9          2.062499   1.000000
     10          2.062499   1.000000
     11          2.062499   1.000000
     12          2.062505   1.000000
     13          2.062505   1.000000
     14          2.062505   1.000000
     15          3.421618   1.000000
     16          3.421621   1.000000
     17          3.421621   1.000000
     18          3.421624   1.000000
     19          4.627418   1.000000
     20          4.627420   1.000000
     21          5.688015   1.000000
     22          5.688016   1.000000
     23          5.688018   1.000000
     24          5.688019   1.000000
     25          6.235752   1.000000
     26          6.235752   1.000000
     27          6.235752   1.000000
     28          6.235753   1.000000
     29          6.235753   1.000000
     30          6.235753   1.000000
     31          6.408133   1.000000
     32          6.408133   1.000000
     33          6.408133   1.000000
     34          6.408134   1.000000
     35          6.408134   1.000000
     36          6.408134   1.000000
     37          7.394835   1.000000
     38          7.394835   1.000000
     39          7.394835   1.000000
     40          7.394836   1.000000
     41          7.394836   1.000000
     42          7.394836   1.000000
     43          9.465355   0.000000
     44          9.465355   0.000000
     45          9.465355   0.000000
     46          9.465364   0.000000
     47          9.465364   0.000000
     48          9.465364   0.000000
     49         13.701852   0.000000
     50         13.701852   0.000000
     51         13.701852   0.000000
     52         13.701858   0.000000
     53         13.701858   0.000000
     54         13.701858   0.000000
     55         17.599804   0.000000
     56         17.599804   0.000000
     57         17.599804   0.000000
     58         17.599813   0.000000
     59         17.599813   0.000000
     60         17.599813   0.000000
     61         18.904030   0.000000
     62         18.904030   0.000000
     63         18.904030   0.000000
     64         18.904038   0.000000
     65         18.904038   0.000000
     66         18.904038   0.000000
     67         23.025992   0.000000
     68         23.026002   0.000000
     69         24.952957   0.000000
     70         24.952957   0.000000
     71         24.952957   0.000000
     72         24.953007   0.000000
     73         24.953007   0.000000
     74         24.953007   0.000000
     75         25.757453   0.000000
     76         25.757456   0.000000
     77         26.936711   0.000000
     78         26.936713   0.000000
     79         26.936716   0.000000
     80         26.936717   0.000000
     81         27.382989   0.000000
     82         27.382989   0.000000
     83         27.382989   0.000000
     84         27.382992   0.000000
     85         27.382992   0.000000
     86         27.382992   0.000000
     87         31.362782   0.000000
     88         31.362874   0.000000
     89         34.218915   0.000000
     90         34.218918   0.000000
     91         35.125753   0.000000
     92         35.125758   0.000000
     93         35.125762   0.000000
     94         35.125769   0.000000
     95         35.441014   0.000000
     96         35.441015   0.000000
 
  0.8333333E-01  0.4249135E-32  0.0000000E+00  0.3472222E-02
      1         -0.689059   1.000000
      2         -0.689055   1.000000
      3          1.845299   1.000000
      4          1.845299   1.000000
      5          1.868218   1.000000
      6          1.868218   1.000000
      7          1.868218   1.000000
      8          1.868218   1.000000
      9          2.087561   1.000000
     10          2.087566   1.000000
     11          2.101149   1.000000
     12          2.101149   1.000000
     13          2.101154   1.000000
     14          2.101154   1.000000
     15          3.411731   1.000000
     16          3.411734   1.000000
     17          3.442841   1.000000
     18          3.442844   1.000000
     19          4.636649   1.000000
     20          4.636651   1.000000
     21          5.657105   1.000000
     22          5.657108   1.000000
     23          5.699086   1.000000
     24          5.699089   1.000000
     25          6.139127   1.000000
     26          6.139127   1.000000
     27          6.139129   1.000000
     28          6.139129   1.000000
     29          6.209439   1.000000
     30          6.209441   1.000000
     31          6.313884   1.000000
     32          6.313884   1.000000
     33          6.313885   1.000000
     34          6.313885   1.000000
     35          6.327468   1.000000
     36          6.327470   1.000000
     37          7.275085   1.000000
     38          7.275085   1.000000
     39          7.275086   1.000000
     40          7.275086   1.000000
     41          7.333506   1.000000
     42          7.333507   1.000000
     43          8.933053   0.000000
     44          8.933061   0.000000
     45          9.777073   0.000000
     46          9.777073   0.000000
     47          9.777081   0.000000
     48          9.777081   0.000000
     49         13.633755   0.000000
     50         13.633755   0.000000
     51         13.633762   0.000000
     52         13.633762   0.000000
     53         14.350726   0.000000
     54         14.350732   0.000000
     55         17.520700   0.000000
     56         17.520700   0.000000
     57         17.520707   0.000000
     58         17.520707   0.000000
     59         17.782300   0.000000
     60         17.782309   0.000000
     61         18.766702   0.000000
     62         18.766702   0.000000
     63         18.766709   0.000000
     64         18.766709   0.000000
     65         19.061232   0.000000
     66         19.061240   0.000000
     67         23.111025   0.000000
     68         23.111035   0.000000
     69         24.902020   0.000000
     70         24.902069   0.000000
     71         25.295440   0.000000
     72         25.295440   0.000000
     73         25.295486   0.000000
     74         25.295486   0.000000
     75         25.611058   0.000000
     76         25.611061   0.000000
     77         26.690089   0.000000
     78         26.690095   0.000000
     79         26.892652   0.000000
     80         26.892655   0.000000
     81         27.321922   0.000000
     82         27.321926   0.000000
     83         27.473299   0.000000
     84         27.473299   0.000000
     85         27.473301   0.000000
     86         27.473301   0.000000
     87         31.836610   0.000000
     88         31.836692   0.000000
     89         33.436356   0.000000
     90         33.436362   0.000000
     91         34.723207   0.000000
     92         34.723215   0.000000
     93         35.298119   0.000000
     94         35.298119   0.000000
     95         35.298828   0.000000
     96         35.299498   0.000000
 
  0.1666667E+00  0.7932299E-32  0.0000000E+00  0.3472222E-02
      1         -0.463076   1.000000
      2         -0.463072   1.000000
      3          1.910878   1.000000
      4          1.910879   1.000000
      5          2.004344   1.000000
      6          2.004344   1.000000
      7          2.004344   1.000000
      8          2.004344   1.000000
      9          2.160834   1.000000
     10          2.160839   1.000000
     11          2.216281   1.000000
     12          2.216281   1.000000
     13          2.216286   1.000000
     14          2.216286   1.000000
     15          3.376123   1.000000
     16          3.376127   1.000000
     17          3.506097   1.000000
     18          3.506100   1.000000
     19          4.674979   1.000000
     20          4.674981   1.000000
     21          5.574470   1.000000
     22          5.574473   1.000000
     23          5.736766   1.000000
     24          5.736769   1.000000
     25          5.742864   1.000000
     26          5.742864   1.000000
     27          5.742866   1.000000
     28          5.742866   1.000000
     29          6.085311   1.000000
     30          6.085312   1.000000
     31          6.130300   1.000000
     32          6.130301   1.000000
     33          6.180978   1.000000
     34          6.180978   1.000000
     35          6.180979   1.000000
     36          6.180979   1.000000
     37          7.095415   1.000000
     38          7.095415   1.000000
     39          7.095416   1.000000
     40          7.095416   1.000000
     41          7.164170   1.000000
     42          7.164172   1.000000
     43          7.876236   1.000000
     44          7.876243   1.000000
     45         10.492883   0.000000
     46         10.492883   0.000000
     47         10.492891   0.000000
     48         10.492891   0.000000
     49         13.455152   0.000000
     50         13.455152   0.000000
     51         13.455161   0.000000
     52         13.455161   0.000000
     53         15.757301   0.000000
     54         15.757307   0.000000
     55         17.292868   0.000000
     56         17.292868   0.000000
     57         17.292876   0.000000
     58         17.292876   0.000000
     59         18.333061   0.000000
     60         18.333069   0.000000
     61         18.421808   0.000000
     62         18.421808   0.000000
     63         18.421813   0.000000
     64         18.421813   0.000000
     65         19.517500   0.000000
     66         19.517508   0.000000
     67         23.358773   0.000000
     68         23.358783   0.000000
     69         24.764601   0.000000
     70         24.764650   0.000000
     71         25.200407   0.000000
     72         25.200414   0.000000
     73         26.138697   0.000000
     74         26.138708   0.000000
     75         26.230713   0.000000
     76         26.230713   0.000000
     77         26.230751   0.000000
     78         26.230751   0.000000
     79         26.715756   0.000000
     80         26.715758   0.000000
     81         27.138817   0.000000
     82         27.138821   0.000000
     83         27.745501   0.000000
     84         27.745501   0.000000
     85         27.745502   0.000000
     86         27.745502   0.000000
     87         32.157169   0.000000
     88         32.157182   0.000000
     89         33.336353   0.000000
     90         33.336407   0.000000
     91         33.733855   0.000000
     92         33.733864   0.000000
     93         34.434242   0.000000
     94         34.434247   0.000000
     95         34.800071   0.000000
     96         34.800071   0.000000
 
  0.2500000E+00  0.4242720E-32  0.0000000E+00  0.3472222E-02
      1         -0.096271   1.000000
      2         -0.096267   1.000000
      3          1.989123   1.000000
      4          1.989123   1.000000
      5          2.209286   1.000000
      6          2.209286   1.000000
      7          2.209287   1.000000
      8          2.209287   1.000000
      9          2.278456   1.000000
     10          2.278461   1.000000
     11          2.406532   1.000000
     12          2.406532   1.000000
     13          2.406537   1.000000
     14          2.406537   1.000000
     15          3.298393   1.000000
     16          3.298397   1.000000
     17          3.600275   1.000000
     18          3.600277   1.000000
     19          4.757955   1.000000
     20          4.757957   1.000000
     21          5.189799   1.000000
     22          5.189799   1.000000
     23          5.189802   1.000000
     24          5.189802   1.000000
     25          5.464110   1.000000
     26          5.464112   1.000000
     27          5.656967   1.000000
     28          5.656969   1.000000
     29          5.803938   1.000000
     30          5.803941   1.000000
     31          5.998058   1.000000
     32          5.998059   1.000000
     33          6.002455   1.000000
     34          6.002455   1.000000
     35          6.002457   1.000000
     36          6.002457   1.000000
     37          6.860389   1.000000
     38          6.860395   1.000000
     39          6.925658   1.000000
     40          6.925659   1.000000
     41          6.969847   1.000000
     42          6.969847   1.000000
     43          6.969849   1.000000
     44          6.969849   1.000000
     45         11.373526   0.000000
     46         11.373526   0.000000
     47         11.373533   0.000000
     48         11.373533   0.000000
     49         13.230176   0.000000
     50         13.230176   0.000000
     51         13.230186   0.000000
     52         13.230186   0.000000
     53         16.898659   0.000000
     54         16.898659   0.000000
     55         16.898669   0.000000
     56         16.898669   0.000000
     57         17.358329   0.000000
     58         17.358334   0.000000
     59         18.025171   0.000000
     60         18.025171   0.000000
     61         18.025179   0.000000
     62         18.025179   0.000000
     63         19.288415   0.000000
     64         19.288421   0.000000
     65         20.232845   0.000000
     66         20.232852   0.000000
     67         23.746246   0.000000
     68         23.746256   0.000000
     69         24.581118   0.000000
     70         24.581165   0.000000
     71         24.623377   0.000000
     72         24.623386   0.000000
     73         25.432200   0.000000
     74         25.432219   0.000000
     75         26.293018   0.000000
     76         26.293021   0.000000
     77         26.839164   0.000000
     78         26.839169   0.000000
     79         27.573718   0.000000
     80         27.573718   0.000000
     81         27.573748   0.000000
     82         27.573748   0.000000
     83         28.206314   0.000000
     84         28.206314   0.000000
     85         28.206315   0.000000
     86         28.206315   0.000000
     87         31.119177   0.000000
     88         31.119181   0.000000
     89         32.852082   0.000000
     90         32.852087   0.000000
     91         33.008695   0.000000
     92         33.008704   0.000000
     93         33.907309   0.000000
     94         33.907309   0.000000
     95         33.907331   0.000000
     96         33.907331   0.000000
 
  0.3333333E+00 -0.4304084E-32  0.0000000E+00  0.3472222E-02
      1          0.391599   1.000000
      2          0.391603   1.000000
      3          2.018458   1.000000
      4          2.018459   1.000000
      5          2.433560   1.000000
      6          2.433566   1.000000
      7          2.442247   1.000000
      8          2.442248   1.000000
      9          2.442248   1.000000
     10          2.442248   1.000000
     11          2.668362   1.000000
     12          2.668362   1.000000
     13          2.668367   1.000000
     14          2.668367   1.000000
     15          3.172371   1.000000
     16          3.172376   1.000000
     17          3.710690   1.000000
     18          3.710692   1.000000
     19          4.623409   1.000000
     20          4.623409   1.000000
     21          4.623413   1.000000
     22          4.623413   1.000000
     23          4.901059   1.000000
     24          4.901061   1.000000
     25          5.016426   1.000000
     26          5.016429   1.000000
     27          5.372560   1.000000
     28          5.372562   1.000000
     29          5.775044   1.000000
     30          5.775044   1.000000
     31          5.775047   1.000000
     32          5.775047   1.000000
     33          5.813737   1.000000
     34          5.813738   1.000000
     35          5.905344   1.000000
     36          5.905347   1.000000
     37          6.158364   1.000000
     38          6.158367   1.000000
     39          6.665318   1.000000
     40          6.665319   1.000000
     41          6.895446   1.000000
     42          6.895447   1.000000
     43          6.895448   1.000000
     44          6.895448   1.000000
     45         12.299761   0.000000
     46         12.299761   0.000000
     47         12.299768   0.000000
     48         12.299768   0.000000
     49         13.041324   0.000000
     50         13.041324   0.000000
     51         13.041334   0.000000
     52         13.041334   0.000000
     53         16.292428   0.000000
     54         16.292428   0.000000
     55         16.292438   0.000000
     56         16.292438   0.000000
     57         17.731941   0.000000
     58         17.731941   0.000000
     59         17.731954   0.000000
     60         17.731954   0.000000
     61         18.860173   0.000000
     62         18.860177   0.000000
     63         20.730605   0.000000
     64         20.730609   0.000000
     65         21.154614   0.000000
     66         21.154621   0.000000
     67         23.837537   0.000000
     68         23.837542   0.000000
     69         24.237944   0.000000
     70         24.237953   0.000000
     71         24.405349   0.000000
     72         24.405394   0.000000
     73         24.763613   0.000000
     74         24.763645   0.000000
     75         25.546867   0.000000
     76         25.546871   0.000000
     77         26.433406   0.000000
     78         26.433412   0.000000
     79         28.783272   0.000000
     80         28.783272   0.000000
     81         28.783277   0.000000
     82         28.783277   0.000000
     83         29.215921   0.000000
     84         29.215929   0.000000
     85         29.232184   0.000000
     86         29.232184   0.000000
     87         29.232207   0.000000
     88         29.232207   0.000000
     89         32.521684   0.000000
     90         32.521690   0.000000
     91         32.788183   0.000000
     92         32.788183   0.000000
     93         32.788199   0.000000
     94         32.788199   0.000000
     95         32.797969   0.000000
     96         32.797976   0.000000
 
  0.4166667E+00  0.6012043E-32  0.0000000E+00  0.3472222E-02
      1          0.957741   1.000000
      2          0.957745   1.000000
      3          1.889263   1.000000
      4          1.889265   1.000000
      5          2.615994   1.000000
      6          2.615999   1.000000
      7          2.638277   1.000000
      8          2.638277   1.000000
      9          2.638278   1.000000
     10          2.638278   1.000000
     11          2.980274   1.000000
     12          2.980274   1.000000
     13          2.980278   1.000000
     14          2.980278   1.000000
     15          3.003896   1.000000
     16          3.003901   1.000000
     17          3.828546   1.000000
     18          3.828547   1.000000
     19          4.118962   1.000000
     20          4.118962   1.000000
     21          4.118966   1.000000
     22          4.118966   1.000000
     23          4.385475   1.000000
     24          4.385478   1.000000
     25          5.100026   1.000000
     26          5.100028   1.000000
     27          5.359864   1.000000
     28          5.359866   1.000000
     29          5.568259   1.000000
     30          5.568259   1.000000
     31          5.568262   1.000000
     32          5.568262   1.000000
     33          5.586099   1.000000
     34          5.586100   1.000000
     35          5.735553   1.000000
     36          5.735555   1.000000
     37          6.041246   1.000000
     38          6.041248   1.000000
     39          6.421673   1.000000
     40          6.421675   1.000000
     41          6.858124   1.000000
     42          6.858124   1.000000
     43          6.858126   1.000000
     44          6.858126   1.000000
     45         12.801075   0.000000
     46         12.801075   0.000000
     47         12.801085   0.000000
     48         12.801085   0.000000
     49         13.324710   0.000000
     50         13.324710   0.000000
     51         13.324717   0.000000
     52         13.324717   0.000000
     53         15.541212   0.000000
     54         15.541212   0.000000
     55         15.541220   0.000000
     56         15.541220   0.000000
     57         17.576297   0.000000
     58         17.576297   0.000000
     59         17.576313   0.000000
     60         17.576313   0.000000
     61         20.207342   0.000000
     62         20.207347   0.000000
     63         22.224163   0.000000
     64         22.224169   0.000000
     65         22.589162   0.000000
     66         22.589165   0.000000
     67         22.742297   0.000000
     68         22.742301   0.000000
     69         24.304314   0.000000
     70         24.304355   0.000000
     71         24.374630   0.000000
     72         24.374669   0.000000
     73         24.495614   0.000000
     74         24.495619   0.000000
     75         24.831653   0.000000
     76         24.831661   0.000000
     77         25.939843   0.000000
     78         25.939850   0.000000
     79         27.000598   0.000000
     80         27.000606   0.000000
     81         29.597554   0.000000
     82         29.597554   0.000000
     83         29.597560   0.000000
     84         29.597560   0.000000
     85         30.879610   0.000000
     86         30.879610   0.000000
     87         30.879633   0.000000
     88         30.879633   0.000000
     89         31.638881   0.000000
     90         31.638881   0.000000
     91         31.638893   0.000000
     92         31.638893   0.000000
     93         32.892597   0.000000
     94         32.892602   0.000000
     95         33.096563   0.000000
     96         33.096569   0.000000
 
  0.5000000E+00  0.8485440E-32  0.0000000E+00  0.1736111E-02
      1          1.508728   1.000000
      2          1.508728   1.000000
      3          1.508731   1.000000
      4          1.508731   1.000000
      5          2.717804   1.000000
      6          2.717804   1.000000
      7          2.717805   1.000000
      8          2.717805   1.000000
      9          2.811938   1.000000
     10          2.811938   1.000000
     11          2.811943   1.000000
     12          2.811943   1.000000
     13          3.188868   1.000000
     14          3.188868   1.000000
     15          3.188870   1.000000
     16          3.188870   1.000000
     17          3.845680   1.000000
     18          3.845680   1.000000
     19          3.845682   1.000000
     20          3.845682   1.000000
     21          4.005654   1.000000
     22          4.005654   1.000000
     23          4.005656   1.000000
     24          4.005656   1.000000
     25          5.337729   1.000000
     26          5.337729   1.000000
     27          5.337731   1.000000
     28          5.337731   1.000000
     29          5.476075   1.000000
     30          5.476075   1.000000
     31          5.476077   1.000000
     32          5.476077   1.000000
     33          5.482476   1.000000
     34          5.482476   1.000000
     35          5.482479   1.000000
     36          5.482479   1.000000
     37          6.212802   1.000000
     38          6.212802   1.000000
     39          6.212804   1.000000
     40          6.212804   1.000000
     41          6.846916   1.000000
     42          6.846916   1.000000
     43          6.846918   1.000000
     44          6.846918   1.000000
     45         12.780744   0.000000
     46         12.780744   0.000000
     47         12.780755   0.000000
     48         12.780755   0.000000
     49         13.865027   0.000000
     50         13.865027   0.000000
     51         13.865032   0.000000
     52         13.865032   0.000000
     53         15.024371   0.000000
     54         15.024371   0.000000
     55         15.024377   0.000000
     56         15.024377   0.000000
     57         17.528686   0.000000
     58         17.528686   0.000000
     59         17.528703   0.000000
     60         17.528703   0.000000
     61         21.497323   0.000000
     62         21.497323   0.000000
     63         21.497327   0.000000
     64         21.497327   0.000000
     65         23.373692   0.000000
     66         23.373692   0.000000
     67         23.373697   0.000000
     68         23.373697   0.000000
     69         24.145116   0.000000
     70         24.145116   0.000000
     71         24.145155   0.000000
     72         24.145155   0.000000
     73         24.854591   0.000000
     74         24.854591   0.000000
     75         24.854596   0.000000
     76         24.854596   0.000000
     77         25.386911   0.000000
     78         25.386911   0.000000
     79         25.386919   0.000000
     80         25.386919   0.000000
     81         30.510174   0.000000
     82         30.510174   0.000000
     83         30.510180   0.000000
     84         30.510180   0.000000
     85         30.593195   0.000000
     86         30.593195   0.000000
     87         30.593200   0.000000
     88         30.593200   0.000000
     89         31.893524   0.000000
     90         31.893524   0.000000
     91         31.893550   0.000000
     92         31.893550   0.000000
     93         33.651728   0.000000
     94         33.651794   0.000000
     95         33.652022   0.000000
     96         33.652145   0.000000
 
  0.8333333E-01  0.8333333E-01  0.0000000E+00  0.3472222E-02
      1         -0.613657   1.000000
      2         -0.613653   1.000000
      3          1.892981   1.000000
      4          1.892981   1.000000
      5          1.892981   1.000000
      6          1.892981   1.000000
      7          1.908402   1.000000
      8          1.908403   1.000000
      9          2.125619   1.000000
     10          2.125619   1.000000
     11          2.125624   1.000000
     12          2.125624   1.000000
     13          2.144595   1.000000
     14          2.144600   1.000000
     15          3.415128   1.000000
     16          3.415131   1.000000
     17          3.450543   1.000000
     18          3.450547   1.000000
     19          4.648319   1.000000
     20          4.648321   1.000000
     21          5.637281   1.000000
     22          5.637283   1.000000
     23          5.702583   1.000000
     24          5.702586   1.000000
     25          6.041620   1.000000
     26          6.041622   1.000000
     27          6.062004   1.000000
     28          6.062004   1.000000
     29          6.062006   1.000000
     30          6.062006   1.000000
     31          6.235646   1.000000
     32          6.235647   1.000000
     33          6.278238   1.000000
     34          6.278238   1.000000
     35          6.278240   1.000000
     36          6.278240   1.000000
     37          7.182906   1.000000
     38          7.182907   1.000000
     39          7.205010   1.000000
     40          7.205010   1.000000
     41          7.205012   1.000000
     42          7.205012   1.000000
     43          9.245545   0.000000
     44          9.245545   0.000000
     45          9.245553   0.000000
     46          9.245553   0.000000
     47         10.050023   0.000000
     48         10.050031   0.000000
     49         13.556297   0.000000
     50         13.556304   0.000000
     51         14.284137   0.000000
     52         14.284137   0.000000
     53         14.284144   0.000000
     54         14.284144   0.000000
     55         17.317667   0.000000
     56         17.317673   0.000000
     57         17.703379   0.000000
     58         17.703379   0.000000
     59         17.703386   0.000000
     60         17.703386   0.000000
     61         18.836437   0.000000
     62         18.836449   0.000000
     63         18.923900   0.000000
     64         18.923900   0.000000
     65         18.923906   0.000000
     66         18.923906   0.000000
     67         23.185374   0.000000
     68         23.185384   0.000000
     69         25.250805   0.000000
     70         25.250805   0.000000
     71         25.250851   0.000000
     72         25.250851   0.000000
     73         25.312756   0.000000
     74         25.312764   0.000000
     75         25.471803   0.000000
     76         25.471846   0.000000
     77         26.473205   0.000000
     78         26.473208   0.000000
     79         27.104081   0.000000
     80         27.104087   0.000000
     81         27.416034   0.000000
     82         27.416034   0.000000
     83         27.416037   0.000000
     84         27.416037   0.000000
     85         27.652975   0.000000
     86         27.652978   0.000000
     87         31.888988   0.000000
     88         31.889045   0.000000
     89         33.254227   0.000000
     90         33.254248   0.000000
     91         34.357715   0.000000
     92         34.357717   0.000000
     93         35.191725   0.000000
     94         35.223093   0.000000
     95         35.223508   0.000000
     96         35.226304   0.000000
 
 -0.8333333E-01  0.8333333E-01  0.0000000E+00  0.3472222E-02
      1         -0.613657   1.000000
      2         -0.613653   1.000000
      3          1.892981   1.000000
      4          1.892981   1.000000
      5          1.892981   1.000000
      6          1.892981   1.000000
      7          1.908402   1.000000
      8          1.908403   1.000000
      9          2.125619   1.000000
     10          2.125619   1.000000
     11          2.125624   1.000000
     12          2.125624   1.000000
     13          2.144595   1.000000
     14          2.144600   1.000000
     15          3.415127   1.000000
     16          3.415131   1.000000
     17          3.450544   1.000000
     18          3.450546   1.000000
     19          4.648319   1.000000
     20          4.648321   1.000000
     21          5.637281   1.000000
     22          5.637283   1.000000