       N       E                     dE             d eps       ncg     rms          rms(c)
DAV:   1    -0.140350071751E+02   -0.14035E+02   -0.21825E-06 48000   0.661E-03    0.153E-03
DAV:   2    -0.140350072548E+02   -0.79689E-07   -0.19391E-07 50496   0.181E-03
   1 F= -.14035007E+02 E0= -.14034303E+02  d E =-.140825E-02  mag=     0.0000     0.0000     0.0000
       N       E                     dE             ncg
DAV:   1     0.530153952421E+05   -0.54941E+05    29760
DAV:   2     0.310878243043E+05   -0.21928E+05    38016
DAV:   3     0.308527481405E+05   -0.23508E+03    36480
DAV:   4     0.308515527589E+05   -0.11954E+01    40032
DAV:   5     0.308515392242E+05   -0.13535E-01    35136
DAV:   6     0.308515390701E+05   -0.15412E-03    32640
DAV:   7     0.308515390515E+05   -0.18564E-04    26688
