 vasp.6.4.3 19Mar24 (build Jun 26 2024 13:02:28) complex                        
  
 executed on             LinuxIFC date 2025.08.08  19:53:43
 running   48 mpi-ranks, on    4 nodes
 distrk:  each k-point on   48 cores,    1 groups
 distr:  one band on NCORE=   1 cores,   48 groups


--------------------------------------------------------------------------------------------------------


 INCAR:
   ENCUT = 298.9259
   IBRION = -1
   ISMEAR = 0
   ISYM = 2
   LCHARG = True
   LSORBIT = True
   LWAVE = True
   SAXIS = 0 0 1
   SIGMA = 0.05
   SYSTEM = Au

 POTCAR:  PAW_PBE Au 04Oct2007                    
 -----------------------------------------------------------------------------
|                                                                             |
|           W    W    AA    RRRRR   N    N  II  N    N   GGGG   !!!           |
|           W    W   A  A   R    R  NN   N  II  NN   N  G    G  !!!           |
|           W    W  A    A  R    R  N N  N  II  N N  N  G       !!!           |
|           W WW W  AAAAAA  RRRRR   N  N N  II  N  N N  G  GGG   !            |
|           WW  WW  A    A  R   R   N   NN  II  N   NN  G    G                |
|           W    W  A    A  R    R  N    N  II  N    N   GGGG   !!!           |
|                                                                             |
|     You use a magnetic or noncollinear calculation, but did not specify     |
|     the initial magnetic moment with the MAGMOM tag. Note that a            |
|     default of 1 will be used for all atoms. This ferromagnetic setup       |
|     may break the symmetry of the crystal, in particular it may rule        |
|     out finding an antiferromagnetic solution. Thence, we recommend         |
|     setting the initial magnetic moment manually or verifying carefully     |
|     that this magnetic setup is desired.                                    |
|                                                                             |
 -----------------------------------------------------------------------------

 -----------------------------------------------------------------------------
|                                                                             |
|           W    W    AA    RRRRR   N    N  II  N    N   GGGG   !!!           |
|           W    W   A  A   R    R  NN   N  II  NN   N  G    G  !!!           |
|           W    W  A    A  R    R  N N  N  II  N N  N  G       !!!           |
|           W WW W  AAAAAA  RRRRR   N  N N  II  N  N N  G  GGG   !            |
|           WW  WW  A    A  R   R   N   NN  II  N   NN  G    G                |
|           W    W  A    A  R    R  N    N  II  N    N   GGGG   !!!           |
|                                                                             |
|     For optimal performance we recommend to set                             |
|       NCORE = 2 up to number-of-cores-per-socket                            |
|     NCORE specifies how many cores store one orbital (NPAR=cpu/NCORE).      |
|     This setting can greatly improve the performance of VASP for DFT.       |
|     The default, NCORE=1 might be grossly inefficient on modern             |
|     multi-core architectures or massively parallel machines. Do your        |
|     own testing! More info at https://www.vasp.at/wiki/index.php/NCORE      |
|     Unfortunately you need to use the default for GW and RPA                |
|     calculations (for HF NCORE is supported but not extensively tested      |
|     yet).                                                                   |
|                                                                             |
 -----------------------------------------------------------------------------

 POTCAR:  PAW_PBE Au 04Oct2007                    
   VRHFIN =Au: s1d10                                                                                
   LEXCH  = PE                                                                                      
   EATOM  =   926.0867 eV,   68.0654 Ry                                                             
                                                                                                    
   TITEL  = PAW_PBE Au 04Oct2007                                                                    
   LULTRA =        F    use ultrasoft PP ?                                                          
   IUNSCR =        1    unscreen: 0-lin 1-nonlin 2-no                                               
   RPACOR =    2.330    partial core radius                                                         
   POMASS =  196.966; ZVAL   =   11.000    mass and valenz                                          
   RCORE  =    2.500    outmost cutoff radius                                                       
   RWIGS  =    2.840; RWIGS  =    1.503    wigner-seitz radius (au A)                               
   ENMAX  =  229.943; ENMIN  =  172.457 eV                                                          
   ICORE  =        3    local potential                                                             
   LCOR   =        T    correct aug charges                                                         
   LPAW   =        T    paw PP                                                                      
   EAUG   =  356.670                                                                                
   DEXC   =    0.000                                                                                
   RMAX   =    2.562    core radius for proj-oper                                                   
   RAUG   =    1.300    factor for augmentation sphere                                              
   RDEP   =    2.598    radius for radial grids                                                     
   RDEPT  =    2.193    core radius for aug-charge                                                  
                                                                                                    
   Atomic configuration                                                                             
   16 entries                                                                                       
     n  l   j            E        occ.                                                              
     1  0  0.50    -80748.5001   2.0000                                                             
     2  0  0.50    -14244.7466   2.0000                                                             
     2  1  1.50    -12310.9591   6.0000                                                             
     3  0  0.50     -3362.1768   2.0000                                                             
     3  1  1.50     -2801.5463   6.0000                                                             
     3  2  2.50     -2203.8206  10.0000                                                             
     4  0  0.50      -729.8168   2.0000                                                             
     4  1  1.50      -546.0527   6.0000                                                             
     4  2  2.50      -325.7302  10.0000                                                             
     4  3  3.50       -81.1472  14.0000                                                             
     5  0  0.50      -108.3201   2.0000                                                             
     5  1  1.50       -59.7479   6.0000                                                             
     5  2  2.50        -6.8783  10.0000                                                             
     6  0  0.50        -5.7602   1.0000                                                             
     6  1  1.50        -6.8029   0.0000                                                             
     5  3  2.50        -1.3606   0.0000                                                             
   Description                                                                                      
     l       E           TYP  RCUT    TYP  RCUT                                                     
     2     -6.8782861     23  2.500                                                                 
     2     -8.2388687     23  2.500                                                                 
     0     -5.7601759     23  2.500                                                                 
     0     -0.8493231     23  2.500                                                                 
     1     -2.7211652     23  2.500                                                                 
     1     27.2116520     23  2.500                                                                 
     3     -1.3605826     23  2.500                                                                 
  local pseudopotential read in
  partial core-charges read in
  partial kinetic energy density read in
  atomic valenz-charges read in
  non local Contribution for L=           2  read in
    real space projection operators read in
  non local Contribution for L=           2  read in
    real space projection operators read in
  non local Contribution for L=           0  read in
    real space projection operators read in
  non local Contribution for L=           0  read in
    real space projection operators read in
  non local Contribution for L=           1  read in
    real space projection operators read in
  non local Contribution for L=           1  read in
    real space projection operators read in
    PAW grid and wavefunctions read in
 
   number of l-projection  operators is LMAX  =           6
   number of lm-projection operators is LMMAX =          18
 
PAW_PBE Au 04Oct2007                    :
 energy of atom  1       EATOM= -926.0867
 kinetic energy error for atom=    0.0461 (will be added to EATOM!!)
 
 
 POSCAR: Au4
  positions in direct lattice
  No initial velocities read in


 exchange-correlation table for PE
   RHO(1)=    0.500       N(1)  =     2000
   RHO(2)=  100.500       N(2)  =     4000
 


--------------------------------------------------------------------------------------------------------


 ion  position               nearest neighbor table
   1  0.000  0.000  0.000-   4 2.95   4 2.95   2 2.95   3 2.95   2 2.95   2 2.95   2 2.95   3 2.95
                             3 2.95   3 2.95   4 2.95   4 2.95
   2  0.000  0.500  0.500-   3 2.95   3 2.95   1 2.95   4 2.95   1 2.95   1 2.95   1 2.95   4 2.95
                             4 2.95   4 2.95   3 2.95   3 2.95
   3  0.500  0.000  0.500-   2 2.95   2 2.95   1 2.95   4 2.95   1 2.95   4 2.95   4 2.95   1 2.95
                             4 2.95   1 2.95   2 2.95   2 2.95
   4  0.500  0.500  0.000-   1 2.95   1 2.95   2 2.95   3 2.95   2 2.95   3 2.95   3 2.95   3 2.95
                             2 2.95   2 2.95   1 2.95   1 2.95
 
  LATTYP: Found a simple cubic cell.
 ALAT       =     4.1741000000
  
  Lattice vectors:
  
 A1 = (   4.1741000000,   0.0000000000,   0.0000000000)
 A2 = (   0.0000000000,   4.1741000000,   0.0000000000)
 A3 = (   0.0000000000,   0.0000000000,   4.1741000000)


Analysis of symmetry for initial positions (statically):
=====================================================================
 Subroutine PRICEL returns following result:
 
  LATTYP: Found a face centered cubic cell.
 ALAT       =     4.1741000000
  
  Lattice vectors:
  
 A1 = (   2.0870500000,  -2.0870500000,   0.0000000000)
 A2 = (   2.0870500000,   0.0000000000,   2.0870500000)
 A3 = (   0.0000000000,  -2.0870500000,   2.0870500000)
 
   4 primitive cells build up your supercell.
 

 Routine SETGRP: Setting up the symmetry group for a 
 simple cubic supercell.


 Subroutine GETGRP returns: Found 48 space group operations
 (whereof 48 operations were pure point group operations)
 out of a pool of 48 trial point group operations.


The static configuration has the point symmetry O_h .


Analysis of symmetry for dynamics (positions and initial velocities):
=====================================================================
 Subroutine PRICEL returns following result:
 
  LATTYP: Found a face centered cubic cell.
 ALAT       =     4.1741000000
  
  Lattice vectors:
  
 A1 = (   2.0870500000,  -2.0870500000,   0.0000000000)
 A2 = (   2.0870500000,   0.0000000000,   2.0870500000)
 A3 = (   0.0000000000,  -2.0870500000,   2.0870500000)
 
   4 primitive cells build up your supercell.
 

 Routine SETGRP: Setting up the symmetry group for a 
 simple cubic supercell.


 Subroutine GETGRP returns: Found 48 space group operations
 (whereof 48 operations were pure point group operations)
 out of a pool of 48 trial point group operations.


The dynamic configuration has the point symmetry O_h .


Analysis of structural, dynamic, and magnetic symmetry:
=====================================================================
 Subroutine PRICEL returns following result:
 
  LATTYP: Found a face centered cubic cell.
 ALAT       =     4.1741000000
  
  Lattice vectors:
  
 A1 = (   2.0870500000,  -2.0870500000,   0.0000000000)
 A2 = (   2.0870500000,   0.0000000000,   2.0870500000)
 A3 = (   0.0000000000,  -2.0870500000,   2.0870500000)
 
   4 primitive cells build up your supercell.
 

 Routine SETGRP: Setting up the symmetry group for a 
 simple cubic supercell.


 Subroutine GETGRP returns: Found  6 space group operations
 (whereof  6 operations were pure point group operations)
 out of a pool of 48 trial point group operations.


The overall configuration has the point symmetry S_6 .


 Subroutine INISYM returns: Found  6 space group operations
 (whereof  6 operations are pure point group operations),
 and found     4 'primitive' translations


----------------------------------------------------------------------------------------

                                     Primitive cell                                     

  volume of cell :      18.1815

  direct lattice vectors                    reciprocal lattice vectors
     2.087050000 -2.087050000  0.000000000     0.239572602 -0.239572602 -0.239572602
     2.087050000  0.000000000  2.087050000     0.239572602  0.239572602  0.239572602
     0.000000000 -2.087050000  2.087050000    -0.239572602 -0.239572602  0.239572602

  length of vectors
     2.951534415  2.951534415  2.951534415     0.414951920  0.414951920  0.414951920

  position of ions in fractional coordinates (direct lattice)
     0.000000000  0.000000000  0.000000000

  ion indices of the primitive-cell ions
   primitive index   ion index
                 1           1

----------------------------------------------------------------------------------------

 
 
 KPOINTS: Automatic kpoint scheme                 

Automatic generation of k-mesh.
 Grid dimensions read from file:
 generate k-points for:   12   12   12

 Generating k-lattice:

  Cartesian coordinates                     Fractional coordinates (reciprocal lattice)
     0.019964384 -0.000000000  0.000000000     0.083333333 -0.000000000  0.000000000
     0.000000000  0.019964384  0.000000000     0.000000000  0.083333333  0.000000000
    -0.000000000 -0.000000000  0.019964384    -0.000000000 -0.000000000  0.083333333

  Length of vectors
     0.019964384  0.019964384  0.019964384

  Shift w.r.t. Gamma in fractional coordinates (k-lattice)
     0.000000000  0.000000000  0.000000000

 
 Subroutine IBZKPT returns following result:
 ===========================================
 
 Found    294 irreducible k-points:
 
 Following reciprocal coordinates:
            Coordinates               Weight
  0.000000  0.000000  0.000000      1.000000
  0.083333  0.000000  0.000000      6.000000
  0.166667  0.000000  0.000000      6.000000
  0.250000  0.000000  0.000000      6.000000
  0.333333 -0.000000  0.000000      6.000000
  0.416667  0.000000  0.000000      6.000000
  0.500000  0.000000  0.000000      3.000000
  0.083333  0.083333  0.000000      6.000000
 -0.083333  0.083333  0.000000      6.000000
  0.166667  0.083333  0.000000      6.000000
 -0.083333  0.166667  0.000000      6.000000
  0.000000  0.083333  0.166667      6.000000
 -0.000000 -0.166667  0.083333      6.000000
  0.250000  0.083333  0.000000      6.000000
 -0.083333  0.250000  0.000000      6.000000
  0.000000  0.083333  0.250000      6.000000
 -0.000000 -0.250000  0.083333      6.000000
  0.333333  0.083333  0.000000      6.000000
 -0.083333  0.333333  0.000000      6.000000
 -0.000000  0.083333  0.333333      6.000000
 -0.000000 -0.333333  0.083333      6.000000
  0.416667  0.083333  0.000000      6.000000
 -0.083333  0.416667  0.000000      6.000000
 -0.000000  0.083333  0.416667      6.000000
 -0.000000 -0.416667  0.083333      6.000000
  0.500000  0.083333  0.000000      6.000000
 -0.083333  0.500000  0.000000      6.000000
  0.166667  0.166667  0.000000      6.000000
 -0.166667  0.166667  0.000000      6.000000
  0.250000  0.166667  0.000000      6.000000
 -0.166667  0.250000  0.000000      6.000000
  0.000000  0.166667  0.250000      6.000000
  0.000000 -0.250000  0.166667      6.000000
  0.333333  0.166667  0.000000      6.000000
 -0.166667  0.333333  0.000000      6.000000
 -0.000000  0.166667  0.333333      6.000000
  0.000000 -0.333333  0.166667      6.000000
  0.416667  0.166667  0.000000      6.000000
 -0.166667  0.416667  0.000000      6.000000
 -0.000000  0.166667  0.416667      6.000000
  0.000000 -0.416667  0.166667      6.000000
  0.500000  0.166667  0.000000      6.000000
 -0.166667  0.500000  0.000000      6.000000
  0.250000  0.250000  0.000000      6.000000
 -0.250000  0.250000  0.000000      6.000000
  0.333333  0.250000  0.000000      6.000000
 -0.250000  0.333333  0.000000      6.000000
 -0.000000  0.250000  0.333333      6.000000
  0.000000 -0.333333  0.250000      6.000000
  0.416667  0.250000  0.000000      6.000000
 -0.250000  0.416667  0.000000      6.000000
 -0.000000  0.250000  0.416667      6.000000
  0.000000 -0.416667  0.250000      6.000000
  0.500000  0.250000  0.000000      6.000000
 -0.250000  0.500000  0.000000      6.000000
  0.333333  0.333333  0.000000      6.000000
 -0.333333  0.333333  0.000000      6.000000
  0.416667  0.333333  0.000000      6.000000
 -0.333333  0.416667  0.000000      6.000000
 -0.000000  0.333333  0.416667      6.000000
 -0.000000 -0.416667  0.333333      6.000000
  0.500000  0.333333  0.000000      6.000000
 -0.333333  0.500000  0.000000      6.000000
  0.416667  0.416667  0.000000      6.000000
 -0.416667  0.416667  0.000000      6.000000
  0.500000  0.416667  0.000000      6.000000
 -0.416667  0.500000  0.000000      6.000000
  0.500000  0.500000  0.000000      3.000000
  0.083333  0.083333  0.083333      2.000000
 -0.083333  0.083333  0.083333      6.000000
  0.166667  0.083333  0.083333      6.000000
 -0.083333  0.166667  0.083333      6.000000
 -0.166667  0.083333  0.083333      6.000000
 -0.083333  0.083333  0.166667      6.000000
  0.250000  0.083333  0.083333      6.000000
 -0.083333  0.250000  0.083333      6.000000
 -0.250000  0.083333  0.083333      6.000000
 -0.083333  0.083333  0.250000      6.000000
  0.333333  0.083333  0.083333      6.000000
 -0.083333  0.333333  0.083333      6.000000
 -0.333333  0.083333  0.083333      6.000000
 -0.083333  0.083333  0.333333      6.000000
  0.416667  0.083333  0.083333      6.000000
 -0.083333  0.416667  0.083333      6.000000
 -0.416667  0.083333  0.083333      6.000000
 -0.083333  0.083333  0.416667      6.000000
  0.500000  0.083333  0.083333      6.000000
 -0.083333  0.500000  0.083333      6.000000
  0.166667  0.166667  0.083333      6.000000
 -0.166667  0.166667  0.083333      6.000000
 -0.166667  0.083333  0.166667      6.000000
 -0.083333  0.166667  0.166667      6.000000
  0.250000  0.166667  0.083333      6.000000
 -0.166667  0.250000  0.083333      6.000000
 -0.250000  0.083333  0.166667      6.000000
 -0.083333  0.166667  0.250000      6.000000
 -0.250000 -0.166667  0.083333      6.000000
 -0.083333 -0.250000  0.166667      6.000000
 -0.166667 -0.083333  0.250000      6.000000
 -0.250000 -0.083333 -0.166667      6.000000
  0.333333  0.166667  0.083333      6.000000
 -0.166667  0.333333  0.083333      6.000000
 -0.333333  0.083333  0.166667      6.000000
 -0.083333  0.166667  0.333333      6.000000
 -0.333333 -0.166667  0.083333      6.000000
 -0.083333 -0.333333  0.166667      6.000000
 -0.166667 -0.083333  0.333333      6.000000
 -0.333333 -0.083333 -0.166667      6.000000
  0.416667  0.166667  0.083333      6.000000
 -0.166667  0.416667  0.083333      6.000000
 -0.416667  0.083333  0.166667      6.000000
 -0.083333  0.166667  0.416667      6.000000
 -0.416667 -0.166667  0.083333      6.000000
 -0.083333 -0.416667  0.166667      6.000000
 -0.166667 -0.083333  0.416667      6.000000
 -0.416667 -0.083333 -0.166667      6.000000
  0.500000  0.166667  0.083333      6.000000
 -0.166667  0.500000  0.083333      6.000000
  0.500000  0.083333  0.166667      6.000000
  0.500000 -0.166667  0.083333      6.000000
  0.250000  0.250000  0.083333      6.000000
 -0.250000  0.250000  0.083333      6.000000
 -0.250000  0.083333  0.250000      6.000000
 -0.083333  0.250000  0.250000      6.000000
  0.333333  0.250000  0.083333      6.000000
 -0.250000  0.333333  0.083333      6.000000
 -0.333333  0.083333  0.250000      6.000000
 -0.083333  0.250000  0.333333      6.000000
 -0.333333 -0.250000  0.083333      6.000000
 -0.083333 -0.333333  0.250000      6.000000
 -0.250000 -0.083333  0.333333      6.000000
 -0.333333 -0.083333 -0.250000      6.000000
  0.416667  0.250000  0.083333      6.000000
 -0.250000  0.416667  0.083333      6.000000
 -0.416667  0.083333  0.250000      6.000000
 -0.083333  0.250000  0.416667      6.000000
 -0.416667 -0.250000  0.083333      6.000000
 -0.083333 -0.416667  0.250000      6.000000
 -0.250000 -0.083333  0.416667      6.000000
 -0.416667 -0.083333 -0.250000      6.000000
  0.500000  0.250000  0.083333      6.000000
 -0.250000  0.500000  0.083333      6.000000
  0.500000  0.083333  0.250000      6.000000
  0.500000 -0.250000  0.083333      6.000000
  0.333333  0.333333  0.083333      6.000000
 -0.333333  0.333333  0.083333      6.000000
 -0.333333  0.083333  0.333333      6.000000
 -0.083333  0.333333  0.333333      6.000000
  0.416667  0.333333  0.083333      6.000000
 -0.333333  0.416667  0.083333      6.000000
 -0.416667  0.083333  0.333333      6.000000
 -0.083333  0.333333  0.416667      6.000000
 -0.416667 -0.333333  0.083333      6.000000
 -0.083333 -0.416667  0.333333      6.000000
 -0.333333 -0.083333  0.416667      6.000000
 -0.416667 -0.083333 -0.333333      6.000000
  0.500000  0.333333  0.083333      6.000000
 -0.333333  0.500000  0.083333      6.000000
  0.500000  0.083333  0.333333      6.000000
  0.500000 -0.333333  0.083333      6.000000
  0.416667  0.416667  0.083333      6.000000
 -0.416667  0.416667  0.083333      6.000000
 -0.416667  0.083333  0.416667      6.000000
 -0.083333  0.416667  0.416667      6.000000
  0.500000  0.416667  0.083333      6.000000
 -0.416667  0.500000  0.083333      6.000000
  0.500000  0.083333  0.416667      6.000000
  0.500000 -0.416667  0.083333      6.000000
  0.500000  0.500000  0.083333      6.000000
  0.166667  0.166667  0.166667      2.000000
 -0.166667  0.166667  0.166667      6.000000
  0.250000  0.166667  0.166667      6.000000
 -0.166667  0.250000  0.166667      6.000000
 -0.250000  0.166667  0.166667      6.000000
 -0.166667  0.166667  0.250000      6.000000
  0.333333  0.166667  0.166667      6.000000
 -0.166667  0.333333  0.166667      6.000000
 -0.333333  0.166667  0.166667      6.000000
 -0.166667  0.166667  0.333333      6.000000
  0.416667  0.166667  0.166667      6.000000
 -0.166667  0.416667  0.166667      6.000000
 -0.416667  0.166667  0.166667      6.000000
 -0.166667  0.166667  0.416667      6.000000
  0.500000  0.166667  0.166667      6.000000
 -0.166667  0.500000  0.166667      6.000000
  0.250000  0.250000  0.166667      6.000000
 -0.250000  0.250000  0.166667      6.000000
 -0.250000  0.166667  0.250000      6.000000
 -0.166667  0.250000  0.250000      6.000000
  0.333333  0.250000  0.166667      6.000000
 -0.250000  0.333333  0.166667      6.000000
 -0.333333  0.166667  0.250000      6.000000
 -0.166667  0.250000  0.333333      6.000000
 -0.333333 -0.250000  0.166667      6.000000
 -0.166667 -0.333333  0.250000      6.000000
 -0.250000 -0.166667  0.333333      6.000000
 -0.333333 -0.166667 -0.250000      6.000000
  0.416667  0.250000  0.166667      6.000000
 -0.250000  0.416667  0.166667      6.000000
 -0.416667  0.166667  0.250000      6.000000
 -0.166667  0.250000  0.416667      6.000000
 -0.416667 -0.250000  0.166667      6.000000
 -0.166667 -0.416667  0.250000      6.000000
 -0.250000 -0.166667  0.416667      6.000000
 -0.416667 -0.166667 -0.250000      6.000000
  0.500000  0.250000  0.166667      6.000000
 -0.250000  0.500000  0.166667      6.000000
  0.500000  0.166667  0.250000      6.000000
  0.500000 -0.250000  0.166667      6.000000
  0.333333  0.333333  0.166667      6.000000
 -0.333333  0.333333  0.166667      6.000000
 -0.333333  0.166667  0.333333      6.000000
 -0.166667  0.333333  0.333333      6.000000
  0.416667  0.333333  0.166667      6.000000
 -0.333333  0.416667  0.166667      6.000000
 -0.416667  0.166667  0.333333      6.000000
 -0.166667  0.333333  0.416667      6.000000
 -0.416667 -0.333333  0.166667      6.000000
 -0.166667 -0.416667  0.333333      6.000000
 -0.333333 -0.166667  0.416667      6.000000
 -0.416667 -0.166667 -0.333333      6.000000
  0.500000  0.333333  0.166667      6.000000
 -0.333333  0.500000  0.166667      6.000000
  0.500000  0.166667  0.333333      6.000000
  0.500000 -0.333333  0.166667      6.000000
  0.416667  0.416667  0.166667      6.000000
 -0.416667  0.416667  0.166667      6.000000
 -0.416667  0.166667  0.416667      6.000000
 -0.166667  0.416667  0.416667      6.000000
  0.500000  0.416667  0.166667      6.000000
 -0.416667  0.500000  0.166667      6.000000
  0.500000  0.166667  0.416667      6.000000
  0.500000 -0.416667  0.166667      6.000000
  0.500000  0.500000  0.166667      6.000000
  0.250000  0.250000  0.250000      2.000000
 -0.250000  0.250000  0.250000      6.000000
  0.333333  0.250000  0.250000      6.000000
 -0.250000  0.333333  0.250000      6.000000
 -0.333333  0.250000  0.250000      6.000000
 -0.250000  0.250000  0.333333      6.000000
  0.416667  0.250000  0.250000      6.000000
 -0.250000  0.416667  0.250000      6.000000
 -0.416667  0.250000  0.250000      6.000000
 -0.250000  0.250000  0.416667      6.000000
  0.500000  0.250000  0.250000      6.000000
 -0.250000  0.500000  0.250000      6.000000
  0.333333  0.333333  0.250000      6.000000
 -0.333333  0.333333  0.250000      6.000000
 -0.333333  0.250000  0.333333      6.000000
 -0.250000  0.333333  0.333333      6.000000
  0.416667  0.333333  0.250000      6.000000
 -0.333333  0.416667  0.250000      6.000000
 -0.416667  0.250000  0.333333      6.000000
 -0.250000  0.333333  0.416667      6.000000
 -0.416667 -0.333333  0.250000      6.000000
 -0.250000 -0.416667  0.333333      6.000000
 -0.333333 -0.250000  0.416667      6.000000
 -0.416667 -0.250000 -0.333333      6.000000
  0.500000  0.333333  0.250000      6.000000
 -0.333333  0.500000  0.250000      6.000000
  0.500000  0.250000  0.333333      6.000000
  0.500000 -0.333333  0.250000      6.000000
  0.416667  0.416667  0.250000      6.000000
 -0.416667  0.416667  0.250000      6.000000
 -0.416667  0.250000  0.416667      6.000000
 -0.250000  0.416667  0.416667      6.000000
  0.500000  0.416667  0.250000      6.000000
 -0.416667  0.500000  0.250000      6.000000
  0.500000  0.250000  0.416667      6.000000
  0.500000 -0.416667  0.250000      6.000000
  0.500000  0.500000  0.250000      6.000000
  0.333333  0.333333  0.333333      2.000000
 -0.333333  0.333333  0.333333      6.000000
  0.416667  0.333333  0.333333      6.000000
 -0.333333  0.416667  0.333333      6.000000
 -0.416667  0.333333  0.333333      6.000000
 -0.333333  0.333333  0.416667      6.000000
  0.500000  0.333333  0.333333      6.000000
 -0.333333  0.500000  0.333333      6.000000
  0.416667  0.416667  0.333333      6.000000
 -0.416667  0.416667  0.333333      6.000000
 -0.416667  0.333333  0.416667      6.000000
 -0.333333  0.416667  0.416667      6.000000
  0.500000  0.416667  0.333333      6.000000
 -0.416667  0.500000  0.333333      6.000000
  0.500000  0.333333  0.416667      6.000000
  0.500000 -0.416667  0.333333      6.000000
  0.500000  0.500000  0.333333      6.000000
  0.416667  0.416667  0.416667      2.000000
 -0.416667  0.416667  0.416667      6.000000
  0.500000  0.416667  0.416667      6.000000
 -0.416667  0.500000  0.416667      6.000000
  0.500000  0.500000  0.416667      6.000000
  0.500000  0.500000  0.500000      1.000000
 
 Following cartesian coordinates:
            Coordinates               Weight
  0.000000  0.000000  0.000000      1.000000
  0.019964 -0.000000  0.000000      6.000000
  0.039929 -0.000000  0.000000      6.000000
  0.059893 -0.000000  0.000000      6.000000
  0.079858 -0.000000  0.000000      6.000000
  0.099822 -0.000000  0.000000      6.000000
  0.119786 -0.000000  0.000000      3.000000
  0.019964  0.019964  0.000000      6.000000
 -0.019964  0.019964  0.000000      6.000000
  0.039929  0.019964  0.000000      6.000000
 -0.019964  0.039929  0.000000      6.000000
 -0.000000  0.019964  0.039929      6.000000
 -0.000000 -0.039929  0.019964      6.000000
  0.059893  0.019964  0.000000      6.000000
 -0.019964  0.059893  0.000000      6.000000
 -0.000000  0.019964  0.059893      6.000000
 -0.000000 -0.059893  0.019964      6.000000
  0.079858  0.019964  0.000000      6.000000
 -0.019964  0.079858  0.000000      6.000000
 -0.000000  0.019964  0.079858      6.000000
 -0.000000 -0.079858  0.019964      6.000000
  0.099822  0.019964  0.000000      6.000000
 -0.019964  0.099822  0.000000      6.000000
 -0.000000  0.019964  0.099822      6.000000
 -0.000000 -0.099822  0.019964      6.000000
  0.119786  0.019964  0.000000      6.000000
 -0.019964  0.119786  0.000000      6.000000
  0.039929  0.039929  0.000000      6.000000
 -0.039929  0.039929  0.000000      6.000000
  0.059893  0.039929  0.000000      6.000000
 -0.039929  0.059893  0.000000      6.000000
 -0.000000  0.039929  0.059893      6.000000
 -0.000000 -0.059893  0.039929      6.000000
  0.079858  0.039929  0.000000      6.000000
 -0.039929  0.079858  0.000000      6.000000
 -0.000000  0.039929  0.079858      6.000000
 -0.000000 -0.079858  0.039929      6.000000
  0.099822  0.039929  0.000000      6.000000
 -0.039929  0.099822  0.000000      6.000000
 -0.000000  0.039929  0.099822      6.000000
 -0.000000 -0.099822  0.039929      6.000000
  0.119786  0.039929  0.000000      6.000000
 -0.039929  0.119786  0.000000      6.000000
  0.059893  0.059893  0.000000      6.000000
 -0.059893  0.059893  0.000000      6.000000
  0.079858  0.059893  0.000000      6.000000
 -0.059893  0.079858  0.000000      6.000000
 -0.000000  0.059893  0.079858      6.000000
 -0.000000 -0.079858  0.059893      6.000000
  0.099822  0.059893  0.000000      6.000000
 -0.059893  0.099822  0.000000      6.000000
 -0.000000  0.059893  0.099822      6.000000
 -0.000000 -0.099822  0.059893      6.000000
  0.119786  0.059893  0.000000      6.000000
 -0.059893  0.119786  0.000000      6.000000
  0.079858  0.079858  0.000000      6.000000
 -0.079858  0.079858  0.000000      6.000000
  0.099822  0.079858  0.000000      6.000000
 -0.079858  0.099822  0.000000      6.000000
 -0.000000  0.079858  0.099822      6.000000
 -0.000000 -0.099822  0.079858      6.000000
  0.119786  0.079858  0.000000      6.000000
 -0.079858  0.119786  0.000000      6.000000
  0.099822  0.099822  0.000000      6.000000
 -0.099822  0.099822  0.000000      6.000000
  0.119786  0.099822  0.000000      6.000000
 -0.099822  0.119786  0.000000      6.000000
  0.119786  0.119786  0.000000      3.000000
  0.019964  0.019964  0.019964      2.000000
 -0.019964  0.019964  0.019964      6.000000
  0.039929  0.019964  0.019964      6.000000
 -0.019964  0.039929  0.019964      6.000000
 -0.039929  0.019964  0.019964      6.000000
 -0.019964  0.019964  0.039929      6.000000
  0.059893  0.019964  0.019964      6.000000
 -0.019964  0.059893  0.019964      6.000000
 -0.059893  0.019964  0.019964      6.000000
 -0.019964  0.019964  0.059893      6.000000
  0.079858  0.019964  0.019964      6.000000
 -0.019964  0.079858  0.019964      6.000000
 -0.079858  0.019964  0.019964      6.000000
 -0.019964  0.019964  0.079858      6.000000
  0.099822  0.019964  0.019964      6.000000
 -0.019964  0.099822  0.019964      6.000000
 -0.099822  0.019964  0.019964      6.000000
 -0.019964  0.019964  0.099822      6.000000
  0.119786  0.019964  0.019964      6.000000
 -0.019964  0.119786  0.019964      6.000000
  0.039929  0.039929  0.019964      6.000000
 -0.039929  0.039929  0.019964      6.000000
 -0.039929  0.019964  0.039929      6.000000
 -0.019964  0.039929  0.039929      6.000000
  0.059893  0.039929  0.019964      6.000000
 -0.039929  0.059893  0.019964      6.000000
 -0.059893  0.019964  0.039929      6.000000
 -0.019964  0.039929  0.059893      6.000000
 -0.059893 -0.039929  0.019964      6.000000
 -0.019964 -0.059893  0.039929      6.000000
 -0.039929 -0.019964  0.059893      6.000000
 -0.059893 -0.019964 -0.039929      6.000000
  0.079858  0.039929  0.019964      6.000000
 -0.039929  0.079858  0.019964      6.000000
 -0.079858  0.019964  0.039929      6.000000
 -0.019964  0.039929  0.079858      6.000000
 -0.079858 -0.039929  0.019964      6.000000
 -0.019964 -0.079858  0.039929      6.000000
 -0.039929 -0.019964  0.079858      6.000000
 -0.079858 -0.019964 -0.039929      6.000000
  0.099822  0.039929  0.019964      6.000000
 -0.039929  0.099822  0.019964      6.000000
 -0.099822  0.019964  0.039929      6.000000
 -0.019964  0.039929  0.099822      6.000000
 -0.099822 -0.039929  0.019964      6.000000
 -0.019964 -0.099822  0.039929      6.000000
 -0.039929 -0.019964  0.099822      6.000000
 -0.099822 -0.019964 -0.039929      6.000000
  0.119786  0.039929  0.019964      6.000000
 -0.039929  0.119786  0.019964      6.000000
  0.119786  0.019964  0.039929      6.000000
  0.119786 -0.039929  0.019964      6.000000
  0.059893  0.059893  0.019964      6.000000
 -0.059893  0.059893  0.019964      6.000000
 -0.059893  0.019964  0.059893      6.000000
 -0.019964  0.059893  0.059893      6.000000
  0.079858  0.059893  0.019964      6.000000
 -0.059893  0.079858  0.019964      6.000000
 -0.079858  0.019964  0.059893      6.000000
 -0.019964  0.059893  0.079858      6.000000
 -0.079858 -0.059893  0.019964      6.000000
 -0.019964 -0.079858  0.059893      6.000000
 -0.059893 -0.019964  0.079858      6.000000
 -0.079858 -0.019964 -0.059893      6.000000
  0.099822  0.059893  0.019964      6.000000
 -0.059893  0.099822  0.019964      6.000000
 -0.099822  0.019964  0.059893      6.000000
 -0.019964  0.059893  0.099822      6.000000
 -0.099822 -0.059893  0.019964      6.000000
 -0.019964 -0.099822  0.059893      6.000000
 -0.059893 -0.019964  0.099822      6.000000
 -0.099822 -0.019964 -0.059893      6.000000
  0.119786  0.059893  0.019964      6.000000
 -0.059893  0.119786  0.019964      6.000000
  0.119786  0.019964  0.059893      6.000000
  0.119786 -0.059893  0.019964      6.000000
  0.079858  0.079858  0.019964      6.000000
 -0.079858  0.079858  0.019964      6.000000
 -0.079858  0.019964  0.079858      6.000000
 -0.019964  0.079858  0.079858      6.000000
  0.099822  0.079858  0.019964      6.000000
 -0.079858  0.099822  0.019964      6.000000
 -0.099822  0.019964  0.079858      6.000000
 -0.019964  0.079858  0.099822      6.000000
 -0.099822 -0.079858  0.019964      6.000000
 -0.019964 -0.099822  0.079858      6.000000
 -0.079858 -0.019964  0.099822      6.000000
 -0.099822 -0.019964 -0.079858      6.000000
  0.119786  0.079858  0.019964      6.000000
 -0.079858  0.119786  0.019964      6.000000
  0.119786  0.019964  0.079858      6.000000
  0.119786 -0.079858  0.019964      6.000000
  0.099822  0.099822  0.019964      6.000000
 -0.099822  0.099822  0.019964      6.000000
 -0.099822  0.019964  0.099822      6.000000
 -0.019964  0.099822  0.099822      6.000000
  0.119786  0.099822  0.019964      6.000000
 -0.099822  0.119786  0.019964      6.000000
  0.119786  0.019964  0.099822      6.000000
  0.119786 -0.099822  0.019964      6.000000
  0.119786  0.119786  0.019964      6.000000
  0.039929  0.039929  0.039929      2.000000
 -0.039929  0.039929  0.039929      6.000000
  0.059893  0.039929  0.039929      6.000000
 -0.039929  0.059893  0.039929      6.000000
 -0.059893  0.039929  0.039929      6.000000
 -0.039929  0.039929  0.059893      6.000000
  0.079858  0.039929  0.039929      6.000000
 -0.039929  0.079858  0.039929      6.000000
 -0.079858  0.039929  0.039929      6.000000
 -0.039929  0.039929  0.079858      6.000000
  0.099822  0.039929  0.039929      6.000000
 -0.039929  0.099822  0.039929      6.000000
 -0.099822  0.039929  0.039929      6.000000
 -0.039929  0.039929  0.099822      6.000000
  0.119786  0.039929  0.039929      6.000000
 -0.039929  0.119786  0.039929      6.000000
  0.059893  0.059893  0.039929      6.000000
 -0.059893  0.059893  0.039929      6.000000
 -0.059893  0.039929  0.059893      6.000000
 -0.039929  0.059893  0.059893      6.000000
  0.079858  0.059893  0.039929      6.000000
 -0.059893  0.079858  0.039929      6.000000
 -0.079858  0.039929  0.059893      6.000000
 -0.039929  0.059893  0.079858      6.000000
 -0.079858 -0.059893  0.039929      6.000000
 -0.039929 -0.079858  0.059893      6.000000
 -0.059893 -0.039929  0.079858      6.000000
 -0.079858 -0.039929 -0.059893      6.000000
  0.099822  0.059893  0.039929      6.000000
 -0.059893  0.099822  0.039929      6.000000
 -0.099822  0.039929  0.059893      6.000000
 -0.039929  0.059893  0.099822      6.000000
 -0.099822 -0.059893  0.039929      6.000000
 -0.039929 -0.099822  0.059893      6.000000
 -0.059893 -0.039929  0.099822      6.000000
 -0.099822 -0.039929 -0.059893      6.000000
  0.119786  0.059893  0.039929      6.000000
 -0.059893  0.119786  0.039929      6.000000
  0.119786  0.039929  0.059893      6.000000
  0.119786 -0.059893  0.039929      6.000000
  0.079858  0.079858  0.039929      6.000000
 -0.079858  0.079858  0.039929      6.000000
 -0.079858  0.039929  0.079858      6.000000
 -0.039929  0.079858  0.079858      6.000000
  0.099822  0.079858  0.039929      6.000000
 -0.079858  0.099822  0.039929      6.000000
 -0.099822  0.039929  0.079858      6.000000
 -0.039929  0.079858  0.099822      6.000000
 -0.099822 -0.079858  0.039929      6.000000
 -0.039929 -0.099822  0.079858      6.000000
 -0.079858 -0.039929  0.099822      6.000000
 -0.099822 -0.039929 -0.079858      6.000000
  0.119786  0.079858  0.039929      6.000000
 -0.079858  0.119786  0.039929      6.000000
  0.119786  0.039929  0.079858      6.000000
  0.119786 -0.079858  0.039929      6.000000
  0.099822  0.099822  0.039929      6.000000
 -0.099822  0.099822  0.039929      6.000000
 -0.099822  0.039929  0.099822      6.000000
 -0.039929  0.099822  0.099822      6.000000
  0.119786  0.099822  0.039929      6.000000
 -0.099822  0.119786  0.039929      6.000000
  0.119786  0.039929  0.099822      6.000000
  0.119786 -0.099822  0.039929      6.000000
  0.119786  0.119786  0.039929      6.000000
  0.059893  0.059893  0.059893      2.000000
 -0.059893  0.059893  0.059893      6.000000
  0.079858  0.059893  0.059893      6.000000
 -0.059893  0.079858  0.059893      6.000000
 -0.079858  0.059893  0.059893      6.000000
 -0.059893  0.059893  0.079858      6.000000
  0.099822  0.059893  0.059893      6.000000
 -0.059893  0.099822  0.059893      6.000000
 -0.099822  0.059893  0.059893      6.000000
 -0.059893  0.059893  0.099822      6.000000
  0.119786  0.059893  0.059893      6.000000
 -0.059893  0.119786  0.059893      6.000000
  0.079858  0.079858  0.059893      6.000000
 -0.079858  0.079858  0.059893      6.000000
 -0.079858  0.059893  0.079858      6.000000
 -0.059893  0.079858  0.079858      6.000000
  0.099822  0.079858  0.059893      6.000000
 -0.079858  0.099822  0.059893      6.000000
 -0.099822  0.059893  0.079858      6.000000
 -0.059893  0.079858  0.099822      6.000000
 -0.099822 -0.079858  0.059893      6.000000
 -0.059893 -0.099822  0.079858      6.000000
 -0.079858 -0.059893  0.099822      6.000000
 -0.099822 -0.059893 -0.079858      6.000000
  0.119786  0.079858  0.059893      6.000000
 -0.079858  0.119786  0.059893      6.000000
  0.119786  0.059893  0.079858      6.000000
  0.119786 -0.079858  0.059893      6.000000
  0.099822  0.099822  0.059893      6.000000
 -0.099822  0.099822  0.059893      6.000000
 -0.099822  0.059893  0.099822      6.000000
 -0.059893  0.099822  0.099822      6.000000
  0.119786  0.099822  0.059893      6.000000
 -0.099822  0.119786  0.059893      6.000000
  0.119786  0.059893  0.099822      6.000000
  0.119786 -0.099822  0.059893      6.000000
  0.119786  0.119786  0.059893      6.000000
  0.079858  0.079858  0.079858      2.000000
 -0.079858  0.079858  0.079858      6.000000
  0.099822  0.079858  0.079858      6.000000
 -0.079858  0.099822  0.079858      6.000000
 -0.099822  0.079858  0.079858      6.000000
 -0.079858  0.079858  0.099822      6.000000
  0.119786  0.079858  0.079858      6.000000
 -0.079858  0.119786  0.079858      6.000000
  0.099822  0.099822  0.079858      6.000000
 -0.099822  0.099822  0.079858      6.000000
 -0.099822  0.079858  0.099822      6.000000
 -0.079858  0.099822  0.099822      6.000000
  0.119786  0.099822  0.079858      6.000000
 -0.099822  0.119786  0.079858      6.000000
  0.119786  0.079858  0.099822      6.000000
  0.119786 -0.099822  0.079858      6.000000
  0.119786  0.119786  0.079858      6.000000
  0.099822  0.099822  0.099822      2.000000
 -0.099822  0.099822  0.099822      6.000000
  0.119786  0.099822  0.099822      6.000000
 -0.099822  0.119786  0.099822      6.000000
  0.119786  0.119786  0.099822      6.000000
  0.119786  0.119786  0.119786      1.000000
 
 
 Subroutine IBZKPT_HF returns following result:
 ==============================================
 
 Found   1728 k-points in 1st BZ
 the following   1728 k-points will be used (e.g. in the exchange kernel)
 Following reciprocal coordinates:   # in IRBZ
  0.000000  0.000000  0.000000    0.00057870   1 t-inv F
  0.083333  0.000000  0.000000    0.00057870   2 t-inv F
  0.166667  0.000000  0.000000    0.00057870   3 t-inv F
  0.250000  0.000000  0.000000    0.00057870   4 t-inv F
  0.333333 -0.000000  0.000000    0.00057870   5 t-inv F
  0.416667  0.000000  0.000000    0.00057870   6 t-inv F
  0.500000  0.000000  0.000000    0.00057870   7 t-inv F
  0.083333  0.083333  0.000000    0.00057870   8 t-inv F
 -0.083333  0.083333  0.000000    0.00057870   9 t-inv F
  0.166667  0.083333  0.000000    0.00057870  10 t-inv F
 -0.083333  0.166667  0.000000    0.00057870  11 t-inv F
  0.000000  0.083333  0.166667    0.00057870  12 t-inv F
 -0.000000 -0.166667  0.083333    0.00057870  13 t-inv F
  0.250000  0.083333  0.000000    0.00057870  14 t-inv F
 -0.083333  0.250000  0.000000    0.00057870  15 t-inv F
  0.000000  0.083333  0.250000    0.00057870  16 t-inv F
 -0.000000 -0.250000  0.083333    0.00057870  17 t-inv F
  0.333333  0.083333  0.000000    0.00057870  18 t-inv F
 -0.083333  0.333333  0.000000    0.00057870  19 t-inv F
 -0.000000  0.083333  0.333333    0.00057870  20 t-inv F
 -0.000000 -0.333333  0.083333    0.00057870  21 t-inv F
  0.416667  0.083333  0.000000    0.00057870  22 t-inv F
 -0.083333  0.416667  0.000000    0.00057870  23 t-inv F
 -0.000000  0.083333  0.416667    0.00057870  24 t-inv F
 -0.000000 -0.416667  0.083333    0.00057870  25 t-inv F
  0.500000  0.083333  0.000000    0.00057870  26 t-inv F
 -0.083333  0.500000  0.000000    0.00057870  27 t-inv F
  0.166667  0.166667  0.000000    0.00057870  28 t-inv F
 -0.166667  0.166667  0.000000    0.00057870  29 t-inv F
  0.250000  0.166667  0.000000    0.00057870  30 t-inv F
 -0.166667  0.250000  0.000000    0.00057870  31 t-inv F
  0.000000  0.166667  0.250000    0.00057870  32 t-inv F
  0.000000 -0.250000  0.166667    0.00057870  33 t-inv F
  0.333333  0.166667  0.000000    0.00057870  34 t-inv F
 -0.166667  0.333333  0.000000    0.00057870  35 t-inv F
 -0.000000  0.166667  0.333333    0.00057870  36 t-inv F
  0.000000 -0.333333  0.166667    0.00057870  37 t-inv F
  0.416667  0.166667  0.000000    0.00057870  38 t-inv F
 -0.166667  0.416667  0.000000    0.00057870  39 t-inv F
 -0.000000  0.166667  0.416667    0.00057870  40 t-inv F
  0.000000 -0.416667  0.166667    0.00057870  41 t-inv F
  0.500000  0.166667  0.000000    0.00057870  42 t-inv F
 -0.166667  0.500000  0.000000    0.00057870  43 t-inv F
  0.250000  0.250000  0.000000    0.00057870  44 t-inv F
 -0.250000  0.250000  0.000000    0.00057870  45 t-inv F
  0.333333  0.250000  0.000000    0.00057870  46 t-inv F
 -0.250000  0.333333  0.000000    0.00057870  47 t-inv F
 -0.000000  0.250000  0.333333    0.00057870  48 t-inv F
  0.000000 -0.333333  0.250000    0.00057870  49 t-inv F
  0.416667  0.250000  0.000000    0.00057870  50 t-inv F
 -0.250000  0.416667  0.000000    0.00057870  51 t-inv F
 -0.000000  0.250000  0.416667    0.00057870  52 t-inv F
  0.000000 -0.416667  0.250000    0.00057870  53 t-inv F
  0.500000  0.250000  0.000000    0.00057870  54 t-inv F
 -0.250000  0.500000  0.000000    0.00057870  55 t-inv F
  0.333333  0.333333  0.000000    0.00057870  56 t-inv F
 -0.333333  0.333333  0.000000    0.00057870  57 t-inv F
  0.416667  0.333333  0.000000    0.00057870  58 t-inv F
 -0.333333  0.416667  0.000000    0.00057870  59 t-inv F
 -0.000000  0.333333  0.416667    0.00057870  60 t-inv F
 -0.000000 -0.416667  0.333333    0.00057870  61 t-inv F
  0.500000  0.333333  0.000000    0.00057870  62 t-inv F
 -0.333333  0.500000  0.000000    0.00057870  63 t-inv F
  0.416667  0.416667  0.000000    0.00057870  64 t-inv F
 -0.416667  0.416667  0.000000    0.00057870  65 t-inv F
  0.500000  0.416667  0.000000    0.00057870  66 t-inv F
 -0.416667  0.500000  0.000000    0.00057870  67 t-inv F
  0.500000  0.500000  0.000000    0.00057870  68 t-inv F
  0.083333  0.083333  0.083333    0.00057870  69 t-inv F
 -0.083333  0.083333  0.083333    0.00057870  70 t-inv F
  0.166667  0.083333  0.083333    0.00057870  71 t-inv F
 -0.083333  0.166667  0.083333    0.00057870  72 t-inv F
 -0.166667  0.083333  0.083333    0.00057870  73 t-inv F
 -0.083333  0.083333  0.166667    0.00057870  74 t-inv F
  0.250000  0.083333  0.083333    0.00057870  75 t-inv F
 -0.083333  0.250000  0.083333    0.00057870  76 t-inv F
 -0.250000  0.083333  0.083333    0.00057870  77 t-inv F
 -0.083333  0.083333  0.250000    0.00057870  78 t-inv F
  0.333333  0.083333  0.083333    0.00057870  79 t-inv F
 -0.083333  0.333333  0.083333    0.00057870  80 t-inv F
 -0.333333  0.083333  0.083333    0.00057870  81 t-inv F
 -0.083333  0.083333  0.333333    0.00057870  82 t-inv F
  0.416667  0.083333  0.083333    0.00057870  83 t-inv F
 -0.083333  0.416667  0.083333    0.00057870  84 t-inv F
 -0.416667  0.083333  0.083333    0.00057870  85 t-inv F
 -0.083333  0.083333  0.416667    0.00057870  86 t-inv F
  0.500000  0.083333  0.083333    0.00057870  87 t-inv F
 -0.083333  0.500000  0.083333    0.00057870  88 t-inv F
  0.166667  0.166667  0.083333    0.00057870  89 t-inv F
 -0.166667  0.166667  0.083333    0.00057870  90 t-inv F
 -0.166667  0.083333  0.166667    0.00057870  91 t-inv F
 -0.083333  0.166667  0.166667    0.00057870  92 t-inv F
  0.250000  0.166667  0.083333    0.00057870  93 t-inv F
 -0.166667  0.250000  0.083333    0.00057870  94 t-inv F
 -0.250000  0.083333  0.166667    0.00057870  95 t-inv F
 -0.083333  0.166667  0.250000    0.00057870  96 t-inv F
 -0.250000 -0.166667  0.083333    0.00057870  97 t-inv F
 -0.083333 -0.250000  0.166667    0.00057870  98 t-inv F
 -0.166667 -0.083333  0.250000    0.00057870  99 t-inv F
 -0.250000 -0.083333 -0.166667    0.00057870 100 t-inv F
  0.333333  0.166667  0.083333    0.00057870 101 t-inv F
 -0.166667  0.333333  0.083333    0.00057870 102 t-inv F
 -0.333333  0.083333  0.166667    0.00057870 103 t-inv F
 -0.083333  0.166667  0.333333    0.00057870 104 t-inv F
 -0.333333 -0.166667  0.083333    0.00057870 105 t-inv F
 -0.083333 -0.333333  0.166667    0.00057870 106 t-inv F
 -0.166667 -0.083333  0.333333    0.00057870 107 t-inv F
 -0.333333 -0.083333 -0.166667    0.00057870 108 t-inv F
  0.416667  0.166667  0.083333    0.00057870 109 t-inv F
 -0.166667  0.416667  0.083333    0.00057870 110 t-inv F
 -0.416667  0.083333  0.166667    0.00057870 111 t-inv F
 -0.083333  0.166667  0.416667    0.00057870 112 t-inv F
 -0.416667 -0.166667  0.083333    0.00057870 113 t-inv F
 -0.083333 -0.416667  0.166667    0.00057870 114 t-inv F
 -0.166667 -0.083333  0.416667    0.00057870 115 t-inv F
 -0.416667 -0.083333 -0.166667    0.00057870 116 t-inv F
  0.500000  0.166667  0.083333    0.00057870 117 t-inv F
 -0.166667  0.500000  0.083333    0.00057870 118 t-inv F
  0.500000  0.083333  0.166667    0.00057870 119 t-inv F
  0.500000 -0.166667  0.083333    0.00057870 120 t-inv F
  0.250000  0.250000  0.083333    0.00057870 121 t-inv F
 -0.250000  0.250000  0.083333    0.00057870 122 t-inv F
 -0.250000  0.083333  0.250000    0.00057870 123 t-inv F
 -0.083333  0.250000  0.250000    0.00057870 124 t-inv F
  0.333333  0.250000  0.083333    0.00057870 125 t-inv F
 -0.250000  0.333333  0.083333    0.00057870 126 t-inv F
 -0.333333  0.083333  0.250000    0.00057870 127 t-inv F
 -0.083333  0.250000  0.333333    0.00057870 128 t-inv F
 -0.333333 -0.250000  0.083333    0.00057870 129 t-inv F
 -0.083333 -0.333333  0.250000    0.00057870 130 t-inv F
 -0.250000 -0.083333  0.333333    0.00057870 131 t-inv F
 -0.333333 -0.083333 -0.250000    0.00057870 132 t-inv F
  0.416667  0.250000  0.083333    0.00057870 133 t-inv F
 -0.250000  0.416667  0.083333    0.00057870 134 t-inv F
 -0.416667  0.083333  0.250000    0.00057870 135 t-inv F
 -0.083333  0.250000  0.416667    0.00057870 136 t-inv F
 -0.416667 -0.250000  0.083333    0.00057870 137 t-inv F
 -0.083333 -0.416667  0.250000    0.00057870 138 t-inv F
 -0.250000 -0.083333  0.416667    0.00057870 139 t-inv F
 -0.416667 -0.083333 -0.250000    0.00057870 140 t-inv F
  0.500000  0.250000  0.083333    0.00057870 141 t-inv F
 -0.250000  0.500000  0.083333    0.00057870 142 t-inv F
  0.500000  0.083333  0.250000    0.00057870 143 t-inv F
  0.500000 -0.250000  0.083333    0.00057870 144 t-inv F
  0.333333  0.333333  0.083333    0.00057870 145 t-inv F
 -0.333333  0.333333  0.083333    0.00057870 146 t-inv F
 -0.333333  0.083333  0.333333    0.00057870 147 t-inv F
 -0.083333  0.333333  0.333333    0.00057870 148 t-inv F
  0.416667  0.333333  0.083333    0.00057870 149 t-inv F
 -0.333333  0.416667  0.083333    0.00057870 150 t-inv F
 -0.416667  0.083333  0.333333    0.00057870 151 t-inv F
 -0.083333  0.333333  0.416667    0.00057870 152 t-inv F
 -0.416667 -0.333333  0.083333    0.00057870 153 t-inv F
 -0.083333 -0.416667  0.333333    0.00057870 154 t-inv F
 -0.333333 -0.083333  0.416667    0.00057870 155 t-inv F
 -0.416667 -0.083333 -0.333333    0.00057870 156 t-inv F
  0.500000  0.333333  0.083333    0.00057870 157 t-inv F
 -0.333333  0.500000  0.083333    0.00057870 158 t-inv F
  0.500000  0.083333  0.333333    0.00057870 159 t-inv F
  0.500000 -0.333333  0.083333    0.00057870 160 t-inv F
  0.416667  0.416667  0.083333    0.00057870 161 t-inv F
 -0.416667  0.416667  0.083333    0.00057870 162 t-inv F
 -0.416667  0.083333  0.416667    0.00057870 163 t-inv F
 -0.083333  0.416667  0.416667    0.00057870 164 t-inv F
  0.500000  0.416667  0.083333    0.00057870 165 t-inv F
 -0.416667  0.500000  0.083333    0.00057870 166 t-inv F
  0.500000  0.083333  0.416667    0.00057870 167 t-inv F
  0.500000 -0.416667  0.083333    0.00057870 168 t-inv F
  0.500000  0.500000  0.083333    0.00057870 169 t-inv F
  0.166667  0.166667  0.166667    0.00057870 170 t-inv F
 -0.166667  0.166667  0.166667    0.00057870 171 t-inv F
  0.250000  0.166667  0.166667    0.00057870 172 t-inv F
 -0.166667  0.250000  0.166667    0.00057870 173 t-inv F
 -0.250000  0.166667  0.166667    0.00057870 174 t-inv F
 -0.166667  0.166667  0.250000    0.00057870 175 t-inv F
  0.333333  0.166667  0.166667    0.00057870 176 t-inv F
 -0.166667  0.333333  0.166667    0.00057870 177 t-inv F
 -0.333333  0.166667  0.166667    0.00057870 178 t-inv F
 -0.166667  0.166667  0.333333    0.00057870 179 t-inv F
  0.416667  0.166667  0.166667    0.00057870 180 t-inv F
 -0.166667  0.416667  0.166667    0.00057870 181 t-inv F
 -0.416667  0.166667  0.166667    0.00057870 182 t-inv F
 -0.166667  0.166667  0.416667    0.00057870 183 t-inv F
  0.500000  0.166667  0.166667    0.00057870 184 t-inv F
 -0.166667  0.500000  0.166667    0.00057870 185 t-inv F
  0.250000  0.250000  0.166667    0.00057870 186 t-inv F
 -0.250000  0.250000  0.166667    0.00057870 187 t-inv F
 -0.250000  0.166667  0.250000    0.00057870 188 t-inv F
 -0.166667  0.250000  0.250000    0.00057870 189 t-inv F
  0.333333  0.250000  0.166667    0.00057870 190 t-inv F
 -0.250000  0.333333  0.166667    0.00057870 191 t-inv F
 -0.333333  0.166667  0.250000    0.00057870 192 t-inv F
 -0.166667  0.250000  0.333333    0.00057870 193 t-inv F
 -0.333333 -0.250000  0.166667    0.00057870 194 t-inv F
 -0.166667 -0.333333  0.250000    0.00057870 195 t-inv F
 -0.250000 -0.166667  0.333333    0.00057870 196 t-inv F
 -0.333333 -0.166667 -0.250000    0.00057870 197 t-inv F
  0.416667  0.250000  0.166667    0.00057870 198 t-inv F
 -0.250000  0.416667  0.166667    0.00057870 199 t-inv F
 -0.416667  0.166667  0.250000    0.00057870 200 t-inv F
 -0.166667  0.250000  0.416667    0.00057870 201 t-inv F
 -0.416667 -0.250000  0.166667    0.00057870 202 t-inv F
 -0.166667 -0.416667  0.250000    0.00057870 203 t-inv F
 -0.250000 -0.166667  0.416667    0.00057870 204 t-inv F
 -0.416667 -0.166667 -0.250000    0.00057870 205 t-inv F
  0.500000  0.250000  0.166667    0.00057870 206 t-inv F
 -0.250000  0.500000  0.166667    0.00057870 207 t-inv F
  0.500000  0.166667  0.250000    0.00057870 208 t-inv F
  0.500000 -0.250000  0.166667    0.00057870 209 t-inv F
  0.333333  0.333333  0.166667    0.00057870 210 t-inv F
 -0.333333  0.333333  0.166667    0.00057870 211 t-inv F
 -0.333333  0.166667  0.333333    0.00057870 212 t-inv F
 -0.166667  0.333333  0.333333    0.00057870 213 t-inv F
  0.416667  0.333333  0.166667    0.00057870 214 t-inv F
 -0.333333  0.416667  0.166667    0.00057870 215 t-inv F
 -0.416667  0.166667  0.333333    0.00057870 216 t-inv F
 -0.166667  0.333333  0.416667    0.00057870 217 t-inv F
 -0.416667 -0.333333  0.166667    0.00057870 218 t-inv F
 -0.166667 -0.416667  0.333333    0.00057870 219 t-inv F
 -0.333333 -0.166667  0.416667    0.00057870 220 t-inv F
 -0.416667 -0.166667 -0.333333    0.00057870 221 t-inv F
  0.500000  0.333333  0.166667    0.00057870 222 t-inv F
 -0.333333  0.500000  0.166667    0.00057870 223 t-inv F
  0.500000  0.166667  0.333333    0.00057870 224 t-inv F
  0.500000 -0.333333  0.166667    0.00057870 225 t-inv F
  0.416667  0.416667  0.166667    0.00057870 226 t-inv F
 -0.416667  0.416667  0.166667    0.00057870 227 t-inv F
 -0.416667  0.166667  0.416667    0.00057870 228 t-inv F
 -0.166667  0.416667  0.416667    0.00057870 229 t-inv F
  0.500000  0.416667  0.166667    0.00057870 230 t-inv F
 -0.416667  0.500000  0.166667    0.00057870 231 t-inv F
  0.500000  0.166667  0.416667    0.00057870 232 t-inv F
  0.500000 -0.416667  0.166667    0.00057870 233 t-inv F
  0.500000  0.500000  0.166667    0.00057870 234 t-inv F
  0.250000  0.250000  0.250000    0.00057870 235 t-inv F
 -0.250000  0.250000  0.250000    0.00057870 236 t-inv F
  0.333333  0.250000  0.250000    0.00057870 237 t-inv F
 -0.250000  0.333333  0.250000    0.00057870 238 t-inv F
 -0.333333  0.250000  0.250000    0.00057870 239 t-inv F
 -0.250000  0.250000  0.333333    0.00057870 240 t-inv F
  0.416667  0.250000  0.250000    0.00057870 241 t-inv F
 -0.250000  0.416667  0.250000    0.00057870 242 t-inv F
 -0.416667  0.250000  0.250000    0.00057870 243 t-inv F
 -0.250000  0.250000  0.416667    0.00057870 244 t-inv F
  0.500000  0.250000  0.250000    0.00057870 245 t-inv F
 -0.250000  0.500000  0.250000    0.00057870 246 t-inv F
  0.333333  0.333333  0.250000    0.00057870 247 t-inv F
 -0.333333  0.333333  0.250000    0.00057870 248 t-inv F
 -0.333333  0.250000  0.333333    0.00057870 249 t-inv F
 -0.250000  0.333333  0.333333    0.00057870 250 t-inv F
  0.416667  0.333333  0.250000    0.00057870 251 t-inv F
 -0.333333  0.416667  0.250000    0.00057870 252 t-inv F
 -0.416667  0.250000  0.333333    0.00057870 253 t-inv F
 -0.250000  0.333333  0.416667    0.00057870 254 t-inv F
 -0.416667 -0.333333  0.250000    0.00057870 255 t-inv F
 -0.250000 -0.416667  0.333333    0.00057870 256 t-inv F
 -0.333333 -0.250000  0.416667    0.00057870 257 t-inv F
 -0.416667 -0.250000 -0.333333    0.00057870 258 t-inv F
  0.500000  0.333333  0.250000    0.00057870 259 t-inv F
 -0.333333  0.500000  0.250000    0.00057870 260 t-inv F
  0.500000  0.250000  0.333333    0.00057870 261 t-inv F
  0.500000 -0.333333  0.250000    0.00057870 262 t-inv F
  0.416667  0.416667  0.250000    0.00057870 263 t-inv F
 -0.416667  0.416667  0.250000    0.00057870 264 t-inv F
 -0.416667  0.250000  0.416667    0.00057870 265 t-inv F
 -0.250000  0.416667  0.416667    0.00057870 266 t-inv F
  0.500000  0.416667  0.250000    0.00057870 267 t-inv F
 -0.416667  0.500000  0.250000    0.00057870 268 t-inv F
  0.500000  0.250000  0.416667    0.00057870 269 t-inv F
  0.500000 -0.416667  0.250000    0.00057870 270 t-inv F
  0.500000  0.500000  0.250000    0.00057870 271 t-inv F
  0.333333  0.333333  0.333333    0.00057870 272 t-inv F
 -0.333333  0.333333  0.333333    0.00057870 273 t-inv F
  0.416667  0.333333  0.333333    0.00057870 274 t-inv F
 -0.333333  0.416667  0.333333    0.00057870 275 t-inv F
 -0.416667  0.333333  0.333333    0.00057870 276 t-inv F
 -0.333333  0.333333  0.416667    0.00057870 277 t-inv F
  0.500000  0.333333  0.333333    0.00057870 278 t-inv F
 -0.333333  0.500000  0.333333    0.00057870 279 t-inv F
  0.416667  0.416667  0.333333    0.00057870 280 t-inv F
 -0.416667  0.416667  0.333333    0.00057870 281 t-inv F
 -0.416667  0.333333  0.416667    0.00057870 282 t-inv F
 -0.333333  0.416667  0.416667    0.00057870 283 t-inv F
  0.500000  0.416667  0.333333    0.00057870 284 t-inv F
 -0.416667  0.500000  0.333333    0.00057870 285 t-inv F
  0.500000  0.333333  0.416667    0.00057870 286 t-inv F
  0.500000 -0.416667  0.333333    0.00057870 287 t-inv F
  0.500000  0.500000  0.333333    0.00057870 288 t-inv F
  0.416667  0.416667  0.416667    0.00057870 289 t-inv F
 -0.416667  0.416667  0.416667    0.00057870 290 t-inv F
  0.500000  0.416667  0.416667    0.00057870 291 t-inv F
 -0.416667  0.500000  0.416667    0.00057870 292 t-inv F
  0.500000  0.500000  0.416667    0.00057870 293 t-inv F
  0.500000  0.500000  0.500000    0.00057870 294 t-inv F
 -0.083333 -0.000000  0.000000    0.00057870   2 t-inv F
  0.000000  0.083333  0.000000    0.00057870   2 t-inv F
  0.000000 -0.083333 -0.000000    0.00057870   2 t-inv F
  0.000000  0.000000  0.083333    0.00057870   2 t-inv F
 -0.000000  0.000000 -0.083333    0.00057870   2 t-inv F
 -0.166667 -0.000000  0.000000    0.00057870   3 t-inv F
  0.000000  0.166667  0.000000    0.00057870   3 t-inv F
  0.000000 -0.166667 -0.000000    0.00057870   3 t-inv F
  0.000000  0.000000  0.166667    0.00057870   3 t-inv F
 -0.000000  0.000000 -0.166667    0.00057870   3 t-inv F
 -0.250000 -0.000000  0.000000    0.00057870   4 t-inv F
  0.000000  0.250000  0.000000    0.00057870   4 t-inv F
  0.000000 -0.250000 -0.000000    0.00057870   4 t-inv F
  0.000000  0.000000  0.250000    0.00057870   4 t-inv F
 -0.000000  0.000000 -0.250000    0.00057870   4 t-inv F
 -0.333333  0.000000  0.000000    0.00057870   5 t-inv F
  0.000000  0.333333 -0.000000    0.00057870   5 t-inv F
  0.000000 -0.333333  0.000000    0.00057870   5 t-inv F
 -0.000000  0.000000  0.333333    0.00057870   5 t-inv F
  0.000000  0.000000 -0.333333    0.00057870   5 t-inv F
 -0.416667 -0.000000  0.000000    0.00057870   6 t-inv F
  0.000000  0.416667  0.000000    0.00057870   6 t-inv F
  0.000000 -0.416667 -0.000000    0.00057870   6 t-inv F
  0.000000  0.000000  0.416667    0.00057870   6 t-inv F
 -0.000000  0.000000 -0.416667    0.00057870   6 t-inv F
  0.000000  0.500000  0.000000    0.00057870   7 t-inv F
  0.000000  0.000000  0.500000    0.00057870   7 t-inv F
 -0.083333 -0.083333  0.000000    0.00057870   8 t-inv F
  0.000000  0.083333  0.083333    0.00057870   8 t-inv F
  0.000000 -0.083333 -0.083333    0.00057870   8 t-inv F
  0.083333  0.000000  0.083333    0.00057870   8 t-inv F
 -0.083333  0.000000 -0.083333    0.00057870   8 t-inv F
  0.083333 -0.083333  0.000000    0.00057870   9 t-inv F
  0.000000 -0.083333  0.083333    0.00057870   9 t-inv F
  0.000000  0.083333 -0.083333    0.00057870   9 t-inv F
  0.083333  0.000000 -0.083333    0.00057870   9 t-inv F
 -0.083333  0.000000  0.083333    0.00057870   9 t-inv F
 -0.166667 -0.083333  0.000000    0.00057870  10 t-inv F
  0.000000  0.166667  0.083333    0.00057870  10 t-inv F
  0.000000 -0.166667 -0.083333    0.00057870  10 t-inv F
  0.083333  0.000000  0.166667    0.00057870  10 t-inv F
 -0.083333  0.000000 -0.166667    0.00057870  10 t-inv F
  0.083333 -0.166667  0.000000    0.00057870  11 t-inv F
  0.000000 -0.083333  0.166667    0.00057870  11 t-inv F
  0.000000  0.083333 -0.166667    0.00057870  11 t-inv F
  0.166667  0.000000 -0.083333    0.00057870  11 t-inv F
 -0.166667  0.000000  0.083333    0.00057870  11 t-inv F
 -0.000000 -0.083333 -0.166667    0.00057870  12 t-inv F
  0.166667  0.000000  0.083333    0.00057870  12 t-inv F
 -0.166667 -0.000000 -0.083333    0.00057870  12 t-inv F
  0.083333  0.166667  0.000000    0.00057870  12 t-inv F
 -0.083333 -0.166667 -0.000000    0.00057870  12 t-inv F
  0.000000  0.166667 -0.083333    0.00057870  13 t-inv F
  0.083333 -0.000000 -0.166667    0.00057870  13 t-inv F
 -0.083333  0.000000  0.166667    0.00057870  13 t-inv F
 -0.166667  0.083333 -0.000000    0.00057870  13 t-inv F
  0.166667 -0.083333  0.000000    0.00057870  13 t-inv F
 -0.250000 -0.083333  0.000000    0.00057870  14 t-inv F
  0.000000  0.250000  0.083333    0.00057870  14 t-inv F
  0.000000 -0.250000 -0.083333    0.00057870  14 t-inv F
  0.083333  0.000000  0.250000    0.00057870  14 t-inv F
 -0.083333  0.000000 -0.250000    0.00057870  14 t-inv F
  0.083333 -0.250000  0.000000    0.00057870  15 t-inv F
  0.000000 -0.083333  0.250000    0.00057870  15 t-inv F
  0.000000  0.083333 -0.250000    0.00057870  15 t-inv F
  0.250000  0.000000 -0.083333    0.00057870  15 t-inv F
 -0.250000  0.000000  0.083333    0.00057870  15 t-inv F
 -0.000000 -0.083333 -0.250000    0.00057870  16 t-inv F
  0.250000  0.000000  0.083333    0.00057870  16 t-inv F
 -0.250000 -0.000000 -0.083333    0.00057870  16 t-inv F
  0.083333  0.250000  0.000000    0.00057870  16 t-inv F
 -0.083333 -0.250000 -0.000000    0.00057870  16 t-inv F
  0.000000  0.250000 -0.083333    0.00057870  17 t-inv F
  0.083333 -0.000000 -0.250000    0.00057870  17 t-inv F
 -0.083333  0.000000  0.250000    0.00057870  17 t-inv F
 -0.250000  0.083333 -0.000000    0.00057870  17 t-inv F
  0.250000 -0.083333  0.000000    0.00057870  17 t-inv F
 -0.333333 -0.083333  0.000000    0.00057870  18 t-inv F
  0.000000  0.333333  0.083333    0.00057870  18 t-inv F
  0.000000 -0.333333 -0.083333    0.00057870  18 t-inv F
  0.083333  0.000000  0.333333    0.00057870  18 t-inv F
 -0.083333  0.000000 -0.333333    0.00057870  18 t-inv F
  0.083333 -0.333333  0.000000    0.00057870  19 t-inv F
  0.000000 -0.083333  0.333333    0.00057870  19 t-inv F
  0.000000  0.083333 -0.333333    0.00057870  19 t-inv F
  0.333333  0.000000 -0.083333    0.00057870  19 t-inv F
 -0.333333  0.000000  0.083333    0.00057870  19 t-inv F
  0.000000 -0.083333 -0.333333    0.00057870  20 t-inv F
  0.333333 -0.000000  0.083333    0.00057870  20 t-inv F
 -0.333333  0.000000 -0.083333    0.00057870  20 t-inv F
  0.083333  0.333333 -0.000000    0.00057870  20 t-inv F
 -0.083333 -0.333333  0.000000    0.00057870  20 t-inv F
  0.000000  0.333333 -0.083333    0.00057870  21 t-inv F
  0.083333 -0.000000 -0.333333    0.00057870  21 t-inv F
 -0.083333  0.000000  0.333333    0.00057870  21 t-inv F
 -0.333333  0.083333 -0.000000    0.00057870  21 t-inv F
  0.333333 -0.083333  0.000000    0.00057870  21 t-inv F
 -0.416667 -0.083333  0.000000    0.00057870  22 t-inv F
  0.000000  0.416667  0.083333    0.00057870  22 t-inv F
  0.000000 -0.416667 -0.083333    0.00057870  22 t-inv F
  0.083333  0.000000  0.416667    0.00057870  22 t-inv F
 -0.083333  0.000000 -0.416667    0.00057870  22 t-inv F
  0.083333 -0.416667  0.000000    0.00057870  23 t-inv F
  0.000000 -0.083333  0.416667    0.00057870  23 t-inv F
  0.000000  0.083333 -0.416667    0.00057870  23 t-inv F
  0.416667  0.000000 -0.083333    0.00057870  23 t-inv F
 -0.416667  0.000000  0.083333    0.00057870  23 t-inv F
  0.000000 -0.083333 -0.416667    0.00057870  24 t-inv F
  0.416667 -0.000000  0.083333    0.00057870  24 t-inv F
 -0.416667  0.000000 -0.083333    0.00057870  24 t-inv F
  0.083333  0.416667 -0.000000    0.00057870  24 t-inv F
 -0.083333 -0.416667  0.000000    0.00057870  24 t-inv F
  0.000000  0.416667 -0.083333    0.00057870  25 t-inv F
  0.083333 -0.000000 -0.416667    0.00057870  25 t-inv F
 -0.083333  0.000000  0.416667    0.00057870  25 t-inv F
 -0.416667  0.083333 -0.000000    0.00057870  25 t-inv F
  0.416667 -0.083333  0.000000    0.00057870  25 t-inv F
 -0.500000 -0.083333  0.000000    0.00057870  26 t-inv F
  0.000000  0.500000  0.083333    0.00057870  26 t-inv F
  0.000000 -0.500000 -0.083333    0.00057870  26 t-inv F
  0.083333  0.000000  0.500000    0.00057870  26 t-inv F
 -0.083333  0.000000 -0.500000    0.00057870  26 t-inv F
  0.083333 -0.500000  0.000000    0.00057870  27 t-inv F
  0.000000 -0.083333  0.500000    0.00057870  27 t-inv F
  0.000000  0.083333 -0.500000    0.00057870  27 t-inv F
  0.500000  0.000000 -0.083333    0.00057870  27 t-inv F
 -0.500000  0.000000  0.083333    0.00057870  27 t-inv F
 -0.166667 -0.166667  0.000000    0.00057870  28 t-inv F
  0.000000  0.166667  0.166667    0.00057870  28 t-inv F
  0.000000 -0.166667 -0.166667    0.00057870  28 t-inv F
  0.166667  0.000000  0.166667    0.00057870  28 t-inv F
 -0.166667  0.000000 -0.166667    0.00057870  28 t-inv F
  0.166667 -0.166667  0.000000    0.00057870  29 t-inv F
  0.000000 -0.166667  0.166667    0.00057870  29 t-inv F
  0.000000  0.166667 -0.166667    0.00057870  29 t-inv F
  0.166667  0.000000 -0.166667    0.00057870  29 t-inv F
 -0.166667  0.000000  0.166667    0.00057870  29 t-inv F
 -0.250000 -0.166667  0.000000    0.00057870  30 t-inv F
  0.000000  0.250000  0.166667    0.00057870  30 t-inv F
  0.000000 -0.250000 -0.166667    0.00057870  30 t-inv F
  0.166667  0.000000  0.250000    0.00057870  30 t-inv F
 -0.166667  0.000000 -0.250000    0.00057870  30 t-inv F
  0.166667 -0.250000  0.000000    0.00057870  31 t-inv F
  0.000000 -0.166667  0.250000    0.00057870  31 t-inv F
  0.000000  0.166667 -0.250000    0.00057870  31 t-inv F
  0.250000  0.000000 -0.166667    0.00057870  31 t-inv F
 -0.250000  0.000000  0.166667    0.00057870  31 t-inv F
 -0.000000 -0.166667 -0.250000    0.00057870  32 t-inv F
  0.250000  0.000000  0.166667    0.00057870  32 t-inv F
 -0.250000 -0.000000 -0.166667    0.00057870  32 t-inv F
  0.166667  0.250000  0.000000    0.00057870  32 t-inv F
 -0.166667 -0.250000 -0.000000    0.00057870  32 t-inv F
 -0.000000  0.250000 -0.166667    0.00057870  33 t-inv F
  0.166667  0.000000 -0.250000    0.00057870  33 t-inv F
 -0.166667 -0.000000  0.250000    0.00057870  33 t-inv F
 -0.250000  0.166667  0.000000    0.00057870  33 t-inv F
  0.250000 -0.166667 -0.000000    0.00057870  33 t-inv F
 -0.333333 -0.166667  0.000000    0.00057870  34 t-inv F
  0.000000  0.333333  0.166667    0.00057870  34 t-inv F
  0.000000 -0.333333 -0.166667    0.00057870  34 t-inv F
  0.166667  0.000000  0.333333    0.00057870  34 t-inv F
 -0.166667  0.000000 -0.333333    0.00057870  34 t-inv F
  0.166667 -0.333333  0.000000    0.00057870  35 t-inv F
  0.000000 -0.166667  0.333333    0.00057870  35 t-inv F
  0.000000  0.166667 -0.333333    0.00057870  35 t-inv F
  0.333333  0.000000 -0.166667    0.00057870  35 t-inv F
 -0.333333  0.000000  0.166667    0.00057870  35 t-inv F
  0.000000 -0.166667 -0.333333    0.00057870  36 t-inv F
  0.333333 -0.000000  0.166667    0.00057870  36 t-inv F
 -0.333333  0.000000 -0.166667    0.00057870  36 t-inv F
  0.166667  0.333333 -0.000000    0.00057870  36 t-inv F
 -0.166667 -0.333333  0.000000    0.00057870  36 t-inv F
 -0.000000  0.333333 -0.166667    0.00057870  37 t-inv F
  0.166667  0.000000 -0.333333    0.00057870  37 t-inv F
 -0.166667 -0.000000  0.333333    0.00057870  37 t-inv F
 -0.333333  0.166667  0.000000    0.00057870  37 t-inv F
  0.333333 -0.166667 -0.000000    0.00057870  37 t-inv F
 -0.416667 -0.166667  0.000000    0.00057870  38 t-inv F
  0.000000  0.416667  0.166667    0.00057870  38 t-inv F
  0.000000 -0.416667 -0.166667    0.00057870  38 t-inv F
  0.166667  0.000000  0.416667    0.00057870  38 t-inv F
 -0.166667  0.000000 -0.416667    0.00057870  38 t-inv F
  0.166667 -0.416667  0.000000    0.00057870  39 t-inv F
  0.000000 -0.166667  0.416667    0.00057870  39 t-inv F
  0.000000  0.166667 -0.416667    0.00057870  39 t-inv F
  0.416667  0.000000 -0.166667    0.00057870  39 t-inv F
 -0.416667  0.000000  0.166667    0.00057870  39 t-inv F
  0.000000 -0.166667 -0.416667    0.00057870  40 t-inv F
  0.416667 -0.000000  0.166667    0.00057870  40 t-inv F
 -0.416667  0.000000 -0.166667    0.00057870  40 t-inv F
  0.166667  0.416667 -0.000000    0.00057870  40 t-inv F
 -0.166667 -0.416667  0.000000    0.00057870  40 t-inv F
 -0.000000  0.416667 -0.166667    0.00057870  41 t-inv F
  0.166667  0.000000 -0.416667    0.00057870  41 t-inv F
 -0.166667 -0.000000  0.416667    0.00057870  41 t-inv F
 -0.416667  0.166667  0.000000    0.00057870  41 t-inv F
  0.416667 -0.166667 -0.000000    0.00057870  41 t-inv F
 -0.500000 -0.166667  0.000000    0.00057870  42 t-inv F
  0.000000  0.500000  0.166667    0.00057870  42 t-inv F
  0.000000 -0.500000 -0.166667    0.00057870  42 t-inv F
  0.166667  0.000000  0.500000    0.00057870  42 t-inv F
 -0.166667  0.000000 -0.500000    0.00057870  42 t-inv F
  0.166667 -0.500000  0.000000    0.00057870  43 t-inv F
  0.000000 -0.166667  0.500000    0.00057870  43 t-inv F
  0.000000  0.166667 -0.500000    0.00057870  43 t-inv F
  0.500000  0.000000 -0.166667    0.00057870  43 t-inv F
 -0.500000  0.000000  0.166667    0.00057870  43 t-inv F
 -0.250000 -0.250000  0.000000    0.00057870  44 t-inv F
  0.000000  0.250000  0.250000    0.00057870  44 t-inv F
  0.000000 -0.250000 -0.250000    0.00057870  44 t-inv F
  0.250000  0.000000  0.250000    0.00057870  44 t-inv F
 -0.250000  0.000000 -0.250000    0.00057870  44 t-inv F
  0.250000 -0.250000  0.000000    0.00057870  45 t-inv F
  0.000000 -0.250000  0.250000    0.00057870  45 t-inv F
  0.000000  0.250000 -0.250000    0.00057870  45 t-inv F
  0.250000  0.000000 -0.250000    0.00057870  45 t-inv F
 -0.250000  0.000000  0.250000    0.00057870  45 t-inv F
 -0.333333 -0.250000  0.000000    0.00057870  46 t-inv F
  0.000000  0.333333  0.250000    0.00057870  46 t-inv F
  0.000000 -0.333333 -0.250000    0.00057870  46 t-inv F
  0.250000  0.000000  0.333333    0.00057870  46 t-inv F
 -0.250000  0.000000 -0.333333    0.00057870  46 t-inv F
  0.250000 -0.333333  0.000000    0.00057870  47 t-inv F
  0.000000 -0.250000  0.333333    0.00057870  47 t-inv F
  0.000000  0.250000 -0.333333    0.00057870  47 t-inv F
  0.333333  0.000000 -0.250000    0.00057870  47 t-inv F
 -0.333333  0.000000  0.250000    0.00057870  47 t-inv F
  0.000000 -0.250000 -0.333333    0.00057870  48 t-inv F
  0.333333 -0.000000  0.250000    0.00057870  48 t-inv F
 -0.333333  0.000000 -0.250000    0.00057870  48 t-inv F
  0.250000  0.333333 -0.000000    0.00057870  48 t-inv F
 -0.250000 -0.333333  0.000000    0.00057870  48 t-inv F
 -0.000000  0.333333 -0.250000    0.00057870  49 t-inv F
  0.250000  0.000000 -0.333333    0.00057870  49 t-inv F
 -0.250000 -0.000000  0.333333    0.00057870  49 t-inv F
 -0.333333  0.250000  0.000000    0.00057870  49 t-inv F
  0.333333 -0.250000 -0.000000    0.00057870  49 t-inv F
 -0.416667 -0.250000  0.000000    0.00057870  50 t-inv F
  0.000000  0.416667  0.250000    0.00057870  50 t-inv F
  0.000000 -0.416667 -0.250000    0.00057870  50 t-inv F
  0.250000  0.000000  0.416667    0.00057870  50 t-inv F
 -0.250000  0.000000 -0.416667    0.00057870  50 t-inv F
  0.250000 -0.416667  0.000000    0.00057870  51 t-inv F
  0.000000 -0.250000  0.416667    0.00057870  51 t-inv F
  0.000000  0.250000 -0.416667    0.00057870  51 t-inv F
  0.416667  0.000000 -0.250000    0.00057870  51 t-inv F
 -0.416667  0.000000  0.250000    0.00057870  51 t-inv F
  0.000000 -0.250000 -0.416667    0.00057870  52 t-inv F
  0.416667 -0.000000  0.250000    0.00057870  52 t-inv F
 -0.416667  0.000000 -0.250000    0.00057870  52 t-inv F
  0.250000  0.416667 -0.000000    0.00057870  52 t-inv F
 -0.250000 -0.416667  0.000000    0.00057870  52 t-inv F
 -0.000000  0.416667 -0.250000    0.00057870  53 t-inv F
  0.250000  0.000000 -0.416667    0.00057870  53 t-inv F
 -0.250000 -0.000000  0.416667    0.00057870  53 t-inv F
 -0.416667  0.250000  0.000000    0.00057870  53 t-inv F
  0.416667 -0.250000 -0.000000    0.00057870  53 t-inv F
 -0.500000 -0.250000  0.000000    0.00057870  54 t-inv F
  0.000000  0.500000  0.250000    0.00057870  54 t-inv F
  0.000000 -0.500000 -0.250000    0.00057870  54 t-inv F
  0.250000  0.000000  0.500000    0.00057870  54 t-inv F
 -0.250000  0.000000 -0.500000    0.00057870  54 t-inv F
  0.250000 -0.500000  0.000000    0.00057870  55 t-inv F
  0.000000 -0.250000  0.500000    0.00057870  55 t-inv F
  0.000000  0.250000 -0.500000    0.00057870  55 t-inv F
  0.500000  0.000000 -0.250000    0.00057870  55 t-inv F
 -0.500000  0.000000  0.250000    0.00057870  55 t-inv F
 -0.333333 -0.333333  0.000000    0.00057870  56 t-inv F
  0.000000  0.333333  0.333333    0.00057870  56 t-inv F
  0.000000 -0.333333 -0.333333    0.00057870  56 t-inv F
  0.333333  0.000000  0.333333    0.00057870  56 t-inv F
 -0.333333  0.000000 -0.333333    0.00057870  56 t-inv F
  0.333333 -0.333333  0.000000    0.00057870  57 t-inv F
  0.000000 -0.333333  0.333333    0.00057870  57 t-inv F
  0.000000  0.333333 -0.333333    0.00057870  57 t-inv F
  0.333333  0.000000 -0.333333    0.00057870  57 t-inv F
 -0.333333  0.000000  0.333333    0.00057870  57 t-inv F
 -0.416667 -0.333333  0.000000    0.00057870  58 t-inv F
  0.000000  0.416667  0.333333    0.00057870  58 t-inv F
  0.000000 -0.416667 -0.333333    0.00057870  58 t-inv F
  0.333333  0.000000  0.416667    0.00057870  58 t-inv F
 -0.333333  0.000000 -0.416667    0.00057870  58 t-inv F
  0.333333 -0.416667  0.000000    0.00057870  59 t-inv F
  0.000000 -0.333333  0.416667    0.00057870  59 t-inv F
  0.000000  0.333333 -0.416667    0.00057870  59 t-inv F
  0.416667  0.000000 -0.333333    0.00057870  59 t-inv F
 -0.416667  0.000000  0.333333    0.00057870  59 t-inv F
  0.000000 -0.333333 -0.416667    0.00057870  60 t-inv F
  0.416667 -0.000000  0.333333    0.00057870  60 t-inv F
 -0.416667  0.000000 -0.333333    0.00057870  60 t-inv F
  0.333333  0.416667 -0.000000    0.00057870  60 t-inv F
 -0.333333 -0.416667  0.000000    0.00057870  60 t-inv F
  0.000000  0.416667 -0.333333    0.00057870  61 t-inv F
  0.333333 -0.000000 -0.416667    0.00057870  61 t-inv F
 -0.333333  0.000000  0.416667    0.00057870  61 t-inv F
 -0.416667  0.333333 -0.000000    0.00057870  61 t-inv F
  0.416667 -0.333333  0.000000    0.00057870  61 t-inv F
 -0.500000 -0.333333  0.000000    0.00057870  62 t-inv F
  0.000000  0.500000  0.333333    0.00057870  62 t-inv F
  0.000000 -0.500000 -0.333333    0.00057870  62 t-inv F
  0.333333  0.000000  0.500000    0.00057870  62 t-inv F
 -0.333333  0.000000 -0.500000    0.00057870  62 t-inv F
  0.333333 -0.500000  0.000000    0.00057870  63 t-inv F
  0.000000 -0.333333  0.500000    0.00057870  63 t-inv F
  0.000000  0.333333 -0.500000    0.00057870  63 t-inv F
  0.500000  0.000000 -0.333333    0.00057870  63 t-inv F
 -0.500000  0.000000  0.333333    0.00057870  63 t-inv F
 -0.416667 -0.416667  0.000000    0.00057870  64 t-inv F
  0.000000  0.416667  0.416667    0.00057870  64 t-inv F
  0.000000 -0.416667 -0.416667    0.00057870  64 t-inv F
  0.416667  0.000000  0.416667    0.00057870  64 t-inv F
 -0.416667  0.000000 -0.416667    0.00057870  64 t-inv F
  0.416667 -0.416667  0.000000    0.00057870  65 t-inv F
  0.000000 -0.416667  0.416667    0.00057870  65 t-inv F
  0.000000  0.416667 -0.416667    0.00057870  65 t-inv F
  0.416667  0.000000 -0.416667    0.00057870  65 t-inv F
 -0.416667  0.000000  0.416667    0.00057870  65 t-inv F
 -0.500000 -0.416667  0.000000    0.00057870  66 t-inv F
  0.000000  0.500000  0.416667    0.00057870  66 t-inv F
  0.000000 -0.500000 -0.416667    0.00057870  66 t-inv F
  0.416667  0.000000  0.500000    0.00057870  66 t-inv F
 -0.416667  0.000000 -0.500000    0.00057870  66 t-inv F
  0.416667 -0.500000  0.000000    0.00057870  67 t-inv F
  0.000000 -0.416667  0.500000    0.00057870  67 t-inv F
  0.000000  0.416667 -0.500000    0.00057870  67 t-inv F
  0.500000  0.000000 -0.416667    0.00057870  67 t-inv F
 -0.500000  0.000000  0.416667    0.00057870  67 t-inv F
  0.000000  0.500000  0.500000    0.00057870  68 t-inv F
  0.500000  0.000000  0.500000    0.00057870  68 t-inv F
 -0.083333 -0.083333 -0.083333    0.00057870  69 t-inv F
  0.083333 -0.083333 -0.083333    0.00057870  70 t-inv F
  0.083333 -0.083333  0.083333    0.00057870  70 t-inv F
 -0.083333  0.083333 -0.083333    0.00057870  70 t-inv F
  0.083333  0.083333 -0.083333    0.00057870  70 t-inv F
 -0.083333 -0.083333  0.083333    0.00057870  70 t-inv F
 -0.166667 -0.083333 -0.083333    0.00057870  71 t-inv F
  0.083333  0.166667  0.083333    0.00057870  71 t-inv F
 -0.083333 -0.166667 -0.083333    0.00057870  71 t-inv F
  0.083333  0.083333  0.166667    0.00057870  71 t-inv F
 -0.083333 -0.083333 -0.166667    0.00057870  71 t-inv F
  0.083333 -0.166667 -0.083333    0.00057870  72 t-inv F
  0.083333 -0.083333  0.166667    0.00057870  72 t-inv F
 -0.083333  0.083333 -0.166667    0.00057870  72 t-inv F
  0.166667  0.083333 -0.083333    0.00057870  72 t-inv F
 -0.166667 -0.083333  0.083333    0.00057870  72 t-inv F
  0.166667 -0.083333 -0.083333    0.00057870  73 t-inv F
  0.083333 -0.166667  0.083333    0.00057870  73 t-inv F
 -0.083333  0.166667 -0.083333    0.00057870  73 t-inv F
  0.083333  0.083333 -0.166667    0.00057870  73 t-inv F
 -0.083333 -0.083333  0.166667    0.00057870  73 t-inv F
  0.083333 -0.083333 -0.166667    0.00057870  74 t-inv F
  0.166667 -0.083333  0.083333    0.00057870  74 t-inv F
 -0.166667  0.083333 -0.083333    0.00057870  74 t-inv F
  0.083333  0.166667 -0.083333    0.00057870  74 t-inv F
 -0.083333 -0.166667  0.083333    0.00057870  74 t-inv F
 -0.250000 -0.083333 -0.083333    0.00057870  75 t-inv F
  0.083333  0.250000  0.083333    0.00057870  75 t-inv F
 -0.083333 -0.250000 -0.083333    0.00057870  75 t-inv F
  0.083333  0.083333  0.250000    0.00057870  75 t-inv F
 -0.083333 -0.083333 -0.250000    0.00057870  75 t-inv F
  0.083333 -0.250000 -0.083333    0.00057870  76 t-inv F
  0.083333 -0.083333  0.250000    0.00057870  76 t-inv F
 -0.083333  0.083333 -0.250000    0.00057870  76 t-inv F
  0.250000  0.083333 -0.083333    0.00057870  76 t-inv F
 -0.250000 -0.083333  0.083333    0.00057870  76 t-inv F
  0.250000 -0.083333 -0.083333    0.00057870  77 t-inv F
[...]
 -0.000   0.000   4.783   0.000   0.000   0.000  -0.000  -2.499  -0.000  -0.000   0.000   0.000  -0.000   0.000   0.000   0.000
  0.000   0.000   0.000   4.973   0.000  -0.000  -0.000  -0.000  -2.889  -0.000   0.000  -0.000  -0.000  -0.000   0.000   0.000
  0.000  -0.000   0.000   0.000   4.783  -0.000   0.000   0.000  -0.000  -2.499   0.000   0.000   0.000   0.000   0.000   0.000
 -2.889  -0.000   0.000  -0.000  -0.000   2.712   0.000   0.000   0.000   0.000  -0.000   0.000   0.000   0.000  -0.000   0.000
 -0.000  -2.889  -0.000  -0.000   0.000   0.000   2.712  -0.000   0.000   0.000  -0.000   0.000   0.000   0.000   0.000  -0.000
  0.000  -0.000  -2.499  -0.000   0.000   0.000  -0.000   2.176  -0.000  -0.000  -0.000  -0.000   0.000  -0.000   0.000  -0.000
 -0.000  -0.000  -0.000  -2.889  -0.000   0.000   0.000  -0.000   2.712  -0.000  -0.000   0.000  -0.000   0.000   0.000   0.000
 -0.000   0.000  -0.000  -0.000  -2.499   0.000   0.000  -0.000  -0.000   2.176  -0.000  -0.000  -0.000   0.000   0.000  -0.000
  0.000   0.000   0.000   0.000   0.000  -0.000  -0.000   0.000  -0.000  -0.000   2.401  -0.596  -0.000   0.000   0.000   0.000
 -0.000  -0.000   0.000  -0.000  -0.000   0.000   0.000  -0.000   0.000   0.000  -0.596   0.194   0.000   0.000   0.000   0.000
 -0.000   0.000   0.000  -0.000   0.000   0.000   0.000  -0.000  -0.000   0.000  -0.000   0.000   0.167  -0.000  -0.000  -0.004
  0.000   0.000   0.000  -0.000   0.000   0.000   0.000   0.000   0.000   0.000   0.000   0.000  -0.000   0.167  -0.000   0.000
  0.000   0.000   0.000   0.000   0.000  -0.000   0.000   0.000   0.000   0.000   0.000   0.000  -0.000  -0.000   0.167   0.000
  0.000   0.000   0.000   0.000   0.000   0.000  -0.000   0.000   0.000   0.000   0.000   0.000  -0.004   0.000   0.000   0.001
  0.000  -0.000  -0.000   0.000  -0.000  -0.000   0.000   0.000   0.000   0.000  -0.000   0.000   0.000  -0.004   0.000  -0.000
 -0.000  -0.000   0.000  -0.000   0.000  -0.000   0.000   0.000   0.000  -0.000   0.000   0.000   0.000   0.000  -0.004  -0.000
 total augmentation occupancy for first ion, spin component:           2
  0.000  -0.000   0.000   0.000  -0.000  -0.000   0.000  -0.000   0.000   0.000   0.000  -0.000   0.000   0.000   0.000  -0.000
 -0.000   0.000   0.000  -0.000  -0.000  -0.000  -0.000  -0.000  -0.000   0.000  -0.000   0.000   0.000  -0.000   0.000   0.000
  0.000   0.000   0.000   0.000   0.000  -0.000  -0.000   0.000  -0.000  -0.000  -0.000   0.000   0.000  -0.000   0.000   0.000
  0.000  -0.000   0.000   0.000  -0.000   0.000   0.000  -0.000  -0.000   0.000   0.000  -0.000   0.000  -0.000   0.000  -0.000
 -0.000  -0.000   0.000  -0.000   0.000   0.000   0.000  -0.000   0.000   0.000   0.000  -0.000  -0.000   0.000  -0.000   0.000
 -0.000  -0.000  -0.000   0.000   0.000  -0.000   0.000   0.000  -0.000  -0.000   0.000  -0.000   0.000   0.000   0.000  -0.000
  0.000  -0.000  -0.000   0.000   0.000   0.000  -0.000  -0.000   0.000   0.000  -0.000   0.000  -0.000   0.000   0.000   0.000
 -0.000  -0.000   0.000  -0.000  -0.000   0.000  -0.000  -0.000   0.000   0.000   0.000  -0.000  -0.000   0.000  -0.000   0.000
  0.000  -0.000  -0.000  -0.000   0.000  -0.000   0.000   0.000  -0.000  -0.000   0.000  -0.000   0.000  -0.000  -0.000   0.000
  0.000   0.000  -0.000   0.000   0.000  -0.000   0.000   0.000  -0.000  -0.000  -0.000   0.000   0.000  -0.000  -0.000   0.000
  0.000  -0.000  -0.000   0.000   0.000   0.000  -0.000   0.000   0.000  -0.000  -0.000   0.000  -0.000  -0.000   0.000  -0.000
 -0.000   0.000   0.000  -0.000  -0.000  -0.000   0.000  -0.000  -0.000   0.000   0.000  -0.000   0.000   0.000   0.000  -0.000
  0.000   0.000   0.000  -0.000   0.000   0.000  -0.000   0.000  -0.000  -0.000   0.000  -0.000   0.000  -0.000   0.000  -0.000
  0.000   0.000   0.000   0.000   0.000  -0.000   0.000  -0.000  -0.000   0.000   0.000   0.000  -0.000   0.000   0.000   0.000
  0.000   0.000   0.000   0.000   0.000   0.000   0.000   0.000  -0.000  -0.000   0.000  -0.000   0.000   0.000   0.000   0.000
  0.000  -0.000   0.000   0.000   0.000  -0.000   0.000   0.000   0.000   0.000  -0.000  -0.000  -0.000   0.000   0.000   0.000
  0.000   0.000  -0.000   0.000  -0.000   0.000  -0.000  -0.000  -0.000   0.000   0.000   0.000   0.000  -0.000   0.000  -0.000
  0.000  -0.000  -0.000   0.000  -0.000   0.000  -0.000  -0.000  -0.000  -0.000  -0.000   0.000  -0.000  -0.000  -0.000   0.000
 total augmentation occupancy for first ion, spin component:           3
  0.000   0.000   0.000  -0.000   0.000  -0.000   0.000  -0.000   0.000  -0.000   0.000  -0.000  -0.000  -0.000  -0.000   0.000
  0.000   0.000   0.000  -0.000   0.000   0.000  -0.000  -0.000   0.000  -0.000   0.000  -0.000   0.000  -0.000  -0.000   0.000
  0.000   0.000   0.000   0.000  -0.000  -0.000  -0.000   0.000  -0.000   0.000  -0.000   0.000   0.000  -0.000  -0.000  -0.000
 -0.000  -0.000   0.000   0.000   0.000  -0.000  -0.000  -0.000  -0.000  -0.000  -0.000   0.000  -0.000   0.000  -0.000  -0.000
  0.000   0.000  -0.000   0.000   0.000  -0.000  -0.000   0.000  -0.000   0.000  -0.000   0.000   0.000  -0.000  -0.000   0.000
 -0.000   0.000  -0.000  -0.000  -0.000  -0.000  -0.000   0.000   0.000   0.000   0.000  -0.000  -0.000   0.000  -0.000  -0.000
  0.000  -0.000  -0.000  -0.000  -0.000  -0.000  -0.000   0.000   0.000   0.000   0.000  -0.000  -0.000   0.000  -0.000  -0.000
 -0.000  -0.000   0.000  -0.000   0.000   0.000   0.000  -0.000  -0.000  -0.000   0.000  -0.000  -0.000  -0.000  -0.000  -0.000
  0.000   0.000  -0.000  -0.000  -0.000   0.000   0.000  -0.000  -0.000  -0.000  -0.000   0.000  -0.000  -0.000   0.000  -0.000
 -0.000  -0.000   0.000  -0.000   0.000   0.000   0.000  -0.000  -0.000  -0.000   0.000  -0.000  -0.000  -0.000   0.000   0.000
  0.000   0.000  -0.000  -0.000  -0.000   0.000   0.000   0.000  -0.000   0.000  -0.000   0.000  -0.000  -0.000   0.000   0.000
 -0.000  -0.000   0.000   0.000   0.000  -0.000  -0.000  -0.000   0.000  -0.000   0.000  -0.000   0.000   0.000  -0.000   0.000
 -0.000  -0.000  -0.000   0.000  -0.000   0.000   0.000   0.000  -0.000   0.000  -0.000  -0.000   0.000   0.000   0.000  -0.000
  0.000  -0.000   0.000  -0.000   0.000   0.000  -0.000   0.000  -0.000  -0.000  -0.000   0.000   0.000   0.000  -0.000  -0.000
 -0.000  -0.000   0.000  -0.000   0.000  -0.000   0.000   0.000  -0.000  -0.000   0.000   0.000   0.000  -0.000   0.000  -0.000
 -0.000   0.000   0.000   0.000   0.000  -0.000   0.000  -0.000  -0.000   0.000   0.000  -0.000  -0.000  -0.000  -0.000   0.000
  0.000  -0.000  -0.000   0.000   0.000  -0.000   0.000   0.000   0.000  -0.000   0.000   0.000   0.000  -0.000   0.000   0.000
  0.000   0.000   0.000  -0.000  -0.000   0.000   0.000  -0.000   0.000  -0.000   0.000   0.000   0.000   0.000  -0.000   0.000
 total augmentation occupancy for first ion, spin component:           4
  0.000  -0.000  -0.000  -0.000   0.000  -0.000  -0.000   0.000  -0.000  -0.000  -0.000   0.000  -0.000   0.000   0.000   0.000
 -0.000   0.000  -0.000   0.000  -0.000   0.000  -0.000   0.000   0.000  -0.000   0.000  -0.000   0.000   0.000  -0.000   0.000
 -0.000  -0.000   0.000  -0.000  -0.000   0.000   0.000   0.000   0.000   0.000   0.000  -0.000  -0.000  -0.000  -0.000  -0.000
 -0.000   0.000  -0.000   0.000   0.000   0.000   0.000   0.000  -0.000   0.000   0.000  -0.000  -0.000  -0.000   0.000  -0.000
  0.000  -0.000  -0.000   0.000   0.000  -0.000   0.000   0.000  -0.000   0.000  -0.000   0.000  -0.000   0.000   0.000   0.000
 -0.000   0.000   0.000   0.000  -0.000  -0.000   0.000   0.000   0.000   0.000  -0.000   0.000  -0.000  -0.000  -0.000   0.000
 -0.000  -0.000   0.000   0.000   0.000   0.000  -0.000  -0.000  -0.000  -0.000   0.000  -0.000  -0.000   0.000  -0.000  -0.000
  0.000   0.000   0.000   0.000   0.000   0.000  -0.000  -0.000  -0.000  -0.000  -0.000   0.000  -0.000  -0.000   0.000   0.000
 -0.000   0.000   0.000  -0.000  -0.000   0.000  -0.000  -0.000  -0.000   0.000   0.000  -0.000  -0.000   0.000  -0.000   0.000
 -0.000  -0.000   0.000   0.000   0.000   0.000  -0.000  -0.000   0.000  -0.000  -0.000  -0.000  -0.000  -0.000  -0.000   0.000
 -0.000   0.000   0.000   0.000  -0.000  -0.000   0.000  -0.000   0.000  -0.000  -0.000   0.000  -0.000   0.000  -0.000   0.000
  0.000  -0.000  -0.000  -0.000   0.000   0.000  -0.000   0.000  -0.000  -0.000   0.000  -0.000   0.000   0.000   0.000   0.000
  0.000  -0.000  -0.000  -0.000   0.000  -0.000   0.000   0.000   0.000   0.000  -0.000  -0.000   0.000   0.000  -0.000  -0.000
 -0.000   0.000  -0.000   0.000  -0.000   0.000   0.000  -0.000   0.000   0.000   0.000   0.000   0.000   0.000   0.000   0.000
  0.000   0.000   0.000   0.000  -0.000  -0.000   0.000   0.000  -0.000  -0.000   0.000   0.000  -0.000   0.000   0.000   0.000
 -0.000  -0.000   0.000  -0.000  -0.000   0.000   0.000   0.000   0.000   0.000   0.000   0.000  -0.000   0.000   0.000   0.000
  0.000  -0.000   0.000   0.000   0.000   0.000  -0.000  -0.000   0.000   0.000  -0.000   0.000  -0.000  -0.000  -0.000   0.000
 -0.000  -0.000   0.000  -0.000   0.000   0.000  -0.000   0.000   0.000   0.000  -0.000  -0.000   0.000   0.000  -0.000  -0.000


------------------------ aborting loop because EDIFF is reached ----------------------------------------


    CHARGE:  cpu time      0.0485: real time      0.0485
    FORLOC:  cpu time      0.0002: real time      0.0002
    FORNL :  cpu time      0.4179: real time      0.4179
    STRESS:  cpu time      1.0698: real time      1.0697
    FORCOR:  cpu time      0.0050: real time      0.0053
    FORHAR:  cpu time      0.0006: real time      0.0007
    MIXING:  cpu time      0.0006: real time      0.0007
    OFIELD:  cpu time      0.0000: real time      0.0001

  FORCE on cell =-STRESS in cart. coord.  units (eV):
  Direction    XX          YY          ZZ          XY          YZ          ZX
  --------------------------------------------------------------------------------------
  Alpha Z   256.26030   256.26030   256.26030
  Ewald   -1275.89168 -1275.89168 -1275.89168    -0.00000     0.00000     0.00000
  Hartree   161.14861   161.14861   161.14861     0.00000     0.00000     0.00000
  E(xc)    -197.85457  -197.85457  -197.85457    -0.00000    -0.00000    -0.00000
  Local     175.16784   175.16784   175.16784    -0.00000    -0.00000    -0.00000
  n-local     1.19091    -3.05407    -8.58155    -1.10509     3.47157    -2.36649
  augment   271.05810   271.05810   271.05810    -0.00000    -0.00000    -0.00000
  Kinetic   613.36178   612.46560   610.12382     0.31625    -1.73252     1.41628
  Fock        0.00000     0.00000     0.00000     0.00000     0.00000     0.00000
  -------------------------------------------------------------------------------------
  Total      -1.60924    -1.60924    -1.60924    -0.00000    -0.00000    -0.00000
  in kB     -35.45228   -35.45228   -35.45228    -0.00008    -0.00008    -0.00008
  external pressure =      -35.45 kB  Pullay stress =        0.00 kB


 VOLUME and BASIS-vectors are now :
 -----------------------------------------------------------------------------
  energy-cutoff  :      298.93
  volume of cell :       72.73
      direct lattice vectors                 reciprocal lattice vectors
     4.174100000  0.000000000  0.000000000     0.239572602 -0.000000000  0.000000000
     0.000000000  4.174100000  0.000000000     0.000000000  0.239572602  0.000000000
     0.000000000  0.000000000  4.174100000    -0.000000000 -0.000000000  0.239572602

  length of vectors
     4.174100000  4.174100000  4.174100000     0.239572602  0.239572602  0.239572602


 FORCES acting on ions
    electron-ion (+dipol)            ewald-force                    non-local-force                 convergence-correction
 -----------------------------------------------------------------------------------------------
   -.181E-13 -.152E-13 -.207E-13   0.573E-14 -.363E-14 -.964E-14   0.473E-22 0.120E-22 0.201E-22   0.163E-13 0.956E-14 0.689E-15
   -.236E-13 0.235E-12 0.234E-12   0.571E-14 0.105E-14 0.522E-14   -.296E-23 -.770E-23 -.233E-23   0.169E-13 0.136E-13 0.216E-14
   0.235E-12 -.154E-13 0.240E-12   -.528E-14 -.272E-15 0.219E-14   0.735E-23 -.687E-23 -.105E-22   0.142E-14 0.630E-14 -.122E-14
   0.233E-12 0.236E-12 -.206E-13   -.530E-14 0.440E-14 0.161E-15   -.162E-22 0.110E-22 0.333E-23   0.102E-14 0.731E-14 -.335E-14
 -----------------------------------------------------------------------------------------------
   0.427E-12 0.441E-12 0.432E-12   0.850E-15 0.155E-14 -.207E-14   0.355E-22 0.847E-23 0.107E-22   0.357E-13 0.367E-13 -.173E-14
 
 
 POSITION                                       TOTAL-FORCE (eV/Angst)
 -----------------------------------------------------------------------------------
      0.00000      0.00000      0.00000         0.000000      0.000000     -0.000000
      0.00000      2.08705      2.08705        -0.000000     -0.000000     -0.000000
      2.08705      0.00000      2.08705         0.000000      0.000000     -0.000000
      2.08705      2.08705      0.00000        -0.000000     -0.000000      0.000000
 -----------------------------------------------------------------------------------
    total drift:                                0.000000      0.000000      0.000000


--------------------------------------------------------------------------------------------------------



  FREE ENERGIE OF THE ION-ELECTRON SYSTEM (eV)
  ---------------------------------------------------
  free  energy   TOTEN  =       -14.03500725 eV

  energy  without entropy=      -14.03359901  energy(sigma->0) =      -14.03430313
 


--------------------------------------------------------------------------------------------------------


    POTLOK:  cpu time      0.0131: real time      0.0132


--------------------------------------------------------------------------------------------------------


 writing wavefunctions
     LOOP+:  cpu time     89.9403: real time     89.9524
    4ORBIT:  cpu time      0.0000: real time      0.0000

 Spin-Orbit-Coupling matrix elements

 Ion:    1  E_soc:     -0.5695771
 l=   1
     0.0000000    -0.0236194    -0.0236194
    -0.0236194     0.0000000    -0.0236194
    -0.0236194    -0.0236194     0.0000000
 l=   2
     0.0000000    -0.0155802     0.0000000    -0.0155802    -0.0557299
    -0.0155802     0.0000000    -0.0417975    -0.0155802    -0.0139325
     0.0000000    -0.0417975     0.0000000    -0.0417975     0.0000000
    -0.0155802    -0.0155802    -0.0417975     0.0000000    -0.0139325
    -0.0557299    -0.0139325     0.0000000    -0.0139325     0.0000000
 l=   3
     0.0000000     0.0000000     0.0000000     0.0000000     0.0000000     0.0000000     0.0000000
     0.0000000     0.0000000     0.0000000     0.0000000     0.0000000     0.0000000     0.0000000
     0.0000000     0.0000000     0.0000000     0.0000000     0.0000000     0.0000000     0.0000000
     0.0000000     0.0000000     0.0000000     0.0000000     0.0000000     0.0000000     0.0000000
     0.0000000     0.0000000     0.0000000     0.0000000     0.0000000     0.0000000     0.0000000
     0.0000000     0.0000000     0.0000000     0.0000000     0.0000000     0.0000000     0.0000000
     0.0000000     0.0000000     0.0000000     0.0000000     0.0000000     0.0000000     0.0000000

 Ion:    2  E_soc:     -0.5695771
 l=   1
     0.0000000    -0.0236194    -0.0236194
    -0.0236194     0.0000000    -0.0236194
    -0.0236194    -0.0236194     0.0000000
 l=   2
     0.0000000    -0.0155802     0.0000000    -0.0155802    -0.0557299
    -0.0155802     0.0000000    -0.0417975    -0.0155802    -0.0139325
     0.0000000    -0.0417975     0.0000000    -0.0417975     0.0000000
    -0.0155802    -0.0155802    -0.0417975     0.0000000    -0.0139325
    -0.0557299    -0.0139325     0.0000000    -0.0139325     0.0000000
 l=   3
     0.0000000     0.0000000     0.0000000     0.0000000     0.0000000     0.0000000     0.0000000
     0.0000000     0.0000000     0.0000000     0.0000000     0.0000000     0.0000000     0.0000000
     0.0000000     0.0000000     0.0000000     0.0000000     0.0000000     0.0000000     0.0000000
     0.0000000     0.0000000     0.0000000     0.0000000     0.0000000     0.0000000     0.0000000
     0.0000000     0.0000000     0.0000000     0.0000000     0.0000000     0.0000000     0.0000000
     0.0000000     0.0000000     0.0000000     0.0000000     0.0000000     0.0000000     0.0000000
     0.0000000     0.0000000     0.0000000     0.0000000     0.0000000     0.0000000     0.0000000

 Ion:    3  E_soc:     -0.5695771
 l=   1
     0.0000000    -0.0236194    -0.0236194
    -0.0236194     0.0000000    -0.0236194
    -0.0236194    -0.0236194     0.0000000
 l=   2
     0.0000000    -0.0155802     0.0000000    -0.0155802    -0.0557299
    -0.0155802     0.0000000    -0.0417975    -0.0155802    -0.0139325
     0.0000000    -0.0417975     0.0000000    -0.0417975     0.0000000
    -0.0155802    -0.0155802    -0.0417975     0.0000000    -0.0139325
    -0.0557299    -0.0139325     0.0000000    -0.0139325     0.0000000
 l=   3
     0.0000000     0.0000000     0.0000000     0.0000000     0.0000000     0.0000000     0.0000000
     0.0000000     0.0000000     0.0000000     0.0000000     0.0000000     0.0000000     0.0000000
     0.0000000     0.0000000     0.0000000     0.0000000     0.0000000     0.0000000     0.0000000
     0.0000000     0.0000000     0.0000000     0.0000000     0.0000000     0.0000000     0.0000000
     0.0000000     0.0000000     0.0000000     0.0000000     0.0000000     0.0000000     0.0000000
     0.0000000     0.0000000     0.0000000     0.0000000     0.0000000     0.0000000     0.0000000
     0.0000000     0.0000000     0.0000000     0.0000000     0.0000000     0.0000000     0.0000000

 Ion:    4  E_soc:     -0.5695771
 l=   1
     0.0000000    -0.0236194    -0.0236194
    -0.0236194     0.0000000    -0.0236194
    -0.0236194    -0.0236194     0.0000000
 l=   2
     0.0000000    -0.0155802     0.0000000    -0.0155802    -0.0557299
    -0.0155802     0.0000000    -0.0417975    -0.0155802    -0.0139325
     0.0000000    -0.0417975     0.0000000    -0.0417975     0.0000000
    -0.0155802    -0.0155802    -0.0417975     0.0000000    -0.0139325
    -0.0557299    -0.0139325     0.0000000    -0.0139325     0.0000000
 l=   3
     0.0000000     0.0000000     0.0000000     0.0000000     0.0000000     0.0000000     0.0000000
     0.0000000     0.0000000     0.0000000     0.0000000     0.0000000     0.0000000     0.0000000
     0.0000000     0.0000000     0.0000000     0.0000000     0.0000000     0.0000000     0.0000000
     0.0000000     0.0000000     0.0000000     0.0000000     0.0000000     0.0000000     0.0000000
     0.0000000     0.0000000     0.0000000     0.0000000     0.0000000     0.0000000     0.0000000
     0.0000000     0.0000000     0.0000000     0.0000000     0.0000000     0.0000000     0.0000000
     0.0000000     0.0000000     0.0000000     0.0000000     0.0000000     0.0000000     0.0000000

 total amount of memory used by VASP MPI-rank0    89054. kBytes
=======================================================================

   base      :      30000. kBytes
   nonl-proj :      38668. kBytes
   fftplans  :        136. kBytes
   grid      :       1036. kBytes
   one-center:        248. kBytes
   wavefun   :      18966. kBytes
 
  
  
 General timing and accounting informations for this job:
 ========================================================
  
                  Total CPU time used (sec):       93.645
                            User time (sec):       92.433
                          System time (sec):        1.212
                         Elapsed time (sec):       93.996
  
                   Maximum memory used (kb):      369908.
                   Average memory used (kb):          N/A
  
                          Minor page faults:        30471
                          Major page faults:            0
                 Voluntary context switches:         4507
