<?xml version="1.0" encoding="ISO-8859-1"?>
<modeling>
 <generator>
  <i name="program" type="string">vasp </i>
  <i name="version" type="string">6.4.3  </i>
  <i name="subversion" type="string">19Mar24 (build Jun 26 2024 13:02:28) complex                          parallel </i>
  <i name="platform" type="string">LinuxIFC </i>
  <i name="date" type="string">2025 08 08 </i>
  <i name="time" type="string">19:53:43 </i>
 </generator>
 <incar>
  <i type="string" name="SYSTEM">Au</i>
  <i type="logical" name="LSORBIT"> T  </i>
  <v name="SAXIS">      0.00000000      0.00000000      1.00000000</v>
  <i type="int" name="IBRION">    -1</i>
  <i type="int" name="ISYM">     2</i>
  <i name="ENCUT">    298.92590000</i>
  <i type="int" name="ISMEAR">     0</i>
  <i name="SIGMA">      0.05000000</i>
  <i type="logical" name="LWAVE"> T  </i>
  <i type="logical" name="LCHARG"> T  </i>
 </incar>
 <primitive_cell>
  <structure name="primitive_cell" >
   <crystal>
    <varray name="basis" >
     <v>       2.08705000      -2.08705000       0.00000000 </v>
     <v>       2.08705000       0.00000000       2.08705000 </v>
     <v>       0.00000000      -2.08705000       2.08705000 </v>
    </varray>
    <i name="volume">     18.18145171 </i>
    <varray name="rec_basis" >
     <v>       0.23957260      -0.23957260      -0.23957260 </v>
     <v>       0.23957260       0.23957260       0.23957260 </v>
     <v>      -0.23957260      -0.23957260       0.23957260 </v>
    </varray>
   </crystal>
   <varray name="positions" >
    <v>       0.00000000       0.00000000       0.00000000 </v>
   </varray>
  </structure>
  <varray name="primitive_index" >
   <v type="int" >        1 </v>
  </varray>
 </primitive_cell>
 <kpoints>
  <generation param="Gamma">
   <v type="int" name="divisions">      12       12       12 </v>
   <v name="usershift">      0.00000000       0.00000000       0.00000000 </v>
   <v name="genvec1">      0.08333333      -0.00000000       0.00000000 </v>
   <v name="genvec2">      0.00000000       0.08333333       0.00000000 </v>
   <v name="genvec3">     -0.00000000      -0.00000000       0.08333333 </v>
   <v name="shift">      0.00000000       0.00000000       0.00000000 </v>
  </generation>
  <varray name="kpointlist" >
   <v>       0.00000000       0.00000000       0.00000000 </v>
   <v>       0.08333333       0.00000000       0.00000000 </v>
   <v>       0.16666667       0.00000000       0.00000000 </v>
   <v>       0.25000000       0.00000000       0.00000000 </v>
   <v>       0.33333333      -0.00000000       0.00000000 </v>
   <v>       0.41666667       0.00000000       0.00000000 </v>
   <v>       0.50000000       0.00000000       0.00000000 </v>
   <v>       0.08333333       0.08333333       0.00000000 </v>
   <v>      -0.08333333       0.08333333       0.00000000 </v>
   <v>       0.16666667       0.08333333       0.00000000 </v>
   <v>      -0.08333333       0.16666667       0.00000000 </v>
   <v>       0.00000000       0.08333333       0.16666667 </v>
   <v>      -0.00000000      -0.16666667       0.08333333 </v>
   <v>       0.25000000       0.08333333       0.00000000 </v>
   <v>      -0.08333333       0.25000000       0.00000000 </v>
   <v>       0.00000000       0.08333333       0.25000000 </v>
   <v>      -0.00000000      -0.25000000       0.08333333 </v>
   <v>       0.33333333       0.08333333       0.00000000 </v>
   <v>      -0.08333333       0.33333333       0.00000000 </v>
   <v>      -0.00000000       0.08333333       0.33333333 </v>
   <v>      -0.00000000      -0.33333333       0.08333333 </v>
   <v>       0.41666667       0.08333333       0.00000000 </v>
   <v>      -0.08333333       0.41666667       0.00000000 </v>
   <v>      -0.00000000       0.08333333       0.41666667 </v>
   <v>      -0.00000000      -0.41666667       0.08333333 </v>
   <v>       0.50000000       0.08333333       0.00000000 </v>
   <v>      -0.08333333       0.50000000       0.00000000 </v>
   <v>       0.16666667       0.16666667       0.00000000 </v>
   <v>      -0.16666667       0.16666667       0.00000000 </v>
   <v>       0.25000000       0.16666667       0.00000000 </v>
   <v>      -0.16666667       0.25000000       0.00000000 </v>
   <v>       0.00000000       0.16666667       0.25000000 </v>
   <v>       0.00000000      -0.25000000       0.16666667 </v>
   <v>       0.33333333       0.16666667       0.00000000 </v>
   <v>      -0.16666667       0.33333333       0.00000000 </v>
   <v>      -0.00000000       0.16666667       0.33333333 </v>
   <v>       0.00000000      -0.33333333       0.16666667 </v>
   <v>       0.41666667       0.16666667       0.00000000 </v>
   <v>      -0.16666667       0.41666667       0.00000000 </v>
   <v>      -0.00000000       0.16666667       0.41666667 </v>
   <v>       0.00000000      -0.41666667       0.16666667 </v>
   <v>       0.50000000       0.16666667       0.00000000 </v>
   <v>      -0.16666667       0.50000000       0.00000000 </v>
   <v>       0.25000000       0.25000000       0.00000000 </v>
   <v>      -0.25000000       0.25000000       0.00000000 </v>
   <v>       0.33333333       0.25000000       0.00000000 </v>
   <v>      -0.25000000       0.33333333       0.00000000 </v>
   <v>      -0.00000000       0.25000000       0.33333333 </v>
   <v>       0.00000000      -0.33333333       0.25000000 </v>
   <v>       0.41666667       0.25000000       0.00000000 </v>
   <v>      -0.25000000       0.41666667       0.00000000 </v>
   <v>      -0.00000000       0.25000000       0.41666667 </v>
   <v>       0.00000000      -0.41666667       0.25000000 </v>
   <v>       0.50000000       0.25000000       0.00000000 </v>
   <v>      -0.25000000       0.50000000       0.00000000 </v>
   <v>       0.33333333       0.33333333       0.00000000 </v>
   <v>      -0.33333333       0.33333333       0.00000000 </v>
   <v>       0.41666667       0.33333333       0.00000000 </v>
   <v>      -0.33333333       0.41666667       0.00000000 </v>
   <v>      -0.00000000       0.33333333       0.41666667 </v>
   <v>      -0.00000000      -0.41666667       0.33333333 </v>
   <v>       0.50000000       0.33333333       0.00000000 </v>
   <v>      -0.33333333       0.50000000       0.00000000 </v>
   <v>       0.41666667       0.41666667       0.00000000 </v>
   <v>      -0.41666667       0.41666667       0.00000000 </v>
   <v>       0.50000000       0.41666667       0.00000000 </v>
   <v>      -0.41666667       0.50000000       0.00000000 </v>
   <v>       0.50000000       0.50000000       0.00000000 </v>
   <v>       0.08333333       0.08333333       0.08333333 </v>
   <v>      -0.08333333       0.08333333       0.08333333 </v>
   <v>       0.16666667       0.08333333       0.08333333 </v>
   <v>      -0.08333333       0.16666667       0.08333333 </v>
   <v>      -0.16666667       0.08333333       0.08333333 </v>
   <v>      -0.08333333       0.08333333       0.16666667 </v>
   <v>       0.25000000       0.08333333       0.08333333 </v>
   <v>      -0.08333333       0.25000000       0.08333333 </v>
   <v>      -0.25000000       0.08333333       0.08333333 </v>
   <v>      -0.08333333       0.08333333       0.25000000 </v>
   <v>       0.33333333       0.08333333       0.08333333 </v>
   <v>      -0.08333333       0.33333333       0.08333333 </v>
   <v>      -0.33333333       0.08333333       0.08333333 </v>
   <v>      -0.08333333       0.08333333       0.33333333 </v>
   <v>       0.41666667       0.08333333       0.08333333 </v>
   <v>      -0.08333333       0.41666667       0.08333333 </v>
   <v>      -0.41666667       0.08333333       0.08333333 </v>
   <v>      -0.08333333       0.08333333       0.41666667 </v>
   <v>       0.50000000       0.08333333       0.08333333 </v>
   <v>      -0.08333333       0.50000000       0.08333333 </v>
   <v>       0.16666667       0.16666667       0.08333333 </v>
   <v>      -0.16666667       0.16666667       0.08333333 </v>
   <v>      -0.16666667       0.08333333       0.16666667 </v>
   <v>      -0.08333333       0.16666667       0.16666667 </v>
   <v>       0.25000000       0.16666667       0.08333333 </v>
   <v>      -0.16666667       0.25000000       0.08333333 </v>
   <v>      -0.25000000       0.08333333       0.16666667 </v>
   <v>      -0.08333333       0.16666667       0.25000000 </v>
   <v>      -0.25000000      -0.16666667       0.08333333 </v>
   <v>      -0.08333333      -0.25000000       0.16666667 </v>
   <v>      -0.16666667      -0.08333333       0.25000000 </v>
   <v>      -0.25000000      -0.08333333      -0.16666667 </v>
   <v>       0.33333333       0.16666667       0.08333333 </v>
   <v>      -0.16666667       0.33333333       0.08333333 </v>
   <v>      -0.33333333       0.08333333       0.16666667 </v>
   <v>      -0.08333333       0.16666667       0.33333333 </v>
   <v>      -0.33333333      -0.16666667       0.08333333 </v>
   <v>      -0.08333333      -0.33333333       0.16666667 </v>
   <v>      -0.16666667      -0.08333333       0.33333333 </v>
   <v>      -0.33333333      -0.08333333      -0.16666667 </v>
   <v>       0.41666667       0.16666667       0.08333333 </v>
   <v>      -0.16666667       0.41666667       0.08333333 </v>
   <v>      -0.41666667       0.08333333       0.16666667 </v>
   <v>      -0.08333333       0.16666667       0.41666667 </v>
   <v>      -0.41666667      -0.16666667       0.08333333 </v>
   <v>      -0.08333333      -0.41666667       0.16666667 </v>
   <v>      -0.16666667      -0.08333333       0.41666667 </v>
   <v>      -0.41666667      -0.08333333      -0.16666667 </v>
   <v>       0.50000000       0.16666667       0.08333333 </v>
   <v>      -0.16666667       0.50000000       0.08333333 </v>
   <v>       0.50000000       0.08333333       0.16666667 </v>
   <v>       0.50000000      -0.16666667       0.08333333 </v>
   <v>       0.25000000       0.25000000       0.08333333 </v>
   <v>      -0.25000000       0.25000000       0.08333333 </v>
   <v>      -0.25000000       0.08333333       0.25000000 </v>
   <v>      -0.08333333       0.25000000       0.25000000 </v>
   <v>       0.33333333       0.25000000       0.08333333 </v>
   <v>      -0.25000000       0.33333333       0.08333333 </v>
   <v>      -0.33333333       0.08333333       0.25000000 </v>
   <v>      -0.08333333       0.25000000       0.33333333 </v>
   <v>      -0.33333333      -0.25000000       0.08333333 </v>
   <v>      -0.08333333      -0.33333333       0.25000000 </v>
   <v>      -0.25000000      -0.08333333       0.33333333 </v>
   <v>      -0.33333333      -0.08333333      -0.25000000 </v>
   <v>       0.41666667       0.25000000       0.08333333 </v>
   <v>      -0.25000000       0.41666667       0.08333333 </v>
   <v>      -0.41666667       0.08333333       0.25000000 </v>
   <v>      -0.08333333       0.25000000       0.41666667 </v>
   <v>      -0.41666667      -0.25000000       0.08333333 </v>
   <v>      -0.08333333      -0.41666667       0.25000000 </v>
   <v>      -0.25000000      -0.08333333       0.41666667 </v>
   <v>      -0.41666667      -0.08333333      -0.25000000 </v>
   <v>       0.50000000       0.25000000       0.08333333 </v>
   <v>      -0.25000000       0.50000000       0.08333333 </v>
   <v>       0.50000000       0.08333333       0.25000000 </v>
   <v>       0.50000000      -0.25000000       0.08333333 </v>
   <v>       0.33333333       0.33333333       0.08333333 </v>
   <v>      -0.33333333       0.33333333       0.08333333 </v>
   <v>      -0.33333333       0.08333333       0.33333333 </v>
   <v>      -0.08333333       0.33333333       0.33333333 </v>
   <v>       0.41666667       0.33333333       0.08333333 </v>
   <v>      -0.33333333       0.41666667       0.08333333 </v>
   <v>      -0.41666667       0.08333333       0.33333333 </v>
   <v>      -0.08333333       0.33333333       0.41666667 </v>
   <v>      -0.41666667      -0.33333333       0.08333333 </v>
   <v>      -0.08333333      -0.41666667       0.33333333 </v>
   <v>      -0.33333333      -0.08333333       0.41666667 </v>
   <v>      -0.41666667      -0.08333333      -0.33333333 </v>
   <v>       0.50000000       0.33333333       0.08333333 </v>
   <v>      -0.33333333       0.50000000       0.08333333 </v>
   <v>       0.50000000       0.08333333       0.33333333 </v>
   <v>       0.50000000      -0.33333333       0.08333333 </v>
   <v>       0.41666667       0.41666667       0.08333333 </v>
   <v>      -0.41666667       0.41666667       0.08333333 </v>
   <v>      -0.41666667       0.08333333       0.41666667 </v>
   <v>      -0.08333333       0.41666667       0.41666667 </v>
   <v>       0.50000000       0.41666667       0.08333333 </v>
   <v>      -0.41666667       0.50000000       0.08333333 </v>
   <v>       0.50000000       0.08333333       0.41666667 </v>
   <v>       0.50000000      -0.41666667       0.08333333 </v>
   <v>       0.50000000       0.50000000       0.08333333 </v>
   <v>       0.16666667       0.16666667       0.16666667 </v>
   <v>      -0.16666667       0.16666667       0.16666667 </v>
   <v>       0.25000000       0.16666667       0.16666667 </v>
   <v>      -0.16666667       0.25000000       0.16666667 </v>
   <v>      -0.25000000       0.16666667       0.16666667 </v>
   <v>      -0.16666667       0.16666667       0.25000000 </v>
   <v>       0.33333333       0.16666667       0.16666667 </v>
   <v>      -0.16666667       0.33333333       0.16666667 </v>
   <v>      -0.33333333       0.16666667       0.16666667 </v>
   <v>      -0.16666667       0.16666667       0.33333333 </v>
   <v>       0.41666667       0.16666667       0.16666667 </v>
   <v>      -0.16666667       0.41666667       0.16666667 </v>
   <v>      -0.41666667       0.16666667       0.16666667 </v>
   <v>      -0.16666667       0.16666667       0.41666667 </v>
   <v>       0.50000000       0.16666667       0.16666667 </v>
   <v>      -0.16666667       0.50000000       0.16666667 </v>
   <v>       0.25000000       0.25000000       0.16666667 </v>
   <v>      -0.25000000       0.25000000       0.16666667 </v>
   <v>      -0.25000000       0.16666667       0.25000000 </v>
   <v>      -0.16666667       0.25000000       0.25000000 </v>
   <v>       0.33333333       0.25000000       0.16666667 </v>
   <v>      -0.25000000       0.33333333       0.16666667 </v>
   <v>      -0.33333333       0.16666667       0.25000000 </v>
   <v>      -0.16666667       0.25000000       0.33333333 </v>
   <v>      -0.33333333      -0.25000000       0.16666667 </v>
   <v>      -0.16666667      -0.33333333       0.25000000 </v>
   <v>      -0.25000000      -0.16666667       0.33333333 </v>
   <v>      -0.33333333      -0.16666667      -0.25000000 </v>
   <v>       0.41666667       0.25000000       0.16666667 </v>
   <v>      -0.25000000       0.41666667       0.16666667 </v>
   <v>      -0.41666667       0.16666667       0.25000000 </v>
   <v>      -0.16666667       0.25000000       0.41666667 </v>
   <v>      -0.41666667      -0.25000000       0.16666667 </v>
   <v>      -0.16666667      -0.41666667       0.25000000 </v>
   <v>      -0.25000000      -0.16666667       0.41666667 </v>
   <v>      -0.41666667      -0.16666667      -0.25000000 </v>
   <v>       0.50000000       0.25000000       0.16666667 </v>
   <v>      -0.25000000       0.50000000       0.16666667 </v>
   <v>       0.50000000       0.16666667       0.25000000 </v>
   <v>       0.50000000      -0.25000000       0.16666667 </v>
   <v>       0.33333333       0.33333333       0.16666667 </v>
   <v>      -0.33333333       0.33333333       0.16666667 </v>
   <v>      -0.33333333       0.16666667       0.33333333 </v>
   <v>      -0.16666667       0.33333333       0.33333333 </v>
   <v>       0.41666667       0.33333333       0.16666667 </v>
   <v>      -0.33333333       0.41666667       0.16666667 </v>
   <v>      -0.41666667       0.16666667       0.33333333 </v>
   <v>      -0.16666667       0.33333333       0.41666667 </v>
   <v>      -0.41666667      -0.33333333       0.16666667 </v>
   <v>      -0.16666667      -0.41666667       0.33333333 </v>
   <v>      -0.33333333      -0.16666667       0.41666667 </v>
   <v>      -0.41666667      -0.16666667      -0.33333333 </v>
   <v>       0.50000000       0.33333333       0.16666667 </v>
   <v>      -0.33333333       0.50000000       0.16666667 </v>
   <v>       0.50000000       0.16666667       0.33333333 </v>
   <v>       0.50000000      -0.33333333       0.16666667 </v>
   <v>       0.41666667       0.41666667       0.16666667 </v>
   <v>      -0.41666667       0.41666667       0.16666667 </v>
   <v>      -0.41666667       0.16666667       0.41666667 </v>
   <v>      -0.16666667       0.41666667       0.41666667 </v>
   <v>       0.50000000       0.41666667       0.16666667 </v>
   <v>      -0.41666667       0.50000000       0.16666667 </v>
   <v>       0.50000000       0.16666667       0.41666667 </v>
   <v>       0.50000000      -0.41666667       0.16666667 </v>
   <v>       0.50000000       0.50000000       0.16666667 </v>
   <v>       0.25000000       0.25000000       0.25000000 </v>
   <v>      -0.25000000       0.25000000       0.25000000 </v>
   <v>       0.33333333       0.25000000       0.25000000 </v>
   <v>      -0.25000000       0.33333333       0.25000000 </v>
   <v>      -0.33333333       0.25000000       0.25000000 </v>
   <v>      -0.25000000       0.25000000       0.33333333 </v>
   <v>       0.41666667       0.25000000       0.25000000 </v>
   <v>      -0.25000000       0.41666667       0.25000000 </v>
   <v>      -0.41666667       0.25000000       0.25000000 </v>
   <v>      -0.25000000       0.25000000       0.41666667 </v>
   <v>       0.50000000       0.25000000       0.25000000 </v>
   <v>      -0.25000000       0.50000000       0.25000000 </v>
   <v>       0.33333333       0.33333333       0.25000000 </v>
   <v>      -0.33333333       0.33333333       0.25000000 </v>
   <v>      -0.33333333       0.25000000       0.33333333 </v>
   <v>      -0.25000000       0.33333333       0.33333333 </v>
   <v>       0.41666667       0.33333333       0.25000000 </v>
   <v>      -0.33333333       0.41666667       0.25000000 </v>
   <v>      -0.41666667       0.25000000       0.33333333 </v>
   <v>      -0.25000000       0.33333333       0.41666667 </v>
   <v>      -0.41666667      -0.33333333       0.25000000 </v>
   <v>      -0.25000000      -0.41666667       0.33333333 </v>
   <v>      -0.33333333      -0.25000000       0.41666667 </v>
   <v>      -0.41666667      -0.25000000      -0.33333333 </v>
   <v>       0.50000000       0.33333333       0.25000000 </v>
   <v>      -0.33333333       0.50000000       0.25000000 </v>
   <v>       0.50000000       0.25000000       0.33333333 </v>
   <v>       0.50000000      -0.33333333       0.25000000 </v>
   <v>       0.41666667       0.41666667       0.25000000 </v>
   <v>      -0.41666667       0.41666667       0.25000000 </v>
   <v>      -0.41666667       0.25000000       0.41666667 </v>
   <v>      -0.25000000       0.41666667       0.41666667 </v>
   <v>       0.50000000       0.41666667       0.25000000 </v>
   <v>      -0.41666667       0.50000000       0.25000000 </v>
   <v>       0.50000000       0.25000000       0.41666667 </v>
   <v>       0.50000000      -0.41666667       0.25000000 </v>
   <v>       0.50000000       0.50000000       0.25000000 </v>
   <v>       0.33333333       0.33333333       0.33333333 </v>
   <v>      -0.33333333       0.33333333       0.33333333 </v>
   <v>       0.41666667       0.33333333       0.33333333 </v>
   <v>      -0.33333333       0.41666667       0.33333333 </v>
   <v>      -0.41666667       0.33333333       0.33333333 </v>
   <v>      -0.33333333       0.33333333       0.41666667 </v>
   <v>       0.50000000       0.33333333       0.33333333 </v>
   <v>      -0.33333333       0.50000000       0.33333333 </v>
   <v>       0.41666667       0.41666667       0.33333333 </v>
   <v>      -0.41666667       0.41666667       0.33333333 </v>
   <v>      -0.41666667       0.33333333       0.41666667 </v>
   <v>      -0.33333333       0.41666667       0.41666667 </v>
   <v>       0.50000000       0.41666667       0.33333333 </v>
   <v>      -0.41666667       0.50000000       0.33333333 </v>
   <v>       0.50000000       0.33333333       0.41666667 </v>
   <v>       0.50000000      -0.41666667       0.33333333 </v>
   <v>       0.50000000       0.50000000       0.33333333 </v>
   <v>       0.41666667       0.41666667       0.41666667 </v>
   <v>      -0.41666667       0.41666667       0.41666667 </v>
   <v>       0.50000000       0.41666667       0.41666667 </v>
   <v>      -0.41666667       0.50000000       0.41666667 </v>
   <v>       0.50000000       0.50000000       0.41666667 </v>
   <v>       0.50000000       0.50000000       0.50000000 </v>
  </varray>
  <varray name="weights" >
   <v>       0.00057870 </v>
   <v>       0.00347222 </v>
   <v>       0.00347222 </v>
   <v>       0.00347222 </v>
   <v>       0.00347222 </v>
   <v>       0.00347222 </v>
   <v>       0.00173611 </v>
   <v>       0.00347222 </v>
   <v>       0.00347222 </v>
   <v>       0.00347222 </v>
   <v>       0.00347222 </v>
   <v>       0.00347222 </v>
   <v>       0.00347222 </v>
   <v>       0.00347222 </v>
   <v>       0.00347222 </v>
   <v>       0.00347222 </v>
   <v>       0.00347222 </v>
   <v>       0.00347222 </v>
   <v>       0.00347222 </v>
   <v>       0.00347222 </v>
   <v>       0.00347222 </v>
   <v>       0.00347222 </v>
   <v>       0.00347222 </v>
   <v>       0.00347222 </v>
   <v>       0.00347222 </v>
   <v>       0.00347222 </v>
   <v>       0.00347222 </v>
   <v>       0.00347222 </v>
   <v>       0.00347222 </v>
   <v>       0.00347222 </v>
   <v>       0.00347222 </v>
   <v>       0.00347222 </v>
   <v>       0.00347222 </v>
   <v>       0.00347222 </v>
   <v>       0.00347222 </v>
   <v>       0.00347222 </v>
   <v>       0.00347222 </v>
   <v>       0.00347222 </v>
   <v>       0.00347222 </v>
   <v>       0.00347222 </v>
   <v>       0.00347222 </v>
   <v>       0.00347222 </v>
   <v>       0.00347222 </v>
   <v>       0.00347222 </v>
   <v>       0.00347222 </v>
   <v>       0.00347222 </v>
   <v>       0.00347222 </v>
   <v>       0.00347222 </v>
   <v>       0.00347222 </v>
   <v>       0.00347222 </v>
   <v>       0.00347222 </v>
   <v>       0.00347222 </v>
   <v>       0.00347222 </v>
   <v>       0.00347222 </v>
   <v>       0.00347222 </v>
   <v>       0.00347222 </v>
   <v>       0.00347222 </v>
   <v>       0.00347222 </v>
   <v>       0.00347222 </v>
   <v>       0.00347222 </v>
   <v>       0.00347222 </v>
   <v>       0.00347222 </v>
   <v>       0.00347222 </v>
   <v>       0.00347222 </v>
   <v>       0.00347222 </v>
   <v>       0.00347222 </v>
   <v>       0.00347222 </v>
   <v>       0.00173611 </v>
   <v>       0.00115741 </v>
   <v>       0.00347222 </v>
   <v>       0.00347222 </v>
   <v>       0.00347222 </v>
   <v>       0.00347222 </v>
   <v>       0.00347222 </v>
   <v>       0.00347222 </v>
   <v>       0.00347222 </v>
   <v>       0.00347222 </v>
   <v>       0.00347222 </v>
   <v>       0.00347222 </v>
   <v>       0.00347222 </v>
   <v>       0.00347222 </v>
   <v>       0.00347222 </v>
   <v>       0.00347222 </v>
   <v>       0.00347222 </v>
   <v>       0.00347222 </v>
   <v>       0.00347222 </v>
   <v>       0.00347222 </v>
   <v>       0.00347222 </v>
   <v>       0.00347222 </v>
   <v>       0.00347222 </v>
   <v>       0.00347222 </v>
   <v>       0.00347222 </v>
   <v>       0.00347222 </v>
   <v>       0.00347222 </v>
   <v>       0.00347222 </v>
   <v>       0.00347222 </v>
   <v>       0.00347222 </v>
   <v>       0.00347222 </v>
   <v>       0.00347222 </v>
   <v>       0.00347222 </v>
   <v>       0.00347222 </v>
   <v>       0.00347222 </v>
   <v>       0.00347222 </v>
   <v>       0.00347222 </v>
   <v>       0.00347222 </v>
   <v>       0.00347222 </v>
   <v>       0.00347222 </v>
   <v>       0.00347222 </v>
   <v>       0.00347222 </v>
   <v>       0.00347222 </v>
   <v>       0.00347222 </v>
   <v>       0.00347222 </v>
   <v>       0.00347222 </v>
   <v>       0.00347222 </v>
   <v>       0.00347222 </v>
   <v>       0.00347222 </v>
   <v>       0.00347222 </v>
   <v>       0.00347222 </v>
   <v>       0.00347222 </v>
   <v>       0.00347222 </v>
   <v>       0.00347222 </v>
   <v>       0.00347222 </v>
   <v>       0.00347222 </v>
   <v>       0.00347222 </v>
   <v>       0.00347222 </v>
   <v>       0.00347222 </v>
   <v>       0.00347222 </v>
   <v>       0.00347222 </v>
   <v>       0.00347222 </v>
   <v>       0.00347222 </v>
   <v>       0.00347222 </v>
   <v>       0.00347222 </v>
   <v>       0.00347222 </v>
   <v>       0.00347222 </v>
   <v>       0.00347222 </v>
   <v>       0.00347222 </v>
   <v>       0.00347222 </v>
   <v>       0.00347222 </v>
   <v>       0.00347222 </v>
   <v>       0.00347222 </v>
   <v>       0.00347222 </v>
   <v>       0.00347222 </v>
   <v>       0.00347222 </v>
   <v>       0.00347222 </v>
   <v>       0.00347222 </v>
   <v>       0.00347222 </v>
   <v>       0.00347222 </v>
   <v>       0.00347222 </v>
   <v>       0.00347222 </v>
   <v>       0.00347222 </v>
   <v>       0.00347222 </v>
   <v>       0.00347222 </v>
   <v>       0.00347222 </v>
   <v>       0.00347222 </v>
   <v>       0.00347222 </v>
   <v>       0.00347222 </v>
   <v>       0.00347222 </v>
   <v>       0.00347222 </v>
   <v>       0.00347222 </v>
   <v>       0.00347222 </v>
   <v>       0.00347222 </v>
   <v>       0.00347222 </v>
   <v>       0.00347222 </v>
   <v>       0.00347222 </v>
   <v>       0.00347222 </v>
   <v>       0.00347222 </v>
   <v>       0.00347222 </v>
   <v>       0.00347222 </v>
   <v>       0.00347222 </v>
   <v>       0.00115741 </v>
   <v>       0.00347222 </v>
   <v>       0.00347222 </v>
   <v>       0.00347222 </v>
   <v>       0.00347222 </v>
   <v>       0.00347222 </v>
   <v>       0.00347222 </v>
   <v>       0.00347222 </v>
   <v>       0.00347222 </v>
   <v>       0.00347222 </v>
   <v>       0.00347222 </v>
   <v>       0.00347222 </v>
   <v>       0.00347222 </v>
   <v>       0.00347222 </v>
   <v>       0.00347222 </v>
   <v>       0.00347222 </v>
   <v>       0.00347222 </v>
   <v>       0.00347222 </v>
   <v>       0.00347222 </v>
   <v>       0.00347222 </v>
   <v>       0.00347222 </v>
   <v>       0.00347222 </v>
   <v>       0.00347222 </v>
   <v>       0.00347222 </v>
   <v>       0.00347222 </v>
   <v>       0.00347222 </v>
   <v>       0.00347222 </v>
   <v>       0.00347222 </v>
   <v>       0.00347222 </v>
   <v>       0.00347222 </v>
   <v>       0.00347222 </v>
   <v>       0.00347222 </v>
   <v>       0.00347222 </v>
   <v>       0.00347222 </v>
   <v>       0.00347222 </v>
   <v>       0.00347222 </v>
   <v>       0.00347222 </v>
   <v>       0.00347222 </v>
   <v>       0.00347222 </v>
   <v>       0.00347222 </v>
   <v>       0.00347222 </v>
   <v>       0.00347222 </v>
   <v>       0.00347222 </v>
   <v>       0.00347222 </v>
   <v>       0.00347222 </v>
   <v>       0.00347222 </v>
   <v>       0.00347222 </v>
   <v>       0.00347222 </v>
   <v>       0.00347222 </v>
   <v>       0.00347222 </v>
   <v>       0.00347222 </v>
   <v>       0.00347222 </v>
   <v>       0.00347222 </v>
   <v>       0.00347222 </v>
   <v>       0.00347222 </v>
   <v>       0.00347222 </v>
   <v>       0.00347222 </v>
   <v>       0.00347222 </v>
   <v>       0.00347222 </v>
   <v>       0.00347222 </v>
   <v>       0.00347222 </v>
   <v>       0.00347222 </v>
   <v>       0.00347222 </v>
   <v>       0.00347222 </v>
   <v>       0.00347222 </v>
   <v>       0.00115741 </v>
   <v>       0.00347222 </v>
   <v>       0.00347222 </v>
   <v>       0.00347222 </v>
   <v>       0.00347222 </v>
   <v>       0.00347222 </v>
   <v>       0.00347222 </v>
   <v>       0.00347222 </v>
   <v>       0.00347222 </v>
   <v>       0.00347222 </v>
   <v>       0.00347222 </v>
   <v>       0.00347222 </v>
   <v>       0.00347222 </v>
   <v>       0.00347222 </v>
   <v>       0.00347222 </v>
   <v>       0.00347222 </v>
   <v>       0.00347222 </v>
   <v>       0.00347222 </v>
   <v>       0.00347222 </v>
   <v>       0.00347222 </v>
   <v>       0.00347222 </v>
   <v>       0.00347222 </v>
   <v>       0.00347222 </v>
   <v>       0.00347222 </v>
   <v>       0.00347222 </v>
   <v>       0.00347222 </v>
   <v>       0.00347222 </v>
   <v>       0.00347222 </v>
   <v>       0.00347222 </v>
   <v>       0.00347222 </v>
   <v>       0.00347222 </v>
   <v>       0.00347222 </v>
   <v>       0.00347222 </v>
   <v>       0.00347222 </v>
   <v>       0.00347222 </v>
   <v>       0.00347222 </v>
   <v>       0.00347222 </v>
   <v>       0.00115741 </v>
   <v>       0.00347222 </v>
   <v>       0.00347222 </v>
   <v>       0.00347222 </v>
   <v>       0.00347222 </v>
   <v>       0.00347222 </v>
   <v>       0.00347222 </v>
   <v>       0.00347222 </v>
   <v>       0.00347222 </v>
   <v>       0.00347222 </v>
   <v>       0.00347222 </v>
   <v>       0.00347222 </v>
   <v>       0.00347222 </v>
   <v>       0.00347222 </v>
   <v>       0.00347222 </v>
   <v>       0.00347222 </v>
   <v>       0.00347222 </v>
   <v>       0.00115741 </v>
   <v>       0.00347222 </v>
   <v>       0.00347222 </v>
   <v>       0.00347222 </v>
   <v>       0.00347222 </v>
   <v>       0.00057870 </v>
  </varray>
 </kpoints>
 <parameters>
  <separator name="general" >
   <i type="string" name="SYSTEM">Au</i>
   <i type="logical" name="LCOMPAT"> F  </i>
  </separator>
  <separator name="electronic" >
   <i type="string" name="PREC">normal</i>
   <i name="ENMAX">    298.92590000</i>
   <i name="ENAUG">    356.67000000</i>
   <i name="EDIFF">      0.00010000</i>
   <i type="int" name="IALGO">    38</i>
   <i type="int" name="IWAVPR">    10</i>
   <i type="int" name="NBANDS">    96</i>
   <i type="int" name="NBANDSLOW">    -1</i>
   <i type="int" name="NBANDSHIGH">    -1</i>
   <i name="NELECT">     44.00000000</i>
   <i type="int" name="TURBO">     0</i>
   <i type="int" name="IRESTART">     0</i>
   <i type="int" name="NREBOOT">     0</i>
   <i type="int" name="NMIN">     0</i>
   <i name="EREF">      0.00000000</i>
   <separator name="electronic smearing" >
    <i type="int" name="ISMEAR">     0</i>
    <i name="SIGMA">      0.05000000</i>
    <i name="KSPACING">      0.50000000</i>
    <i type="logical" name="KGAMMA"> T  </i>
    <i type="logical" name="KBLOWUP"> T  </i>
   </separator>
   <separator name="electronic projectors" >
    <i type="logical" name="LREAL"> F  </i>
    <v name="ROPT">      0.00000000</v>
    <i type="int" name="LMAXPAW">  -100</i>
    <i type="int" name="LMAXMIX">     2</i>
    <i type="logical" name="NLSPLINE"> F  </i>
   </separator>
   <separator name="electronic startup" >
    <i type="int" name="ISTART">     1</i>
    <i type="int" name="ICHARG">     0</i>
    <i type="int" name="INIWAV">     1</i>
   </separator>
   <separator name="electronic spin" >
    <i type="int" name="ISPIN">     1</i>
    <i type="logical" name="LNONCOLLINEAR"> T  </i>
    <v name="MAGMOM">      1.00000000      1.00000000      1.00000000      1.00000000      1.00000000      1.00000000      1.00000000      1.00000000      1.00000000      1.00000000      1.00000000      1.00000000</v>
    <i name="NUPDOWN">     -1.00000000</i>
    <i type="logical" name="LSORBIT"> T  </i>
    <v name="SAXIS">      0.00000000      0.00000000      1.00000000</v>
    <i type="logical" name="LSPIRAL"> F  </i>
    <v name="QSPIRAL">      0.00000000      0.00000000      0.00000000</v>
    <i type="logical" name="LZEROZ"> F  </i>
   </separator>
   <separator name="electronic exchange-correlation" >
    <i type="logical" name="LASPH"> F  </i>
   </separator>
   <separator name="electronic convergence" >
    <i type="int" name="NELM">    60</i>
    <i type="int" name="NELMDL">     0</i>
    <i type="int" name="NELMIN">     2</i>
    <i name="ENINI">    298.92590000</i>
    <separator name="electronic convergence detail" >
     <i type="logical" name="LDIAG"> T  </i>
     <i type="logical" name="LSUBROT"> F  </i>
     <i name="WEIMIN">      0.00000000</i>
     <i name="EBREAK">      0.00000026</i>
     <i name="DEPER">      0.30000000</i>
     <i type="int" name="NRMM">     4</i>
     <i name="TIME">      0.40000000</i>
    </separator>
   </separator>
   <separator name="electronic mixer" >
    <i name="AMIX">      0.40000000</i>
    <i name="BMIX">      1.00000000</i>
    <i name="AMIN">      0.10000000</i>
    <i name="AMIX_MAG">      1.60000000</i>
    <i name="BMIX_MAG">      1.00000000</i>
    <separator name="electronic mixer details" >
     <i type="int" name="IMIX">     4</i>
     <i type="logical" name="MIXFIRST"> F  </i>
     <i type="int" name="MAXMIX">   -45</i>
     <i name="WC">    100.00000000</i>
     <i type="int" name="INIMIX">     1</i>
     <i type="int" name="MIXPRE">     1</i>
     <i type="int" name="MREMOVE">     5</i>
    </separator>
   </separator>
   <separator name="electronic dipolcorrection" >
    <i type="logical" name="LDIPOL"> F  </i>
    <i type="logical" name="LMONO"> F  </i>
    <i type="int" name="IDIPOL">     0</i>
    <i name="EPSILON">      1.00000000</i>
    <v name="DIPOL">   -100.00000000   -100.00000000   -100.00000000</v>
    <i name="EFIELD">      0.00000000</i>
    <i type="logical" name="LVACPOTAV"> F  </i>
   </separator>
  </separator>
  <separator name="grids" >
   <i type="int" name="NGX">    18</i>
   <i type="int" name="NGY">    18</i>
   <i type="int" name="NGZ">    18</i>
   <i type="int" name="NGXF">    36</i>
   <i type="int" name="NGYF">    36</i>
   <i type="int" name="NGZF">    36</i>
   <i type="logical" name="ADDGRID"> F  </i>
  </separator>
  <separator name="ionic" >
   <i type="int" name="NSW">     0</i>
   <i type="int" name="IBRION">    -1</i>
   <i type="int" name="MDALGO">     0</i>
   <i type="int" name="ISIF">     2</i>
   <i name="PSTRESS">      0.00000000</i>
   <i name="EDIFFG">      0.00100000</i>
   <i type="int" name="NFREE">     0</i>
   <i name="POTIM">      0.50000000</i>
   <i name="SMASS">     -3.00000000</i>
   <i name="SCALEE">      1.00000000</i>
  </separator>
  <separator name="ionic md" >
   <i name="TEBEG">      0.00010000</i>
   <i name="TEEND">      0.00010000</i>
   <i type="int" name="NBLOCK">     1</i>
   <i type="int" name="KBLOCK">     1</i>
   <i type="int" name="NPACO">   256</i>
   <i name="APACO">     10.00000000</i>
  </separator>
  <separator name="symmetry" >
   <i type="int" name="ISYM">     2</i>
   <i name="SYMPREC">      0.00001000</i>
  </separator>
  <separator name="dos" >
   <i type="int" name="LORBIT">     0</i>
   <v name="RWIGS">     -1.00000000</v>
   <i type="int" name="NEDOS">   301</i>
   <i name="EMIN">     10.00000000</i>
   <i name="EMAX">    -10.00000000</i>
   <i name="EFERMI">      0.00000000</i>
  </separator>
  <separator name="writing" >
   <i type="int" name="NWRITE">     2</i>
   <i type="logical" name="LWAVE"> T  </i>
   <i type="logical" name="LDOWNSAMPLE"> F  </i>
   <i type="logical" name="LCHARG"> T  </i>
   <i type="logical" name="LPARD"> F  </i>
   <i type="logical" name="LVTOT"> F  </i>
   <i type="logical" name="LVHAR"> F  </i>
   <i type="logical" name="LELF"> F  </i>
   <i type="logical" name="LOPTICS"> F  </i>
   <v name="STM">      0.00000000      0.00000000      0.00000000      0.00000000      0.00000000      0.00000000      0.00000000</v>
  </separator>
  <separator name="performance" >
   <i type="int" name="NPAR">    48</i>
   <i type="int" name="NSIM">     4</i>
   <i type="int" name="NBLK">    -1</i>
   <i type="logical" name="LPLANE"> T  </i>
   <i type="logical" name="LSCALAPACK"> T  </i>
   <i type="logical" name="LSCAAWARE"> T  </i>
   <i type="logical" name="LSCALU"> F  </i>
   <i type="logical" name="LASYNC"> F  </i>
   <i type="logical" name="LORBITALREAL"> F  </i>
  </separator>
  <separator name="miscellaneous" >
   <i type="int" name="IDIOT">     3</i>
   <i type="int" name="PHON_NSTRUCT">    -1</i>
   <i type="logical" name="LMUSIC"> F  </i>
   <v name="POMASS">    196.96600000</v>
   <v name="DARWINR">      0.00000000</v>
   <v name="DARWINV">      1.00000000</v>
   <i type="logical" name="LCORR"> T  </i>
  </separator>
  <i type="logical" name="GGA_COMPAT"> T  </i>
  <i type="logical" name="LBERRY"> F  </i>
  <i type="int" name="ICORELEVEL">     0</i>
  <i type="logical" name="LDAU"> F  </i>
  <i type="int" name="I_CONSTRAINED_M">     0</i>
  <separator name="electronic exchange-correlation" >
   <i type="string" name="GGA    ">PE</i>
   <i type="string" name="XC_C">1</i>
   <i type="int" name="VOSKOWN">     0</i>
   <i type="logical" name="LHFCALC"> F  </i>
   <i type="string" name="PRECFOCK"></i>
   <i type="logical" name="LSYMGRAD"> F  </i>
   <i type="logical" name="LHFONE"> F  </i>
   <i type="logical" name="LRHFCALC"> F  </i>
   <i type="logical" name="LTHOMAS"> F  </i>
   <i type="logical" name="LMODELHF"> F  </i>
   <i type="logical" name="LFOCKACE"> F  </i>
   <i name="ENCUT4O">     -1.00000000</i>
   <i type="int" name="EXXOEP">     0</i>
   <i type="int" name="FOURORBIT">     0</i>
   <i name="AEXX">      0.00000000</i>
   <i name="HFALPHA">      0.00000000</i>
   <i name="MCALPHA">      0.00000000</i>
   <i name="ALDAX">      1.00000000</i>
   <i name="AGGAX">      1.00000000</i>
   <i name="AMGGAX">      1.00000000</i>
   <i name="ALDAC">      1.00000000</i>
   <i name="AGGAC">      1.00000000</i>
   <i name="AMGGAC">      1.00000000</i>
   <i type="int" name="NKREDX">     1</i>
   <i type="int" name="NKREDY">     1</i>
   <i type="int" name="NKREDZ">     1</i>
   <i type="logical" name="SHIFTRED"> F  </i>
   <i type="logical" name="ODDONLY"> F  </i>
   <i type="logical" name="EVENONLY"> F  </i>
   <i type="int" name="LMAXFOCK">     0</i>
   <i type="int" name="NMAXFOCKAE">     0</i>
   <i type="logical" name="LFOCKAEDFT"> F  </i>
   <i name="HFSCREEN">      0.00000000</i>
   <i name="HFSCREENC">      0.00000000</i>
   <i type="int" name="NBANDSGWLOW">     0</i>
  </separator>
  <separator name="vdW DFT" >
   <i type="logical" name="LUSE_VDW"> F  </i>
   <i type="int" name="IVDW_NL">    -1</i>
   <i type="logical" name="LSPIN_VDW"> F  </i>
   <i name="ZAB_VDW">     -0.84910000</i>
   <i name="GAMMA_VDW">      1.39626340</i>
   <i name="ALPHA_VDW">      0.00000000</i>
   <i name="PARAM1">      0.12340000</i>
   <i name="PARAM2">      1.00000000</i>
   <i name="BPARAM">      6.30000000</i>
   <i name="CPARAM">      0.00930000</i>
  </separator>
  <separator name="model GW" >
   <i type="int" name="MODEL_GW">     0</i>
   <i name="MODEL_EPS0">     10.90887102</i>
   <i name="MODEL_ALPHA">      1.00000000</i>
  </separator>
  <separator name="linear response parameters" >
   <i type="logical" name="LEPSILON"> F  </i>
   <i type="logical" name="LRPA"> F  </i>
   <i type="logical" name="LNABLA"> F  </i>
   <i type="logical" name="LVEL"> F  </i>
   <i name="CSHIFT">      0.10000000</i>
   <i name="OMEGAMAX">     -1.00000000</i>
   <i name="DEG_THRESHOLD">      0.00200000</i>
   <i name="RTIME">     -0.10000000</i>
   <i name="WPLASMAI">      0.00000000</i>
   <v name="DFIELD">      0.00000000      0.00000000      0.00000000</v>
   <v name="WPLASMA">      0.00000000      0.00000000      0.00000000      0.00000000      0.00000000      0.00000000      0.00000000      0.00000000      0.00000000</v>
  </separator>
  <separator name="orbital magnetization" >
   <i type="logical" name="NUCIND"> F  </i>
   <v name="MAGPOS">      0.00000000      0.00000000      0.00000000</v>
   <i type="logical" name="LNICSALL"> T  </i>
   <i type="logical" name="ORBITALMAG"> F  </i>
   <i type="logical" name="LMAGBLOCH"> F  </i>
   <i type="logical" name="LCHIMAG"> F  </i>
   <i type="logical" name="LGAUGE"> T  </i>
   <i type="int" name="MAGATOM">     0</i>
   <v name="MAGDIPOL">      0.00000000      0.00000000      0.00000000</v>
   <v name="AVECCONST">      0.00000000      0.00000000      0.00000000</v>
  </separator>
  <separator name="response functions" >
   <i type="logical" name="LALL_IN_ONE"> F  </i>
   <i type="int" name="IALL_IN_ONE">    -1</i>
   <i type="int" name="NBANDS_WAVE">    -1</i>
   <i type="logical" name="LFINITE_TEMPERATURE"> F  </i>
   <i type="logical" name="LADDER"> F  </i>
   <i type="logical" name="LRPAFORCE"> F  </i>
   <i type="logical" name="LFXC"> F  </i>
   <i type="logical" name="LHARTREE"> T  </i>
   <i type="int" name="IBSE">     0</i>
   <v type="int" name="KPOINT">    -1     0     0     0</v>
   <i type="logical" name="LTCTC"> F  </i>
   <i type="logical" name="LTCTE"> F  </i>
   <i type="logical" name="LTETE"> F  </i>
   <i type="logical" name="LTRIPLET"> F  </i>
   <i type="logical" name="LFXCEPS"> F  </i>
   <i type="logical" name="LFXHEG"> F  </i>
   <i type="int" name="NATURALO">     2</i>
   <i type="logical" name="LHOLEGF"> F  </i>
   <i type="logical" name="L2ORDER"> F  </i>
   <i type="logical" name="LDMP1"> F  </i>
   <i type="logical" name="LMP2LT"> F  </i>
   <i type="logical" name="LSMP2LT"> F  </i>
   <i type="logical" name="LGWLF"> F  </i>
   <i name="ENCUTGW">     -1.60000002</i>
   <i name="ENCUTGWSOFT">     -1.60000002</i>
   <i name="ENCUTLF">     -1.00000000</i>
   <i type="logical" name="ESF_SPLINES"> F  </i>
   <i name="ESF_CONV">      0.01000000</i>
   <i type="int" name="ESF_NINTER">    15</i>
   <i type="int" name="LMAXMP2">    -1</i>
   <i name="SCISSOR">      0.00000000</i>
   <i type="int" name="NOMEGA">     0</i>
   <i type="int" name="NOMEGAR">     0</i>
   <i type="int" name="NBANDSGW">    -1</i>
   <i type="int" name="NBANDSO">    -1</i>
   <i type="int" name="NBANDSV">    -1</i>
   <i type="int" name="NELMGW">     1</i>
   <i type="int" name="NELMHF">     1</i>
   <i type="int" name="DIM">     3</i>
   <i type="int" name="IESPILON">     4</i>
   <i type="int" name="ANTIRES">     0</i>
   <i name="OMEGAMAX">    -30.00000000</i>
   <i name="OMEGAMIN">    -30.00000000</i>
   <i name="OMEGATL">   -200.00000000</i>
   <i type="int" name="OMEGAGRID">     0</i>
   <i name="CSHIFT">     -0.10000000</i>
   <i type="logical" name="LSELFENERGY"> F  </i>
   <i type="logical" name="LSPECTRAL"> F  </i>
   <i type="logical" name="LSPECTRALGW"> F  </i>
   <i type="logical" name="LSINGLES"> F  </i>
   <i type="logical" name="LFERMIGW"> F  </i>
   <i type="logical" name="ODDONLYGW"> F  </i>
   <i type="logical" name="EVENONLYGW"> F  </i>
   <i type="int" name="NKREDLFX">     1</i>
   <i type="int" name="NKREDLFY">     1</i>
   <i type="int" name="NKREDLFZ">     1</i>
   <i type="int" name="MAXMEM">  2800</i>
   <i type="int" name="TELESCOPE">     0</i>
   <i type="int" name="NTAUPAR">    -1</i>
   <i type="int" name="NOMEGAPAR">    -1</i>
   <i name="DAMP_NEWTON">      0.80000001</i>
   <i name="LAMBDA">      1.00000000</i>
  </separator>
  <separator name="External order field" >
   <i name="OFIELD_KAPPA">      0.00000000</i>
   <v name="OFIELD_K">      0.00000000      0.00000000      0.00000000</v>
   <i name="OFIELD_Q6_NEAR">      0.00000000</i>
   <i name="OFIELD_Q6_FAR">      0.00000000</i>
   <i name="OFIELD_A">      0.00000000</i>
  </separator>
  <separator name="optional k-points parameters" >
   <i type="int" name="KPOINTS_OPT_MODE">     1</i>
   <i type="logical" name="LKPOINTS_OPT"> T  </i>
  </separator>
 </parameters>
 <atominfo>
  <atoms>       4 </atoms>
  <types>       1 </types>
  <array name="atoms" >
   <dimension dim="1">ion</dimension>
   <field type="string">element</field>
   <field type="int">atomtype</field>
   <set>
    <rc><c>Au</c><c>   1</c></rc>
    <rc><c>Au</c><c>   1</c></rc>
    <rc><c>Au</c><c>   1</c></rc>
    <rc><c>Au</c><c>   1</c></rc>
   </set>
  </array>
  <array name="atomtypes" >
   <dimension dim="1">type</dimension>
   <field type="int">atomspertype</field>
   <field type="string">element</field>
   <field>mass</field>
   <field>valence</field>
   <field type="string">pseudopotential</field>
   <set>
    <rc><c>   4</c><c>Au</c><c>    196.96600000</c><c>     11.00000000</c><c>PAW_PBE Au 04Oct2007                    </c></rc>
   </set>
  </array>
 </atominfo>
 <structure name="initialpos" >
  <crystal>
   <varray name="basis" >
    <v>       4.17410000       0.00000000       0.00000000 </v>
    <v>       0.00000000       4.17410000       0.00000000 </v>
    <v>       0.00000000       0.00000000       4.17410000 </v>
   </varray>
   <i name="volume">     72.72580683 </i>
   <varray name="rec_basis" >
    <v>       0.23957260      -0.00000000       0.00000000 </v>
    <v>       0.00000000       0.23957260       0.00000000 </v>
    <v>      -0.00000000      -0.00000000       0.23957260 </v>
   </varray>
  </crystal>
  <varray name="positions" >
   <v>       0.00000000       0.00000000       0.00000000 </v>
   <v>       0.00000000       0.50000000       0.50000000 </v>
   <v>       0.50000000       0.00000000       0.50000000 </v>
   <v>       0.50000000       0.50000000       0.00000000 </v>
  </varray>
 </structure>
 <calculation>
  <scstep>
   <time name="dav">   11.84   11.84</time>
   <time name="total">   11.91   11.91</time>
   <energy>
    <i name="alphaZ">    256.26029620 </i>
    <i name="ewald">  -3827.67336174 </i>
    <i name="hartreedc">   -483.44194178 </i>
    <i name="XCdc">     59.67876430 </i>
    <i name="pawpsdc">   4107.24625447 </i>
    <i name="pawaedc">  -4025.04171571 </i>
    <i name="eentropy">     -0.00140825 </i>
    <i name="bandstr">    194.77554971 </i>
    <i name="atom">   3704.16255564 </i>
    <i name="e_fr_energy">    -14.03500718 </i>
    <i name="e_wo_entrp">    -14.03359892 </i>
    <i name="e_0_energy">    -14.03430305 </i>
   </energy>
  </scstep>
  <scstep>
   <time name="dav">   13.14   13.13</time>
   <time name="total">   13.15   13.15</time>
   <energy>
    <i name="alphaZ">    256.26029620 </i>
    <i name="ewald">  -3827.67336174 </i>
    <i name="hartreedc">   -483.44494082 </i>
    <i name="XCdc">     59.67888219 </i>
    <i name="pawpsdc">   4107.27577636 </i>
    <i name="pawaedc">  -4025.07084021 </i>
    <i name="eentropy">     -0.00140825 </i>
    <i name="bandstr">    194.77803338 </i>
    <i name="atom">   3704.16255564 </i>
    <i name="e_fr_energy">    -14.03500725 </i>
    <i name="e_wo_entrp">    -14.03359901 </i>
    <i name="e_0_energy">    -14.03430313 </i>
   </energy>
  </scstep>
  <structure>
   <crystal>
    <varray name="basis" >
     <v>       4.17410000       0.00000000       0.00000000 </v>
     <v>       0.00000000       4.17410000       0.00000000 </v>
     <v>       0.00000000       0.00000000       4.17410000 </v>
    </varray>
    <i name="volume">     72.72580683 </i>
    <varray name="rec_basis" >
     <v>       0.23957260      -0.00000000       0.00000000 </v>
     <v>       0.00000000       0.23957260       0.00000000 </v>
     <v>      -0.00000000      -0.00000000       0.23957260 </v>
    </varray>
   </crystal>
   <varray name="positions" >
    <v>       0.00000000       0.00000000       0.00000000 </v>
    <v>       0.00000000       0.50000000       0.50000000 </v>
    <v>       0.50000000       0.00000000       0.50000000 </v>
    <v>       0.50000000       0.50000000       0.00000000 </v>
   </varray>
  </structure>
  <varray name="forces" >
   <v>       0.00000000       0.00000000      -0.00000000 </v>
   <v>      -0.00000000      -0.00000000      -0.00000000 </v>
   <v>       0.00000000       0.00000000      -0.00000000 </v>
   <v>      -0.00000000      -0.00000000       0.00000000 </v>
  </varray>
  <varray name="stress" >
   <v>     -35.45227911      -0.00007777      -0.00007745 </v>
   <v>      -0.00007745     -35.45227911      -0.00007777 </v>
   <v>      -0.00007777      -0.00007745     -35.45227911 </v>
  </varray>
  <energy>
   <i name="e_fr_energy">    -14.03500725 </i>
   <i name="e_wo_entrp">    -14.03359901 </i>
   <i name="e_0_energy">    -14.03430313 </i>
  </energy>
  <dos comment="kpoints_opt">
   <i name="efermi">      8.31546123 </i>
   <total>
    <array>
     <dimension dim="1">gridpoints</dimension>
     <dimension dim="2">spin</dimension>
     <field>energy</field>
     <field>total</field>
     <field>integrated</field>
     <set>
      <set comment="spin 1">
       <r>    -2.5756     0.0000     0.0000 </r>
       <r>    -2.4428     0.0000     0.0000 </r>
       <r>    -2.3100     0.0000     0.0000 </r>
       <r>    -2.1773     0.0000     0.0000 </r>
       <r>    -2.0445     0.0000     0.0000 </r>
       <r>    -1.9118     0.0000     0.0000 </r>
       <r>    -1.7790     0.0000     0.0000 </r>
       <r>    -1.6463     0.0000     0.0000 </r>
       <r>    -1.5135     0.0000     0.0000 </r>
       <r>    -1.3807     0.0000     0.0000 </r>
       <r>    -1.2480     0.0000     0.0000 </r>
       <r>    -1.1152     0.0000     0.0000 </r>
       <r>    -0.9825     0.0000     0.0000 </r>
       <r>    -0.8497     0.0039     0.0005 </r>
       <r>    -0.7170     0.8449     0.1127 </r>
       <r>    -0.5842     0.8332     0.2233 </r>
       <r>    -0.4515     0.5148     0.2916 </r>
       <r>    -0.3187     0.4151     0.3467 </r>
       <r>    -0.1859     0.3641     0.3951 </r>
       <r>    -0.0532     0.3229     0.4379 </r>
       <r>     0.0796     0.3026     0.4781 </r>
       <r>     0.2123     0.2868     0.5162 </r>
       <r>     0.3451     0.2753     0.5527 </r>
       <r>     0.4778     0.2544     0.5865 </r>
       <r>     0.6106     0.2523     0.6200 </r>
       <r>     0.7434     0.2440     0.6524 </r>
       <r>     0.8761     0.2361     0.6838 </r>
       <r>     1.0089     0.2435     0.7161 </r>
       <r>     1.1416     0.2492     0.7492 </r>
       <r>     1.2744     0.2489     0.7822 </r>
       <r>     1.4071     0.2540     0.8159 </r>
       <r>     1.5399     0.3584     0.8635 </r>
       <r>     1.6726     1.2528     1.0298 </r>
       <r>     1.8054     2.0644     1.3039 </r>
       <r>     1.9382     6.0798     2.1110 </r>
       <r>     2.0709     7.0858     3.0517 </r>
       <r>     2.2037    12.8253     4.7543 </r>
       <r>     2.3364    10.0719     6.0915 </r>
       <r>     2.4692     9.7766     7.3894 </r>
       <r>     2.6019     8.1018     8.4649 </r>
       <r>     2.7347     8.7918     9.6321 </r>
       <r>     2.8675     3.1744    10.0535 </r>
       <r>     3.0002     1.6540    10.2731 </r>
       <r>     3.1330     2.3831    10.5895 </r>
       <r>     3.2657    15.3609    12.6287 </r>
       <r>     3.3985    20.3250    15.3270 </r>
       <r>     3.5312     8.3616    16.4370 </r>
       <r>     3.6640     4.0859    16.9795 </r>
       <r>     3.7967     3.3561    17.4250 </r>
       <r>     3.9295     8.7974    18.5929 </r>
       <r>     4.0623     6.0273    19.3931 </r>
       <r>     4.1950     5.2523    20.0904 </r>
       <r>     4.3278     5.6318    20.8380 </r>
       <r>     4.4605     5.7128    21.5964 </r>
       <r>     4.5933     4.9456    22.2530 </r>
       <r>     4.7260     3.7458    22.7503 </r>
       <r>     4.8588     8.3975    23.8651 </r>
       <r>     4.9916    21.7545    26.7531 </r>
       <r>     5.1243     7.7852    27.7867 </r>
       <r>     5.2571     3.3908    28.2368 </r>
       <r>     5.3898     3.7889    28.7398 </r>
       <r>     5.5226     4.1888    29.2959 </r>
       <r>     5.6553     7.2598    30.2597 </r>
       <r>     5.7881    14.7102    32.2126 </r>
       <r>     5.9208     9.0901    33.4193 </r>
       <r>     6.0536     8.3356    34.5259 </r>
       <r>     6.1864    11.1521    36.0065 </r>
       <r>     6.3191    11.5518    37.5400 </r>
       <r>     6.4519     8.8617    38.7165 </r>
       <r>     6.5846     3.4149    39.1698 </r>
       <r>     6.7174     2.6956    39.5277 </r>
       <r>     6.8501     2.6074    39.8738 </r>
       <r>     6.9829     2.4835    40.2035 </r>
       <r>     7.1157     2.4133    40.5239 </r>
       <r>     7.2484     2.4809    40.8533 </r>
       <r>     7.3812     3.4340    41.3091 </r>
       <r>     7.5139     1.9078    41.5624 </r>
       <r>     7.6467     0.6754    41.6521 </r>
       <r>     7.7794     0.6619    41.7400 </r>
       <r>     7.9122     0.6966    41.8324 </r>
       <r>     8.0449     0.6519    41.9190 </r>
       <r>     8.1777     6.2353    42.7468 </r>
       <r>     8.3105     9.2419    43.9737 </r>
       <r>     8.4432     4.4182    44.5602 </r>
       <r>     8.5760     2.9089    44.9464 </r>
       <r>     8.7087     2.0396    45.2172 </r>
       <r>     8.8415     1.8322    45.4604 </r>
       <r>     8.9742     1.8490    45.7059 </r>
       <r>     9.1070     1.7070    45.9325 </r>
       <r>     9.2398     1.6908    46.1569 </r>
       <r>     9.3725     1.7878    46.3943 </r>
       <r>     9.5053     2.8072    46.7670 </r>
       <r>     9.6380     0.9944    46.8990 </r>
       <r>     9.7708     0.7515    46.9987 </r>
       <r>     9.9035     0.6212    47.0812 </r>
       <r>    10.0363     0.6837    47.1720 </r>
       <r>    10.1690     0.5455    47.2444 </r>
       <r>    10.3018     0.7123    47.3390 </r>
       <r>    10.4346     0.7398    47.4372 </r>
       <r>    10.5673     0.3682    47.4861 </r>
       <r>    10.7001     0.3163    47.5281 </r>
       <r>    10.8328     0.3221    47.5708 </r>
       <r>    10.9656     0.3872    47.6222 </r>
       <r>    11.0983     0.3144    47.6639 </r>
       <r>    11.2311     0.4833    47.7281 </r>
       <r>    11.3639     0.7044    47.8216 </r>
       <r>    11.4966     0.7474    47.9208 </r>
       <r>    11.6294     0.6233    48.0036 </r>
       <r>    11.7621     0.3016    48.0436 </r>
       <r>    11.8949     0.3933    48.0958 </r>
       <r>    12.0276     0.3380    48.1407 </r>
       <r>    12.1604     0.4913    48.2059 </r>
       <r>    12.2931     0.4345    48.2636 </r>
       <r>    12.4259     0.5579    48.3377 </r>
       <r>    12.5587     0.3970    48.3904 </r>
       <r>    12.6914     0.6504    48.4767 </r>
       <r>    12.8242     0.6175    48.5587 </r>
       <r>    12.9569     0.5586    48.6329 </r>
       <r>    13.0897     0.6410    48.7180 </r>
       <r>    13.2224     0.8311    48.8283 </r>
       <r>    13.3552     1.5868    49.0390 </r>
       <r>    13.4880     1.5853    49.2494 </r>
       <r>    13.6207     1.8243    49.4916 </r>
       <r>    13.7535     3.5994    49.9695 </r>
       <r>    13.8862     1.8942    50.2209 </r>
       <r>    14.0190     1.5762    50.4302 </r>
       <r>    14.1517     1.4028    50.6164 </r>
       <r>    14.2845     1.3871    50.8006 </r>
       <r>    14.4172     1.3848    50.9844 </r>
       <r>    14.5500     1.2709    51.1531 </r>
       <r>    14.6828     1.2929    51.3248 </r>
       <r>    14.8155     1.3032    51.4978 </r>
       <r>    14.9483     1.2808    51.6678 </r>
       <r>    15.0810     1.4435    51.8594 </r>
       <r>    15.2138     1.5216    52.0614 </r>
       <r>    15.3465     2.3027    52.3671 </r>
       <r>    15.4793     2.4762    52.6958 </r>
       <r>    15.6121     1.2070    52.8561 </r>
       <r>    15.7448     1.2531    53.0224 </r>
       <r>    15.8776     1.2986    53.1948 </r>
       <r>    16.0103     2.2939    53.4994 </r>
       <r>    16.1431     2.1985    53.7912 </r>
       <r>    16.2758     2.2884    54.0950 </r>
       <r>    16.4086     4.4875    54.6908 </r>
       <r>    16.5413     4.9108    55.3427 </r>
       <r>    16.6741     0.7673    55.4446 </r>
       <r>    16.8069     0.4448    55.5036 </r>
       <r>    16.9396     0.4919    55.5689 </r>
       <r>    17.0724     0.4549    55.6293 </r>
       <r>    17.2051     0.4533    55.6895 </r>
       <r>    17.3379     0.5133    55.7576 </r>
       <r>    17.4706     0.5380    55.8291 </r>
       <r>    17.6034     2.1379    56.1129 </r>
       <r>    17.7362     3.5431    56.5833 </r>
       <r>    17.8689     1.5927    56.7947 </r>
       <r>    18.0017     1.3053    56.9680 </r>
       <r>    18.1344     2.1199    57.2494 </r>
       <r>    18.2672     5.9918    58.0449 </r>
       <r>    18.3999     3.6059    58.5236 </r>
       <r>    18.5327     1.1982    58.6826 </r>
       <r>    18.6654     1.1337    58.8332 </r>
       <r>    18.7982     1.2518    58.9993 </r>
       <r>    18.9310     5.5442    59.7354 </r>
       <r>    19.0637     3.8945    60.2524 </r>
       <r>    19.1965     2.3379    60.5628 </r>
       <r>    19.3292     1.7256    60.7919 </r>
       <r>    19.4620     1.7973    61.0305 </r>
       <r>    19.5947     1.6279    61.2466 </r>
       <r>    19.7275     1.5417    61.4512 </r>
       <r>    19.8603     1.5073    61.6513 </r>
       <r>    19.9930     1.5838    61.8616 </r>
       <r>    20.1258     1.5747    62.0707 </r>
       <r>    20.2585     1.5421    62.2754 </r>
       <r>    20.3913     1.7152    62.5031 </r>
       <r>    20.5240     1.4100    62.6903 </r>
       <r>    20.6568     1.6045    62.9033 </r>
       <r>    20.7896     1.3782    63.0862 </r>
       <r>    20.9223     1.5289    63.2892 </r>
       <r>    21.0551     1.4835    63.4861 </r>
       <r>    21.1878     1.3463    63.6649 </r>
       <r>    21.3206     1.5571    63.8716 </r>
       <r>    21.4533     1.4423    64.0631 </r>
       <r>    21.5861     1.8395    64.3073 </r>
       <r>    21.7188     1.4645    64.5017 </r>
       <r>    21.8516     0.8964    64.6207 </r>
       <r>    21.9844     0.6823    64.7113 </r>
       <r>    22.1171     0.7301    64.8082 </r>
       <r>    22.2499     0.8614    64.9226 </r>
       <r>    22.3826     0.6359    65.0070 </r>
       <r>    22.5154     0.9406    65.1319 </r>
       <r>    22.6481     1.5593    65.3389 </r>
       <r>    22.7809     2.1728    65.6273 </r>
       <r>    22.9137     1.6842    65.8509 </r>
       <r>    23.0464     2.2052    66.1437 </r>
       <r>    23.1792     2.8626    66.5237 </r>
       <r>    23.3119     2.1936    66.8149 </r>
       <r>    23.4447     2.4496    67.1401 </r>
       <r>    23.5774     2.1015    67.4191 </r>
       <r>    23.7102     1.8832    67.6691 </r>
       <r>    23.8429     2.7214    68.0304 </r>
       <r>    23.9757     3.2759    68.4653 </r>
       <r>    24.1085     2.1078    68.7451 </r>
       <r>    24.2412     2.6789    69.1007 </r>
       <r>    24.3740     2.5182    69.4351 </r>
       <r>    24.5067     4.2467    69.9988 </r>
       <r>    24.6395     4.7650    70.6314 </r>
       <r>    24.7722     4.8991    71.2818 </r>
       <r>    24.9050     1.8640    71.5293 </r>
       <r>    25.0378     3.5184    71.9963 </r>
       <r>    25.1705     3.1148    72.4099 </r>
       <r>    25.3033     2.6397    72.7603 </r>
       <r>    25.4360     2.7192    73.1213 </r>
       <r>    25.5688     2.7745    73.4896 </r>
       <r>    25.7015     3.5759    73.9643 </r>
       <r>    25.8343     4.6157    74.5771 </r>
       <r>    25.9670     3.0318    74.9796 </r>
       <r>    26.0998     4.8529    75.6238 </r>
       <r>    26.2326     6.0831    76.4314 </r>
       <r>    26.3653     5.3596    77.1429 </r>
       <r>    26.4981     1.3902    77.3275 </r>
       <r>    26.6308     1.1157    77.4756 </r>
       <r>    26.7636     1.1236    77.6248 </r>
       <r>    26.8963     1.3581    77.8050 </r>
       <r>    27.0291     2.6562    78.1577 </r>
       <r>    27.1619     1.4841    78.3547 </r>
       <r>    27.2946     1.4752    78.5505 </r>
       <r>    27.4274     5.0282    79.2181 </r>
       <r>    27.5601     5.1420    79.9007 </r>
       <r>    27.6929     3.3747    80.3487 </r>
       <r>    27.8256     2.0892    80.6261 </r>
       <r>    27.9584     2.1399    80.9102 </r>
       <r>    28.0911     1.7468    81.1421 </r>
       <r>    28.2239     1.2203    81.3041 </r>
       <r>    28.3567     1.2248    81.4667 </r>
       <r>    28.4894     1.4433    81.6583 </r>
       <r>    28.6222     0.9193    81.7803 </r>
       <r>    28.7549     0.7156    81.8753 </r>
       <r>    28.8877     0.6320    81.9592 </r>
       <r>    29.0204     0.9183    82.0811 </r>
       <r>    29.1532     1.1489    82.2337 </r>
       <r>    29.2860     1.7219    82.4623 </r>
       <r>    29.4187     2.5755    82.8042 </r>
       <r>    29.5515     1.8919    83.0553 </r>
       <r>    29.6842     2.3339    83.3652 </r>
       <r>    29.8170     4.0716    83.9057 </r>
       <r>    29.9497     2.5829    84.2486 </r>
       <r>    30.0825     1.6448    84.4670 </r>
       <r>    30.2152     1.8005    84.7060 </r>
       <r>    30.3480     1.8262    84.9484 </r>
       <r>    30.4808     1.2874    85.1193 </r>
       <r>    30.6135     1.6013    85.3319 </r>
       <r>    30.7463     2.5328    85.6682 </r>
       <r>    30.8790     1.9647    85.9290 </r>
       <r>    31.0118     1.4823    86.1258 </r>
       <r>    31.1445     1.6418    86.3437 </r>
       <r>    31.2773     1.4076    86.5306 </r>
       <r>    31.4101     1.9202    86.7855 </r>
       <r>    31.5428     2.1180    87.0667 </r>
       <r>    31.6756     2.0230    87.3353 </r>
       <r>    31.8083     2.0323    87.6051 </r>
       <r>    31.9411     2.0386    87.8757 </r>
       <r>    32.0738     1.2123    88.0366 </r>
       <r>    32.2066     1.0660    88.1782 </r>
       <r>    32.3393     1.1951    88.3368 </r>
       <r>    32.4721     0.9409    88.4617 </r>
       <r>    32.6049     1.2060    88.6218 </r>
       <r>    32.7376     1.3903    88.8064 </r>
       <r>    32.8704     2.0389    89.0771 </r>
       <r>    33.0031     2.7851    89.4468 </r>
       <r>    33.1359     4.2863    90.0159 </r>
       <r>    33.2686     6.1610    90.8338 </r>
       <r>    33.4014     9.6290    92.1121 </r>
       <r>    33.5342     8.7466    93.2733 </r>
       <r>    33.6669     4.0494    93.8108 </r>
       <r>    33.7997     2.7047    94.1699 </r>
       <r>    33.9324     1.2293    94.3331 </r>
       <r>    34.0652     0.9843    94.4638 </r>
       <r>    34.1979     1.1843    94.6210 </r>
       <r>    34.3307     0.9443    94.7463 </r>
       <r>    34.4634     0.8395    94.8578 </r>
       <r>    34.5962     0.8237    94.9672 </r>
       <r>    34.7290     0.9712    95.0961 </r>
       <r>    34.8617     0.8908    95.2143 </r>
       <r>    34.9945     0.9507    95.3405 </r>
       <r>    35.1272     1.4155    95.5285 </r>
       <r>    35.2600     1.3247    95.7043 </r>
       <r>    35.3927     1.1512    95.8571 </r>
       <r>    35.5255     1.0679    95.9989 </r>
       <r>    35.6583     0.0082    96.0000 </r>
       <r>    35.7910     0.0000    96.0000 </r>
       <r>    35.9238     0.0000    96.0000 </r>
       <r>    36.0565     0.0000    96.0000 </r>
       <r>    36.1893     0.0000    96.0000 </r>
       <r>    36.3220     0.0000    96.0000 </r>
       <r>    36.4548     0.0000    96.0000 </r>
       <r>    36.5875     0.0000    96.0000 </r>
       <r>    36.7203     0.0000    96.0000 </r>
       <r>    36.8531     0.0000    96.0000 </r>
       <r>    36.9858     0.0000    96.0000 </r>
       <r>    37.1186     0.0000    96.0000 </r>
       <r>    37.2513     0.0000    96.0000 </r>
      </set>
      <set comment="spin 2">
       <r>    -2.5756     0.0000    -0.0000 </r>
       <r>    -2.4428     1.2987     1.2084 </r>
       <r>    -2.3100     0.0000    -0.0000 </r>
       <r>    -2.1773     0.0000     0.0000 </r>
       <r>    -2.0445     0.0000     0.0000 </r>
       <r>    -1.9118     0.0000     0.0000 </r>
       <r>    -1.7790     0.0000     0.0000 </r>
       <r>    -1.6463     0.0000     0.0000 </r>
       <r>    -1.5135     0.0000     0.0000 </r>
       <r>    -1.3807     0.0000     0.0000 </r>
       <r>    -1.2480     0.0000     0.0000 </r>
       <r>    -1.1152     0.0000   -35.4455 </r>
       <r>    -0.9825     0.0000     0.0000 </r>
       <r>    -0.8497     0.0000     0.0000 </r>
       <r>    -0.7170     0.0000     0.0000 </r>
       <r>    -0.5842     0.0000     0.0000 </r>
       <r>    -0.4515     0.0005     0.0000 </r>
       <r>    -0.3187     0.1127     0.0000 </r>
       <r>    -0.1859     0.2233     0.0000 </r>
       <r>    -0.0532     0.2916     1.0000 </r>
       <r>     0.0796     0.3467   298.9259 </r>
       <r>     0.2123     0.3951     0.0000 </r>
       <r>     0.3451     0.4379     0.0000 </r>
       <r>     0.4778     0.4781     0.0000 </r>
       <r>     0.6106     0.5162     0.0000 </r>
       <r>     0.7434     0.5527     0.0000 </r>
       <r>     0.8761     0.5865     0.0000 </r>
       <r>     1.0089     0.6200     0.0000 </r>
       <r>     1.1416     0.6524     0.0000 </r>
       <r>     1.2744     0.6838     0.0000 </r>
       <r>     1.4071     0.7161     0.0000 </r>
       <r>     1.5399     0.7492     0.0000 </r>
       <r>     1.6726     0.7822     0.0000 </r>
       <r>     1.8054     0.8159     0.0000 </r>
       <r>     1.9382     0.8635     0.0000 </r>
       <r>     2.0709     1.0298     0.0000 </r>
       <r>     2.2037     1.3039     0.0000 </r>
       <r>     2.3364     2.1110     0.0000 </r>
       <r>     2.4692     3.0517     0.0000 </r>
       <r>     2.6019     4.7543     0.0000 </r>
       <r>     2.7347     6.0915     0.0000 </r>
       <r>     2.8675     7.3894     0.0000 </r>
       <r>     3.0002     8.4649     0.0000 </r>
       <r>     3.1330     9.6321     0.0000 </r>
       <r>     3.2657    10.0535     0.0000 </r>
       <r>     3.3985    10.2731     0.0000 </r>
       <r>     3.5312    10.5895     0.0000 </r>
       <r>     3.6640    12.6287     0.0000 </r>
       <r>     3.7967    15.3270     0.0000 </r>
       <r>     3.9295    16.4370     0.0000 </r>
       <r>     4.0623    16.9795     0.0000 </r>
       <r>     4.1950    17.4250     0.0000 </r>
       <r>     4.3278    18.5929     0.0000 </r>
       <r>     4.4605    19.3931     0.0000 </r>
       <r>     4.5933    20.0904     0.0000 </r>
       <r>     4.7260    20.8380     0.0000 </r>
       <r>     4.8588    21.5964     0.0000 </r>
       <r>     4.9916    22.2530     0.0000 </r>
       <r>     5.1243    22.7503     0.0000 </r>
       <r>     5.2571    23.8651     0.0000 </r>
       <r>     5.3898    26.7531     0.0000 </r>
       <r>     5.5226    27.7867     0.0000 </r>
       <r>     5.6553    28.2368     0.0000 </r>
       <r>     5.7881    28.7398     0.0000 </r>
       <r>     5.9208    29.2959     0.0000 </r>
       <r>     6.0536    30.2597     0.0000 </r>
       <r>     6.1864    32.2126     0.0000 </r>
       <r>     6.3191    33.4193     0.0000 </r>
       <r>     6.4519    34.5259     0.0000 </r>
       <r>     6.5846    36.0065     0.0000 </r>
       <r>     6.7174    37.5400     0.0000 </r>
       <r>     6.8501    38.7165     0.0000 </r>
       <r>     6.9829    39.1698     0.0000 </r>
       <r>     7.1157    39.5277     0.0000 </r>
       <r>     7.2484    39.8738     0.0000 </r>
       <r>     7.3812    40.2035     0.0000 </r>
       <r>     7.5139    40.5239     0.0000 </r>
       <r>     7.6467    40.8533     0.0000 </r>
       <r>     7.7794    41.3091     0.0000 </r>
       <r>     7.9122    41.5624     0.0000 </r>
       <r>     8.0449    41.6521     0.0000 </r>
       <r>     8.1777    41.7400     0.0000 </r>
       <r>     8.3105    41.8324     0.0000 </r>
       <r>     8.4432    41.9190     0.0000 </r>
       <r>     8.5760    42.7468     0.0000 </r>
       <r>     8.7087    43.9737     0.0000 </r>
       <r>     8.8415    44.5602     0.0000 </r>
       <r>     8.9742    44.9464     0.0000 </r>
       <r>     9.1070    45.2172     0.0000 </r>
       <r>     9.2398    45.4604     0.0000 </r>
       <r>     9.3725    45.7059     0.0000 </r>
       <r>     9.5053    45.9325     0.0000 </r>
       <r>     9.6380    46.1569     0.0000 </r>
       <r>     9.7708    46.3943     0.0000 </r>
       <r>     9.9035    46.7670     0.0000 </r>
       <r>    10.0363    46.8990     0.0000 </r>
       <r>    10.1690    46.9987     0.0000 </r>
       <r>    10.3018    47.0812     0.0000 </r>
       <r>    10.4346    47.1720     0.0000 </r>
       <r>    10.5673    47.2444     0.0000 </r>
       <r>    10.7001    47.3390     0.0000 </r>
       <r>    10.8328    47.4372     0.0000 </r>
       <r>    10.9656    47.4861     0.0000 </r>
       <r>    11.0983    47.5281     0.0000 </r>
       <r>    11.2311    47.5708     0.0000 </r>
       <r>    11.3639    47.6222     0.0000 </r>
       <r>    11.4966    47.6639     0.0000 </r>
       <r>    11.6294    47.7281     0.0000 </r>
       <r>    11.7621    47.8216     0.0000 </r>
       <r>    11.8949    47.9208     0.0000 </r>
       <r>    12.0276    48.0036     0.0000 </r>
       <r>    12.1604    48.0436     0.0000 </r>
       <r>    12.2931    48.0958     0.0000 </r>
       <r>    12.4259    48.1407     0.0000 </r>
       <r>    12.5587    48.2059     0.0000 </r>
       <r>    12.6914    48.2636     0.0000 </r>
       <r>    12.8242    48.3377     0.0000 </r>
       <r>    12.9569    48.3904     0.0000 </r>
       <r>    13.0897    48.4767     0.0000 </r>
       <r>    13.2224    48.5587     0.0000 </r>
       <r>    13.3552    48.6329     0.0000 </r>
       <r>    13.4880    48.7180     0.0000 </r>
       <r>    13.6207    48.8283     0.0000 </r>
       <r>    13.7535    49.0390     0.0000 </r>
       <r>    13.8862    49.2494     0.0000 </r>
       <r>    14.0190    49.4916     0.0000 </r>
       <r>    14.1517    49.9695     0.0000 </r>
       <r>    14.2845    50.2209     0.0000 </r>
       <r>    14.4172    50.4302     0.0000 </r>
       <r>    14.5500    50.6164     0.0000 </r>
       <r>    14.6828    50.8006     0.0000 </r>
       <r>    14.8155    50.9844     0.0000 </r>
       <r>    14.9483    51.1531     0.0000 </r>
       <r>    15.0810    51.3248     0.0000 </r>
       <r>    15.2138    51.4978     0.0000 </r>
       <r>    15.3465    51.6678     0.0000 </r>
       <r>    15.4793    51.8594     0.0000 </r>
       <r>    15.6121    52.0614     0.0000 </r>
       <r>    15.7448    52.3671     0.0000 </r>
       <r>    15.8776    52.6958     0.0000 </r>
       <r>    16.0103    52.8561     0.0000 </r>
       <r>    16.1431    53.0224     0.0000 </r>
       <r>    16.2758    53.1948     0.0000 </r>
       <r>    16.4086    53.4994     0.0000 </r>
       <r>    16.5413    53.7912     0.0000 </r>
       <r>    16.6741    54.0950     0.0000 </r>
       <r>    16.8069    54.6908     0.0000 </r>
       <r>    16.9396    55.3427     0.0000 </r>
       <r>    17.0724    55.4446     0.0000 </r>
       <r>    17.2051    55.5036     0.0000 </r>
       <r>    17.3379    55.5689     0.0000 </r>
       <r>    17.4706    55.6293     0.0000 </r>
       <r>    17.6034    55.6895     0.0000 </r>
       <r>    17.7362    55.7576     0.0000 </r>
       <r>    17.8689    55.8291     0.0000 </r>
       <r>    18.0017    56.1129     0.0000 </r>
       <r>    18.1344    56.5833     0.0000 </r>
       <r>    18.2672    56.7947     0.0000 </r>
       <r>    18.3999    56.9680     0.0000 </r>
       <r>    18.5327    57.2494     0.0000 </r>
       <r>    18.6654    58.0449     0.0000 </r>
       <r>    18.7982    58.5236     0.0000 </r>
       <r>    18.9310    58.6826     0.0000 </r>
       <r>    19.0637    58.8332     0.0000 </r>
       <r>    19.1965    58.9993     0.0000 </r>
       <r>    19.3292    59.7354     0.0000 </r>
       <r>    19.4620    60.2524     0.0000 </r>
       <r>    19.5947    60.5628     0.0000 </r>
       <r>    19.7275    60.7919     0.0000 </r>
       <r>    19.8603    61.0305     0.0000 </r>
       <r>    19.9930    61.2466     0.0000 </r>
       <r>    20.1258    61.4512     0.0000 </r>
       <r>    20.2585    61.6513     0.0000 </r>
       <r>    20.3913    61.8616     0.0000 </r>
       <r>    20.5240    62.0707     0.0000 </r>
       <r>    20.6568    62.2754     0.0000 </r>
       <r>    20.7896    62.5031     0.0000 </r>
       <r>    20.9223    62.6903     0.0000 </r>
       <r>    21.0551    62.9033     0.0000 </r>
       <r>    21.1878    63.0862     0.0000 </r>
       <r>    21.3206    63.2892     0.0000 </r>
       <r>    21.4533    63.4861     0.0000 </r>
       <r>    21.5861    63.6649     0.0000 </r>
       <r>    21.7188    63.8716     0.0000 </r>
       <r>    21.8516    64.0631     0.0000 </r>
       <r>    21.9844    64.3073     0.0000 </r>
       <r>    22.1171    64.5017     0.0000 </r>
       <r>    22.2499    64.6207     0.0000 </r>
       <r>    22.3826    64.7113     0.0000 </r>
       <r>    22.5154    64.8082     0.0000 </r>
       <r>    22.6481    64.9226     0.0000 </r>
       <r>    22.7809    65.0070     0.0000 </r>
       <r>    22.9137    65.1319     0.0000 </r>
       <r>    23.0464    65.3389     0.0000 </r>
       <r>    23.1792    65.6273     0.0000 </r>
       <r>    23.3119    65.8509     0.0000 </r>
       <r>    23.4447    66.1437     0.0000 </r>
       <r>    23.5774    66.5237     0.0000 </r>
       <r>    23.7102    66.8149     0.0000 </r>
       <r>    23.8429    67.1401     0.0000 </r>
       <r>    23.9757    67.4191     0.0000 </r>
       <r>    24.1085    67.6691     0.0000 </r>
       <r>    24.2412    68.0304     0.0000 </r>
       <r>    24.3740    68.4653     0.0000 </r>
       <r>    24.5067    68.7451     0.0000 </r>
       <r>    24.6395    69.1007     0.0000 </r>
       <r>    24.7722    69.4351     0.0000 </r>
       <r>    24.9050    69.9988     0.0000 </r>
       <r>    25.0378    70.6314     0.0000 </r>
       <r>    25.1705    71.2818     0.0000 </r>
       <r>    25.3033    71.5293     0.0000 </r>
       <r>    25.4360    71.9963     0.0000 </r>
       <r>    25.5688    72.4099     0.0000 </r>
       <r>    25.7015    72.7603     0.0000 </r>
       <r>    25.8343    73.1213     0.0000 </r>
       <r>    25.9670    73.4896     0.0000 </r>
       <r>    26.0998    73.9643     0.0000 </r>
       <r>    26.2326    74.5771     0.0000 </r>
       <r>    26.3653    74.9796     0.0000 </r>
       <r>    26.4981    75.6238     0.0000 </r>
       <r>    26.6308    76.4314     0.0000 </r>
       <r>    26.7636    77.1429     0.0000 </r>
       <r>    26.8963    77.3275     0.0000 </r>
       <r>    27.0291    77.4756     0.0000 </r>
       <r>    27.1619    77.6248     0.0000 </r>
       <r>    27.2946    77.8050     0.0000 </r>
       <r>    27.4274    78.1577     0.0000 </r>
       <r>    27.5601    78.3547     0.0000 </r>
       <r>    27.6929    78.5505     0.0000 </r>
       <r>    27.8256    79.2181     0.0000 </r>
       <r>    27.9584    79.9007     0.0000 </r>
       <r>    28.0911    80.3487     0.0000 </r>
       <r>    28.2239    80.6261     0.0000 </r>
       <r>    28.3567    80.9102     0.0000 </r>
       <r>    28.4894    81.1421     0.0000 </r>
       <r>    28.6222    81.3041     0.0000 </r>
       <r>    28.7549    81.4667     0.0000 </r>
       <r>    28.8877    81.6583     0.0000 </r>
       <r>    29.0204    81.7803     0.0000 </r>
       <r>    29.1532    81.8753     0.0000 </r>
       <r>    29.2860    81.9592     0.0000 </r>
       <r>    29.4187    82.0811     0.0000 </r>
       <r>    29.5515    82.2337     0.0000 </r>
       <r>    29.6842    82.4623     0.0000 </r>
       <r>    29.8170    82.8042     0.0000 </r>
       <r>    29.9497    83.0553     0.0000 </r>
       <r>    30.0825    83.3652     0.0000 </r>
       <r>    30.2152    83.9057     0.0000 </r>
       <r>    30.3480    84.2486     0.0000 </r>
       <r>    30.4808    84.4670     0.0000 </r>
       <r>    30.6135    84.7060     0.0000 </r>
       <r>    30.7463    84.9484     0.0000 </r>
       <r>    30.8790    85.1193     0.0000 </r>
       <r>    31.0118    85.3319     0.0000 </r>
       <r>    31.1445    85.6682     0.0000 </r>
       <r>    31.2773    85.9290     0.0000 </r>
       <r>    31.4101    86.1258     0.0000 </r>
       <r>    31.5428    86.3437     0.0000 </r>
       <r>    31.6756    86.5306     0.0000 </r>
       <r>    31.8083    86.7855     0.0000 </r>
       <r>    31.9411    87.0667     0.0000 </r>
       <r>    32.0738    87.3353     0.0000 </r>
       <r>    32.2066    87.6051     0.0000 </r>
       <r>    32.3393    87.8757     0.0000 </r>
       <r>    32.4721    88.0366     0.0000 </r>
       <r>    32.6049    88.1782     0.0000 </r>
       <r>    32.7376    88.3368     0.0000 </r>
       <r>    32.8704    88.4617     0.0000 </r>
       <r>    33.0031    88.6218     0.0000 </r>
       <r>    33.1359    88.8064     0.0000 </r>
       <r>    33.2686    89.0771     0.0000 </r>
       <r>    33.4014    89.4468     0.0000 </r>
       <r>    33.5342    90.0159     0.0000 </r>
       <r>    33.6669    90.8338     0.0000 </r>
       <r>    33.7997    92.1121     0.0000 </r>
       <r>    33.9324    93.2733     0.0000 </r>
       <r>    34.0652    93.8108     0.0000 </r>
       <r>    34.1979    94.1699     0.0000 </r>
       <r>    34.3307    94.3331     0.0000 </r>
       <r>    34.4634    94.4638     0.0000 </r>
       <r>    34.5962    94.6210     0.0000 </r>
       <r>    34.7290    94.7463     0.0000 </r>
       <r>    34.8617    94.8578     0.0000 </r>
       <r>    34.9945    94.9672     0.0000 </r>
       <r>    35.1272    95.0961     0.0000 </r>
       <r>    35.2600    95.2143     0.0000 </r>
       <r>    35.3927    95.3405     0.0000 </r>
       <r>    35.5255    95.5285     0.0000 </r>
       <r>    35.6583    95.7043     0.0000 </r>
       <r>    35.7910    95.8571     0.0000 </r>
       <r>    35.9238    95.9989     0.0000 </r>
       <r>    36.0565    96.0000     0.0000 </r>
       <r>    36.1893    96.0000     0.0000 </r>
       <r>    36.3220    96.0000     0.0000 </r>
       <r>    36.4548    96.0000     0.0000 </r>
       <r>    36.5875    96.0000     0.0000 </r>
       <r>    36.7203    96.0000     0.0000 </r>
       <r>    36.8531    96.0000     0.0000 </r>
       <r>    36.9858    96.0000     0.0000 </r>
       <r>    37.1186    96.0000     0.0000 </r>
       <r>    37.2513    96.0000     0.0000 </r>
      </set>
      <set comment="spin 3">
       <r>    -2.5756    96.0000     0.0000 </r>
       <r>    -2.4428    96.0000     0.0000 </r>
       <r>    -2.3100    96.0000     0.0000 </r>
       <r>    -2.1773    -0.0000     0.0000 </r>
       <r>    -2.0445     1.2084     0.0000 </r>
       <r>    -1.9118    -0.0000     0.0000 </r>
       <r>    -1.7790     0.0000     1.0000 </r>
       <r>    -1.6463     0.0000     0.0000 </r>
       <r>    -1.5135     0.0000     0.0000 </r>
       <r>    -1.3807     0.0000     0.0000 </r>
       <r>    -1.2480     0.0000     0.0000 </r>
       <r>    -1.1152     0.0000     0.0000 </r>
       <r>    -0.9825     0.0000     0.0000 </r>
       <r>    -0.8497     0.0000     0.0000 </r>
       <r>    -0.7170   -35.4455     0.0000 </r>
       <r>    -0.5842     0.0000     0.0000 </r>
       <r>    -0.4515     0.0000        NaN </r>
       <r>    -0.3187     0.0000        NaN </r>
       <r>    -0.1859     0.0000     0.0000 </r>
       <r>    -0.0532     0.0000     0.0000 </r>
       <r>     0.0796     0.0000        NaN </r>
       <r>     0.2123     0.0000     0.0000 </r>
       <r>     0.3451     1.0000     0.0000 </r>
       <r>     0.4778   298.9259    -0.0000 </r>
       <r>     0.6106     0.0000   -10.6462 </r>
       <r>     0.7434     0.0000    -0.0000 </r>
       <r>     0.8761     0.0000     0.0000 </r>
       <r>     1.0089     0.0000     0.0000 </r>
       <r>     1.1416     0.0000     0.0000 </r>
       <r>     1.2744     0.0000     0.0000 </r>
       <r>     1.4071     0.0000     0.0000 </r>
       <r>     1.5399     0.0000     0.0000 </r>
       <r>     1.6726     0.0000     0.0000 </r>
       <r>     1.8054     0.0000     0.0000 </r>
       <r>     1.9382     0.0000     0.0000 </r>
       <r>     2.0709     0.0000     0.0000 </r>
       <r>     2.2037     0.0000     0.0000 </r>
       <r>     2.3364     0.0000     0.0000 </r>
       <r>     2.4692     0.0000     0.0000 </r>
       <r>     2.6019     0.0000     0.0000 </r>
       <r>     2.7347     0.0000     0.0000 </r>
       <r>     2.8675     0.0000     0.0000 </r>
       <r>     3.0002     0.0000     0.0000 </r>
       <r>     3.1330     0.0000     0.0000 </r>
       <r>     3.2657     0.0000     0.0000 </r>
[...]
       <r>    25.9670     0.0000     0.0000 </r>
       <r>    26.0998     0.0000     0.0000 </r>
       <r>    26.2326     0.0000     0.0000 </r>
       <r>    26.3653     0.0000     0.0000 </r>
       <r>    26.4981     0.0000     0.0000 </r>
       <r>    26.6308     0.0000     0.0000 </r>
       <r>    26.7636     0.0000     0.0000 </r>
       <r>    26.8963     0.0000     0.0000 </r>
       <r>    27.0291     0.0000     0.0000 </r>
       <r>    27.1619     0.0000     0.0000 </r>
       <r>    27.2946     0.0000     0.0000 </r>
       <r>    27.4274     0.0000     0.0000 </r>
       <r>    27.5601     0.0000     0.0000 </r>
       <r>    27.6929     0.0000     0.0000 </r>
       <r>    27.8256     0.0000     0.0000 </r>
       <r>    27.9584     0.0000     0.0000 </r>
       <r>    28.0911     0.0000     0.0000 </r>
       <r>    28.2239     0.0000     0.0000 </r>
       <r>    28.3567     0.0000     0.0000 </r>
       <r>    28.4894     0.0000     0.0000 </r>
       <r>    28.6222     0.0000     0.0000 </r>
       <r>    28.7549     0.0000     0.0000 </r>
       <r>    28.8877     0.0000     0.0000 </r>
       <r>    29.0204     0.0000     0.0000 </r>
       <r>    29.1532     0.0000     0.0000 </r>
       <r>    29.2860     0.0000     0.0000 </r>
       <r>    29.4187     0.0000     0.0000 </r>
       <r>    29.5515     0.0000     0.0000 </r>
       <r>    29.6842     0.0000     0.0000 </r>
       <r>    29.8170     0.0000     0.0000 </r>
       <r>    29.9497     0.0000     0.0000 </r>
       <r>    30.0825     0.0000     0.0000 </r>
       <r>    30.2152     0.0000     0.0000 </r>
       <r>    30.3480     0.0000     0.0000 </r>
       <r>    30.4808     0.0000     0.0000 </r>
       <r>    30.6135     0.0000     0.0000 </r>
       <r>    30.7463     0.0000     0.0000 </r>
       <r>    30.8790     0.0000     0.0000 </r>
       <r>    31.0118     0.0000     0.0000 </r>
       <r>    31.1445     0.0000     0.0000 </r>
       <r>    31.2773     0.0000     0.0000 </r>
       <r>    31.4101     0.0000     0.0000 </r>
       <r>    31.5428     0.0000     0.0000 </r>
       <r>    31.6756     0.0000     0.0000 </r>
       <r>    31.8083     0.0000     0.0000 </r>
       <r>    31.9411     0.0000     0.0000 </r>
       <r>    32.0738     0.0000     0.0000 </r>
       <r>    32.2066     0.0000     0.0000 </r>
       <r>    32.3393     0.0000     0.0000 </r>
       <r>    32.4721     0.0000     0.0000 </r>
       <r>    32.6049     0.0000     0.0000 </r>
       <r>    32.7376     0.0000     0.0000 </r>
       <r>    32.8704     0.0000     0.0000 </r>
       <r>    33.0031     0.0000     0.0000 </r>
       <r>    33.1359     0.0000     0.0000 </r>
       <r>    33.2686     0.0000     0.0000 </r>
       <r>    33.4014     0.0000     0.0000 </r>
       <r>    33.5342     0.0000     0.0000 </r>
       <r>    33.6669     0.0000     0.0000 </r>
       <r>    33.7997     0.0000     0.0000 </r>
       <r>    33.9324     0.0000     0.0000 </r>
       <r>    34.0652     0.0000     0.0000 </r>
       <r>    34.1979     0.0000     0.0000 </r>
       <r>    34.3307     0.0000     0.0000 </r>
       <r>    34.4634     0.0000     0.0000 </r>
       <r>    34.5962     0.0000     0.0000 </r>
       <r>    34.7290     0.0000     0.0000 </r>
       <r>    34.8617     0.0000     0.0000 </r>
       <r>    34.9945     0.0000     0.0000 </r>
       <r>    35.1272     0.0000     0.0000 </r>
       <r>    35.2600     0.0000     0.0000 </r>
       <r>    35.3927     0.0000     0.0000 </r>
       <r>    35.5255     0.0000     0.0000 </r>
       <r>    35.6583     0.0000     0.0000 </r>
       <r>    35.7910     0.0000     0.0000 </r>
       <r>    35.9238     0.0000     0.0000 </r>
       <r>    36.0565     0.0000     0.0000 </r>
       <r>    36.1893     0.0000     0.0000 </r>
       <r>    36.3220     0.0000     0.0000 </r>
       <r>    36.4548     0.0000     0.0000 </r>
       <r>    36.5875     0.0000     0.0000 </r>
       <r>    36.7203     0.0000     0.0000 </r>
       <r>    36.8531     0.0000     0.0000 </r>
       <r>    36.9858     0.0000     0.0000 </r>
       <r>    37.1186     0.0000     0.0000 </r>
       <r>    37.2513     0.0000     0.0000 </r>
      </set>
      <set comment="spin 4">
       <r>    -2.5756     0.0000     0.0000 </r>
       <r>    -2.4428     0.0000     0.0000 </r>
       <r>    -2.3100     0.0000     0.0000 </r>
       <r>    -2.1773     0.0000     0.0000 </r>
       <r>    -2.0445     0.0000     0.0000 </r>
       <r>    -1.9118     0.0000     0.0000 </r>
       <r>    -1.7790     0.0000     0.0000 </r>
       <r>    -1.6463     0.0000     0.0000 </r>
       <r>    -1.5135     0.0000     0.0000 </r>
       <r>    -1.3807     0.0000     0.0000 </r>
       <r>    -1.2480     0.0000     0.0000 </r>
       <r>    -1.1152     0.0000     0.0000 </r>
       <r>    -0.9825     0.0000     0.0000 </r>
       <r>    -0.8497     0.0000     0.0000 </r>
       <r>    -0.7170     0.0000     0.0000 </r>
       <r>    -0.5842     0.0000     0.0000 </r>
       <r>    -0.4515     0.0000     0.0000 </r>
       <r>    -0.3187     0.0000     0.0000 </r>
       <r>    -0.1859     0.0000     0.0000 </r>
       <r>    -0.0532     0.0000     0.0000 </r>
       <r>     0.0796     0.0000     0.0000 </r>
       <r>     0.2123     0.0000     0.0000 </r>
       <r>     0.3451     0.0000     0.0000 </r>
       <r>     0.4778     0.0000     0.0000 </r>
       <r>     0.6106     0.0000     0.0000 </r>
       <r>     0.7434     0.0000     0.0000 </r>
       <r>     0.8761     0.0000     0.0000 </r>
       <r>     1.0089     0.0000     0.0000 </r>
       <r>     1.1416     0.0000     0.0000 </r>
       <r>     1.2744     0.0000     0.0000 </r>
       <r>     1.4071     0.0000     0.0000 </r>
       <r>     1.5399     0.0000     0.0000 </r>
       <r>     1.6726     0.0000     0.0000 </r>
       <r>     1.8054     0.0000     0.0000 </r>
       <r>     1.9382     0.0000     0.0000 </r>
       <r>     2.0709     0.0000     0.0000 </r>
       <r>     2.2037     0.0000     0.0000 </r>
       <r>     2.3364     0.0000     0.0000 </r>
       <r>     2.4692     0.0000     0.0000 </r>
       <r>     2.6019     0.0000     0.0000 </r>
       <r>     2.7347     0.0000     0.0000 </r>
       <r>     2.8675     0.0000     0.0000 </r>
       <r>     3.0002     0.0000     0.0000 </r>
       <r>     3.1330     0.0000     0.0000 </r>
       <r>     3.2657     0.0000     0.0000 </r>
       <r>     3.3985     0.0000     0.0000 </r>
       <r>     3.5312     0.0000     0.0000 </r>
       <r>     3.6640     0.0000     0.0000 </r>
       <r>     3.7967     0.0000     0.0000 </r>
       <r>     3.9295     0.0000     0.0000 </r>
       <r>     4.0623     0.0000     0.0000 </r>
       <r>     4.1950     0.0000     0.0000 </r>
       <r>     4.3278     0.0000     0.0000 </r>
       <r>     4.4605     0.0000     0.0000 </r>
       <r>     4.5933     0.0000     0.0000 </r>
       <r>     4.7260     0.0000     0.0000 </r>
       <r>     4.8588     0.0000     0.0000 </r>
       <r>     4.9916     0.0000     0.0000 </r>
       <r>     5.1243     0.0000     0.0000 </r>
       <r>     5.2571     0.0000     0.0000 </r>
       <r>     5.3898     0.0000     0.0000 </r>
       <r>     5.5226     0.0000     0.0000 </r>
       <r>     5.6553     0.0000     0.0000 </r>
       <r>     5.7881     0.0000     0.0000 </r>
       <r>     5.9208     0.0000     0.0000 </r>
       <r>     6.0536     0.0000     0.0000 </r>
       <r>     6.1864     0.0000     0.0000 </r>
       <r>     6.3191     0.0000     0.0000 </r>
       <r>     6.4519     0.0000     0.0000 </r>
       <r>     6.5846     0.0000     0.0000 </r>
       <r>     6.7174     0.0000     0.0000 </r>
       <r>     6.8501     0.0000     0.0000 </r>
       <r>     6.9829     0.0000     0.0000 </r>
       <r>     7.1157     0.0000     0.0000 </r>
       <r>     7.2484     0.0000     0.0000 </r>
       <r>     7.3812     0.0000     0.0000 </r>
       <r>     7.5139     0.0000     0.0000 </r>
       <r>     7.6467     0.0000     0.0000 </r>
       <r>     7.7794     0.0000     0.0000 </r>
       <r>     7.9122     0.0000     0.0000 </r>
       <r>     8.0449     0.0000     0.0000 </r>
       <r>     8.1777     0.0000     0.0000 </r>
       <r>     8.3105     0.0000     0.0000 </r>
       <r>     8.4432     0.0000     0.0000 </r>
       <r>     8.5760     0.0000     0.0000 </r>
       <r>     8.7087     0.0000     0.0000 </r>
       <r>     8.8415     0.0000     0.0000 </r>
       <r>     8.9742     0.0000     0.0000 </r>
       <r>     9.1070     0.0000     0.0000 </r>
       <r>     9.2398     0.0000     0.0000 </r>
       <r>     9.3725     0.0000     0.0000 </r>
       <r>     9.5053     0.0000     0.0000 </r>
       <r>     9.6380     0.0000     0.0000 </r>
       <r>     9.7708     0.0000     0.0000 </r>
       <r>     9.9035     0.0000     0.0000 </r>
       <r>    10.0363     0.0000     0.0000 </r>
       <r>    10.1690     0.0000     0.0000 </r>
       <r>    10.3018     0.0000     0.0000 </r>
       <r>    10.4346     0.0000     0.0000 </r>
       <r>    10.5673     0.0000     0.0000 </r>
       <r>    10.7001     0.0000     0.0000 </r>
       <r>    10.8328     0.0000     0.0000 </r>
       <r>    10.9656     0.0000     0.0000 </r>
       <r>    11.0983     0.0000     0.0000 </r>
       <r>    11.2311     0.0000     0.0000 </r>
       <r>    11.3639     0.0000     0.0000 </r>
       <r>    11.4966     0.0000     0.0000 </r>
       <r>    11.6294     0.0000     0.0000 </r>
       <r>    11.7621     0.0000     0.0000 </r>
       <r>    11.8949     0.0000     0.0000 </r>
       <r>    12.0276     0.0000     0.0000 </r>
       <r>    12.1604     0.0000     0.0000 </r>
       <r>    12.2931     0.0000     0.0000 </r>
       <r>    12.4259     0.0000     0.0000 </r>
       <r>    12.5587     0.0000     0.0000 </r>
       <r>    12.6914     0.0000     0.0000 </r>
       <r>    12.8242     0.0000     0.0000 </r>
       <r>    12.9569     0.0000     0.0000 </r>
       <r>    13.0897     0.0000     0.0000 </r>
       <r>    13.2224     0.0000     0.0000 </r>
       <r>    13.3552     0.0000     0.0000 </r>
       <r>    13.4880     0.0000     0.0000 </r>
       <r>    13.6207     0.0000     0.0000 </r>
       <r>    13.7535     0.0000     0.0000 </r>
       <r>    13.8862     0.0000     0.0000 </r>
       <r>    14.0190     0.0000     0.0000 </r>
       <r>    14.1517     0.0000     0.0000 </r>
       <r>    14.2845     0.0000     0.0000 </r>
       <r>    14.4172     0.0000     0.0000 </r>
       <r>    14.5500     0.0000     0.0000 </r>
       <r>    14.6828     0.0000     0.0000 </r>
       <r>    14.8155     0.0000     0.0000 </r>
       <r>    14.9483     0.0000     0.0000 </r>
       <r>    15.0810     0.0000     0.0000 </r>
       <r>    15.2138     0.0000     0.0000 </r>
       <r>    15.3465     0.0000     0.0000 </r>
       <r>    15.4793     0.0000     0.0000 </r>
       <r>    15.6121     0.0000     0.0000 </r>
       <r>    15.7448     0.0000     0.0000 </r>
       <r>    15.8776     0.0000     0.0000 </r>
       <r>    16.0103     0.0000     0.0000 </r>
       <r>    16.1431     0.0000     0.0000 </r>
       <r>    16.2758     0.0000     0.0000 </r>
       <r>    16.4086     0.0000     0.0000 </r>
       <r>    16.5413     0.0000     0.0000 </r>
       <r>    16.6741     0.0000     0.0000 </r>
       <r>    16.8069     0.0000     0.0000 </r>
       <r>    16.9396     0.0000     0.0000 </r>
       <r>    17.0724     0.0000     0.0000 </r>
       <r>    17.2051     0.0000     0.0000 </r>
       <r>    17.3379     0.0000     0.0000 </r>
       <r>    17.4706     0.0000     0.0000 </r>
       <r>    17.6034     0.0000     0.0000 </r>
       <r>    17.7362     0.0000     0.0000 </r>
       <r>    17.8689     0.0000     0.0000 </r>
       <r>    18.0017     0.0000     0.0000 </r>
       <r>    18.1344     0.0000     0.0000 </r>
       <r>    18.2672     0.0000     0.0000 </r>
       <r>    18.3999     0.0000     0.0000 </r>
       <r>    18.5327     0.0000     0.0000 </r>
       <r>    18.6654     0.0000     0.0000 </r>
       <r>    18.7982     0.0000     0.0000 </r>
       <r>    18.9310     0.0000     0.0000 </r>
       <r>    19.0637     0.0000     0.0000 </r>
       <r>    19.1965     0.0000     0.0000 </r>
       <r>    19.3292     0.0000     0.0000 </r>
       <r>    19.4620     0.0000     0.0000 </r>
       <r>    19.5947     0.0000     0.0000 </r>
       <r>    19.7275     0.0000     0.0000 </r>
       <r>    19.8603     0.0000     0.0000 </r>
       <r>    19.9930     0.0000     0.0000 </r>
       <r>    20.1258     0.0000     0.0000 </r>
       <r>    20.2585     0.0000     0.0000 </r>
       <r>    20.3913     0.0000     0.0000 </r>
       <r>    20.5240     0.0000     0.0000 </r>
       <r>    20.6568     0.0000     0.0000 </r>
       <r>    20.7896     0.0000     0.0000 </r>
       <r>    20.9223     0.0000     0.0000 </r>
       <r>    21.0551     0.0000     0.0000 </r>
       <r>    21.1878     0.0000     0.0000 </r>
       <r>    21.3206     0.0000     0.0000 </r>
       <r>    21.4533     0.0000     0.0000 </r>
       <r>    21.5861     0.0000     0.0000 </r>
       <r>    21.7188     0.0000     0.0000 </r>
       <r>    21.8516     0.0000     0.0000 </r>
       <r>    21.9844     0.0000     0.0000 </r>
       <r>    22.1171     0.0000     0.0000 </r>
       <r>    22.2499     0.0000     0.0000 </r>
       <r>    22.3826     0.0000     0.0000 </r>
       <r>    22.5154     0.0000     0.0000 </r>
       <r>    22.6481     0.0000     0.0000 </r>
       <r>    22.7809     0.0000     0.0000 </r>
       <r>    22.9137     0.0000     0.0000 </r>
       <r>    23.0464     0.0000     0.0000 </r>
       <r>    23.1792     0.0000     0.0000 </r>
       <r>    23.3119     0.0000     0.0000 </r>
       <r>    23.4447     0.0000     0.0000 </r>
       <r>    23.5774     0.0000     0.0000 </r>
       <r>    23.7102     0.0000     0.0000 </r>
       <r>    23.8429     0.0000     0.0000 </r>
       <r>    23.9757     0.0000     0.0000 </r>
       <r>    24.1085     0.0000     0.0000 </r>
       <r>    24.2412     0.0000     0.0000 </r>
       <r>    24.3740     0.0000     0.0000 </r>
       <r>    24.5067     0.0000     0.0000 </r>
       <r>    24.6395     0.0000     0.0000 </r>
       <r>    24.7722     0.0000     0.0000 </r>
       <r>    24.9050     0.0000     0.0000 </r>
       <r>    25.0378     0.0000     0.0000 </r>
       <r>    25.1705     0.0000     0.0000 </r>
       <r>    25.3033     0.0000     0.0000 </r>
       <r>    25.4360     0.0000     0.0000 </r>
       <r>    25.5688     0.0000     0.0000 </r>
       <r>    25.7015     0.0000     0.0000 </r>
       <r>    25.8343     0.0000     0.0000 </r>
       <r>    25.9670     0.0000     0.0000 </r>
       <r>    26.0998     0.0000     0.0000 </r>
       <r>    26.2326     0.0000     0.0000 </r>
       <r>    26.3653     0.0000     0.0000 </r>
       <r>    26.4981     0.0000     0.0000 </r>
       <r>    26.6308     0.0000     0.0000 </r>
       <r>    26.7636     0.0000     0.0000 </r>
       <r>    26.8963     0.0000     0.0000 </r>
       <r>    27.0291     0.0000     0.0000 </r>
       <r>    27.1619     0.0000     0.0000 </r>
       <r>    27.2946     0.0000     0.0000 </r>
       <r>    27.4274     0.0000     0.0000 </r>
       <r>    27.5601     0.0000     0.0000 </r>
       <r>    27.6929     0.0000     0.0000 </r>
       <r>    27.8256     0.0000     0.0000 </r>
       <r>    27.9584     0.0000     0.0000 </r>
       <r>    28.0911     0.0000     0.0000 </r>
       <r>    28.2239     0.0000     0.0000 </r>
       <r>    28.3567     0.0000     0.0000 </r>
       <r>    28.4894     0.0000     0.0000 </r>
       <r>    28.6222     0.0000     0.0000 </r>
       <r>    28.7549     0.0000     0.0000 </r>
       <r>    28.8877     0.0000     0.0000 </r>
       <r>    29.0204     0.0000     0.0000 </r>
       <r>    29.1532     0.0000     0.0000 </r>
       <r>    29.2860     0.0000     0.0000 </r>
       <r>    29.4187     0.0000     0.0000 </r>
       <r>    29.5515     0.0000     0.0000 </r>
       <r>    29.6842     0.0000     0.0000 </r>
       <r>    29.8170     0.0000     0.0000 </r>
       <r>    29.9497     0.0000     0.0000 </r>
       <r>    30.0825     0.0000     0.0000 </r>
       <r>    30.2152     0.0000     0.0000 </r>
       <r>    30.3480     0.0000     0.0000 </r>
       <r>    30.4808     0.0000     0.0000 </r>
       <r>    30.6135     0.0000     0.0000 </r>
       <r>    30.7463     0.0000     0.0000 </r>
       <r>    30.8790     0.0000     0.0000 </r>
       <r>    31.0118     0.0000     0.0000 </r>
       <r>    31.1445     0.0000     0.0000 </r>
       <r>    31.2773     0.0000     0.0000 </r>
       <r>    31.4101     0.0000     0.0000 </r>
       <r>    31.5428     0.0000     0.0000 </r>
       <r>    31.6756     0.0000     0.0000 </r>
       <r>    31.8083     0.0000     0.0000 </r>
       <r>    31.9411     0.0000     0.0000 </r>
       <r>    32.0738     0.0000     0.0000 </r>
       <r>    32.2066     0.0000     0.0000 </r>
       <r>    32.3393     0.0000     0.0000 </r>
       <r>    32.4721     0.0000     0.0000 </r>
       <r>    32.6049     0.0000     0.0000 </r>
       <r>    32.7376     0.0000     0.0000 </r>
       <r>    32.8704     0.0000     0.0000 </r>
       <r>    33.0031     0.0000     0.0000 </r>
       <r>    33.1359     0.0000     0.0000 </r>
       <r>    33.2686     0.0000     0.0000 </r>
       <r>    33.4014     0.0000     0.0000 </r>
       <r>    33.5342     0.0000     0.0000 </r>
       <r>    33.6669     0.0000     0.0000 </r>
       <r>    33.7997     0.0000     0.0000 </r>
       <r>    33.9324     0.0000     0.0000 </r>
       <r>    34.0652     0.0000     0.0000 </r>
       <r>    34.1979     0.0000     0.0000 </r>
       <r>    34.3307     0.0000     0.0000 </r>
       <r>    34.4634     0.0000     0.0000 </r>
       <r>    34.5962     0.0000     0.0000 </r>
       <r>    34.7290     0.0000     0.0000 </r>
       <r>    34.8617     0.0000     0.0000 </r>
       <r>    34.9945     0.0000     0.0000 </r>
       <r>    35.1272     0.0000     0.0000 </r>
       <r>    35.2600     0.0000     0.0000 </r>
       <r>    35.3927     0.0000     0.0000 </r>
       <r>    35.5255     0.0000     0.0000 </r>
       <r>    35.6583     0.0000     0.0000 </r>
       <r>    35.7910     0.0000     0.0000 </r>
       <r>    35.9238     0.0000     0.0000 </r>
       <r>    36.0565     0.0000     0.0000 </r>
       <r>    36.1893     0.0000     0.0000 </r>
       <r>    36.3220     0.0000     0.0000 </r>
       <r>    36.4548     0.0000     0.0000 </r>
       <r>    36.5875     0.0000     0.0000 </r>
       <r>    36.7203     0.0000     0.0000 </r>
       <r>    36.8531     0.0000     0.0000 </r>
       <r>    36.9858     0.0000     0.0000 </r>
       <r>    37.1186     0.0000     0.0000 </r>
       <r>    37.2513     0.0000     0.0000 </r>
      </set>
     </set>
    </array>
   </total>
  </dos>
 </calculation>
 <structure name="finalpos" >
  <crystal>
   <varray name="basis" >
    <v>       4.17410000       0.00000000       0.00000000 </v>
    <v>       0.00000000       4.17410000       0.00000000 </v>
    <v>       0.00000000       0.00000000       4.17410000 </v>
   </varray>
   <i name="volume">     72.72580683 </i>
   <varray name="rec_basis" >
    <v>       0.23957260      -0.00000000       0.00000000 </v>
    <v>       0.00000000       0.23957260       0.00000000 </v>
    <v>      -0.00000000      -0.00000000       0.23957260 </v>
   </varray>
  </crystal>
  <varray name="positions" >
   <v>       0.00000000       0.00000000       0.00000000 </v>
   <v>       0.00000000       0.50000000       0.50000000 </v>
   <v>       0.50000000       0.00000000       0.50000000 </v>
   <v>       0.50000000       0.50000000       0.00000000 </v>
  </varray>
 </structure>
</modeling>
