 DBCSR| CPU Multiplication driver                                           BLAS (U)
 DBCSR| Multrec recursion limit                                              512 (U)
 DBCSR| Multiplication stack size                                           1000 (D)
 DBCSR| Maximum elements for images                                    UNLIMITED (U)
 DBCSR| Multiplicative factor virtual images                                   1 (U)
 DBCSR| Use multiplication densification                                       T (D)
 DBCSR| Multiplication size stacks                                             3 (U)
 DBCSR| Use memory pool for CPU allocation                                     F (U)
 DBCSR| Number of 3D layers                                               SINGLE (U)
 DBCSR| Use MPI memory allocation                                              F (U)
 DBCSR| Use RMA algorithm                                                      F (U)
 DBCSR| Use Communication thread                                               T (U)
 DBCSR| Communication thread load                                             45 (D)
 DBCSR| MPI: My process id                                                     0
 DBCSR| MPI: Number of processes                                               8
 DBCSR| OMP: Current number of threads                                        12
 DBCSR| OMP: Max number of threads                                            12
 DBCSR| Split modifier for TAS multiplication algorithm                  1.0E+00 (U)


  **** **** ******  **  PROGRAM STARTED AT               2025-08-20 16:19:53.300
 ***** ** ***  *** **   PROGRAM STARTED ON                          i01r10c05s03
 **    ****   ******    PROGRAM STARTED BY                               di38fab
 ***** **    ** ** **   PROGRAM PROCESS ID                                 16952
  **** **  *******  **  PROGRAM STARTED IN /hppfs/scratch/04/di38fab/09_GTH/Delt
                                           a_Set/Cd/SZV-MOLOPT-GTH/8x8x8

 CP2K| version string:                 CP2K version 2025.1 (Development Version)
 CP2K| source code revision number:                                  git:3130539
 CP2K| cp2kflags: omp libint fftw3 libxc parallel scalapack max_contr=4         
 CP2K| is freely available from                            https://www.cp2k.org/
 CP2K| Program compiled at                         Tue Jun  3 16:14:32 CEST 2025
 CP2K| Program compiled on                                               login01
 CP2K| Program compiled for                                        Supermuc-foss
 CP2K| Data directory path                  /hppfs/work/pn36zo/di38fab/cp2k/data
 CP2K| Input file name                                                    GW.inp

 GLOBAL| Force Environment number                                              1
 GLOBAL| Basis set file name            /hppfs/scratch/04/di38fab/09_GTH/BASIS_A
 GLOBAL| Potential file name            /hppfs/work/pn36zo/di38fab/cp2k/data/GTH
 GLOBAL| MM Potential file name                                     MM_POTENTIAL
 GLOBAL| Coordinate file name                                             Cd.cif
 GLOBAL| Method name                                                        CP2K
 GLOBAL| Project name                                                       WSe2
 GLOBAL| Run type                                                         ENERGY
 GLOBAL| FFT library                                                       FFTW3
 GLOBAL| Diagonalization library                                       ScaLAPACK
 GLOBAL| Cholesky decomposition library                                ScaLAPACK
 GLOBAL| DGEMM library                                                      BLAS
 GLOBAL| Orthonormality check for eigenvectors                          DISABLED
 GLOBAL| Matrix multiplication library                                 ScaLAPACK
 GLOBAL| All-to-all communication in single precision                          F
 GLOBAL| FFTs using library dependent lengths                                  F
 GLOBAL| Grid backend                                                       AUTO
 GLOBAL| Global print level                                               MEDIUM
 GLOBAL| MPI I/O enabled                                                       T
 GLOBAL| Total number of message passing processes                             8
 GLOBAL| Number of threads for this process                                   12
 GLOBAL| This output is from process                                           0
 GLOBAL| OpenMP stack size per thread (OMP_STACKSIZE)                        64M
 GLOBAL| CPU model name             Intel(R) Xeon(R) Platinum 8174 CPU @ 3.10GHz

 MEMORY| system memory details [Kb]
 MEMORY|                        rank 0           min           max       average
 MEMORY| MemTotal             98436660      98436660      98436664      98436662
 MEMORY| MemFree              84590668      84438800      84590668      84514734
 MEMORY| Buffers                     0             0             0             0
 MEMORY| Cached                2362692       2362692       2367804       2365248
 MEMORY| Slab                  1312812       1298612       1312812       1305712
 MEMORY| SReclaimable           287716        286832        287716        287274
 MEMORY| MemLikelyFree        87241076      87093436      87241076      87167256


 *** Fundamental physical constants (SI units) ***

 *** Literature: B. J. Mohr and B. N. Taylor,
 ***             CODATA recommended values of the fundamental physical
 ***             constants: 2006, Web Version 5.1
 ***             http://physics.nist.gov/constants

 Speed of light in vacuum [m/s]                             2.99792458000000E+08
 Magnetic constant or permeability of vacuum [N/A**2]       1.25663706143592E-06
 Electric constant or permittivity of vacuum [F/m]          8.85418781762039E-12
 Planck constant (h) [J*s]                                  6.62606896000000E-34
 Planck constant (h-bar) [J*s]                              1.05457162825177E-34
 Elementary charge [C]                                      1.60217648700000E-19
 Electron mass [kg]                                         9.10938215000000E-31
 Electron g factor [ ]                                     -2.00231930436220E+00
 Proton mass [kg]                                           1.67262163700000E-27
 Fine-structure constant                                    7.29735253760000E-03
 Rydberg constant [1/m]                                     1.09737315685270E+07
 Avogadro constant [1/mol]                                  6.02214179000000E+23
 Boltzmann constant [J/K]                                   1.38065040000000E-23
 Atomic mass unit [kg]                                      1.66053878200000E-27
 Bohr radius [m]                                            5.29177208590000E-11

 *** Conversion factors ***

 [u] -> [a.u.]                                              1.82288848426455E+03
 [Angstrom] -> [Bohr] = [a.u.]                              1.88972613288564E+00
 [a.u.] = [Bohr] -> [Angstrom]                              5.29177208590000E-01
 [a.u.] -> [s]                                              2.41888432650478E-17
 [a.u.] -> [fs]                                             2.41888432650478E-02
 [a.u.] -> [J]                                              4.35974393937059E-18
 [a.u.] -> [N]                                              8.23872205491840E-08
 [a.u.] -> [K]                                              3.15774647902944E+05
 [a.u.] -> [kJ/mol]                                         2.62549961709828E+03
 [a.u.] -> [kcal/mol]                                       6.27509468713739E+02
 [a.u.] -> [Pa]                                             2.94210107994716E+13
 [a.u.] -> [bar]                                            2.94210107994716E+08
 [a.u.] -> [atm]                                            2.90362800883016E+08
 [a.u.] -> [eV]                                             2.72113838565563E+01
 [a.u.] -> [Hz]                                             6.57968392072181E+15
 [a.u.] -> [1/cm] (wave numbers)                            2.19474631370540E+05
 [a.u./Bohr**2] -> [1/cm]                                   5.14048714338585E+03
 

 CELL_TOP| Volume [angstrom^3]:                                        46.098596
 CELL_TOP| Vector a [angstrom     3.037     0.000     0.000   |a| =     3.037160
 CELL_TOP| Vector b [angstrom     1.519     2.630     0.000   |b| =     3.037160
 CELL_TOP| Vector c [angstrom     0.000     0.000     5.771   |c| =     5.770610
 CELL_TOP| Angle (b,c), alpha [degree]:                                90.000000
 CELL_TOP| Angle (a,c), beta  [degree]:                                90.000000
 CELL_TOP| Angle (a,b), gamma [degree]:                                60.000000
 CELL_TOP| Numerically orthorhombic:                                          NO
 CELL_TOP| Periodicity                                                       XYZ

 CELL_CIF| Volume [angstrom^3]:                                        46.098596
 CELL_CIF| Vector a [angstrom     3.037     0.000     0.000   |a| =     3.037160
 CELL_CIF| Vector b [angstrom     1.519     2.630     0.000   |b| =     3.037160
 CELL_CIF| Vector c [angstrom     0.000     0.000     5.771   |c| =     5.770610
 CELL_CIF| Angle (b,c), alpha [degree]:                                90.000000
 CELL_CIF| Angle (a,c), beta  [degree]:                                90.000000
 CELL_CIF| Angle (a,b), gamma [degree]:                                60.000000
 CELL_CIF| Numerically orthorhombic:                                          NO
 CELL_CIF| Periodicity                                                       XYZ

 GENERATE|  Preliminary Number of Bonds generated:                             0
 GENERATE|  Achieved consistency in connectivity generation.

 CELL| Volume [angstrom^3]:                                            46.098596
 CELL| Vector a [angstrom]:       3.037     0.000     0.000   |a| =     3.037160
 CELL| Vector b [angstrom]:       1.519     2.630     0.000   |b| =     3.037160
 CELL| Vector c [angstrom]:       0.000     0.000     5.771   |c| =     5.770610
 CELL| Angle (b,c), alpha [degree]:                                    90.000000
 CELL| Angle (a,c), beta  [degree]:                                    90.000000
 CELL| Angle (a,b), gamma [degree]:                                    60.000000
 CELL| Numerically orthorhombic:                                              NO
 CELL| Periodicity                                                           XYZ

 CELL_REF| Volume [angstrom^3]:                                        46.098596
 CELL_REF| Vector a [angstrom     3.037     0.000     0.000   |a| =     3.037160
 CELL_REF| Vector b [angstrom     1.519     2.630     0.000   |b| =     3.037160
 CELL_REF| Vector c [angstrom     0.000     0.000     5.771   |c| =     5.770610
 CELL_REF| Angle (b,c), alpha [degree]:                                90.000000
 CELL_REF| Angle (a,c), beta  [degree]:                                90.000000
 CELL_REF| Angle (a,b), gamma [degree]:                                60.000000
 CELL_REF| Numerically orthorhombic:                                          NO
 CELL_REF| Periodicity                                                       XYZ

 *** WARNING in cryssym.F:180 :: Symmetry library SPGLIB not available ***


 *******************************************************************************
                                    Kpoints
 *******************************************************************************
 BRILLOUIN| K-point scheme                                        Monkhorst-Pack
 BRILLOUIN| K-Point grid                                             8    8    8
 BRILLOUIN| Accuracy in Symmetry determination                      0.100000E-05
 BRILLOUIN| K-Point point group symmetrization                               OFF
 BRILLOUIN| Wavefunction type                                            COMPLEX
 BRILLOUIN| List of Kpoints [2 Pi/Bohr]                                      256
 BRILLOUIN| Number           Weight            X              Y              Z
 BRILLOUIN|     1           0.00391       -0.43750       -0.43750       -0.43750
 BRILLOUIN|     2           0.00391       -0.43750       -0.43750       -0.31250
 BRILLOUIN|     3           0.00391       -0.43750       -0.43750       -0.18750
 BRILLOUIN|     4           0.00391       -0.43750       -0.43750       -0.06250
 BRILLOUIN|     5           0.00391       -0.43750       -0.43750        0.06250
 BRILLOUIN|     6           0.00391       -0.43750       -0.43750        0.18750
 BRILLOUIN|     7           0.00391       -0.43750       -0.43750        0.31250
 BRILLOUIN|     8           0.00391       -0.43750       -0.43750        0.43750
 BRILLOUIN|     9           0.00391       -0.43750       -0.31250       -0.43750
 BRILLOUIN|    10           0.00391       -0.43750       -0.31250       -0.31250
 BRILLOUIN|    11           0.00391       -0.43750       -0.31250       -0.18750
 BRILLOUIN|    12           0.00391       -0.43750       -0.31250       -0.06250
 BRILLOUIN|    13           0.00391       -0.43750       -0.31250        0.06250
 BRILLOUIN|    14           0.00391       -0.43750       -0.31250        0.18750
 BRILLOUIN|    15           0.00391       -0.43750       -0.31250        0.31250
 BRILLOUIN|    16           0.00391       -0.43750       -0.31250        0.43750
 BRILLOUIN|    17           0.00391       -0.43750       -0.18750       -0.43750
 BRILLOUIN|    18           0.00391       -0.43750       -0.18750       -0.31250
 BRILLOUIN|    19           0.00391       -0.43750       -0.18750       -0.18750
 BRILLOUIN|    20           0.00391       -0.43750       -0.18750       -0.06250
 BRILLOUIN|    21           0.00391       -0.43750       -0.18750        0.06250
 BRILLOUIN|    22           0.00391       -0.43750       -0.18750        0.18750
 BRILLOUIN|    23           0.00391       -0.43750       -0.18750        0.31250
 BRILLOUIN|    24           0.00391       -0.43750       -0.18750        0.43750
 BRILLOUIN|    25           0.00391       -0.43750       -0.06250       -0.43750
 BRILLOUIN|    26           0.00391       -0.43750       -0.06250       -0.31250
 BRILLOUIN|    27           0.00391       -0.43750       -0.06250       -0.18750
 BRILLOUIN|    28           0.00391       -0.43750       -0.06250       -0.06250
 BRILLOUIN|    29           0.00391       -0.43750       -0.06250        0.06250
 BRILLOUIN|    30           0.00391       -0.43750       -0.06250        0.18750
 BRILLOUIN|    31           0.00391       -0.43750       -0.06250        0.31250
 BRILLOUIN|    32           0.00391       -0.43750       -0.06250        0.43750
 BRILLOUIN|    33           0.00391       -0.43750        0.06250       -0.43750
 BRILLOUIN|    34           0.00391       -0.43750        0.06250       -0.31250
 BRILLOUIN|    35           0.00391       -0.43750        0.06250       -0.18750
 BRILLOUIN|    36           0.00391       -0.43750        0.06250       -0.06250
 BRILLOUIN|    37           0.00391       -0.43750        0.06250        0.06250
 BRILLOUIN|    38           0.00391       -0.43750        0.06250        0.18750
 BRILLOUIN|    39           0.00391       -0.43750        0.06250        0.31250
 BRILLOUIN|    40           0.00391       -0.43750        0.06250        0.43750
 BRILLOUIN|    41           0.00391       -0.43750        0.18750       -0.43750
 BRILLOUIN|    42           0.00391       -0.43750        0.18750       -0.31250
 BRILLOUIN|    43           0.00391       -0.43750        0.18750       -0.18750
 BRILLOUIN|    44           0.00391       -0.43750        0.18750       -0.06250
 BRILLOUIN|    45           0.00391       -0.43750        0.18750        0.06250
 BRILLOUIN|    46           0.00391       -0.43750        0.18750        0.18750
 BRILLOUIN|    47           0.00391       -0.43750        0.18750        0.31250
 BRILLOUIN|    48           0.00391       -0.43750        0.18750        0.43750
 BRILLOUIN|    49           0.00391       -0.43750        0.31250       -0.43750
 BRILLOUIN|    50           0.00391       -0.43750        0.31250       -0.31250
 BRILLOUIN|    51           0.00391       -0.43750        0.31250       -0.18750
 BRILLOUIN|    52           0.00391       -0.43750        0.31250       -0.06250
 BRILLOUIN|    53           0.00391       -0.43750        0.31250        0.06250
 BRILLOUIN|    54           0.00391       -0.43750        0.31250        0.18750
 BRILLOUIN|    55           0.00391       -0.43750        0.31250        0.31250
 BRILLOUIN|    56           0.00391       -0.43750        0.31250        0.43750
 BRILLOUIN|    57           0.00391       -0.43750        0.43750       -0.43750
 BRILLOUIN|    58           0.00391       -0.43750        0.43750       -0.31250
 BRILLOUIN|    59           0.00391       -0.43750        0.43750       -0.18750
 BRILLOUIN|    60           0.00391       -0.43750        0.43750       -0.06250
 BRILLOUIN|    61           0.00391       -0.43750        0.43750        0.06250
 BRILLOUIN|    62           0.00391       -0.43750        0.43750        0.18750
 BRILLOUIN|    63           0.00391       -0.43750        0.43750        0.31250
 BRILLOUIN|    64           0.00391       -0.43750        0.43750        0.43750
 BRILLOUIN|    65           0.00391       -0.31250       -0.43750       -0.43750
 BRILLOUIN|    66           0.00391       -0.31250       -0.43750       -0.31250
 BRILLOUIN|    67           0.00391       -0.31250       -0.43750       -0.18750
 BRILLOUIN|    68           0.00391       -0.31250       -0.43750       -0.06250
 BRILLOUIN|    69           0.00391       -0.31250       -0.43750        0.06250
 BRILLOUIN|    70           0.00391       -0.31250       -0.43750        0.18750
 BRILLOUIN|    71           0.00391       -0.31250       -0.43750        0.31250
 BRILLOUIN|    72           0.00391       -0.31250       -0.43750        0.43750
 BRILLOUIN|    73           0.00391       -0.31250       -0.31250       -0.43750
 BRILLOUIN|    74           0.00391       -0.31250       -0.31250       -0.31250
 BRILLOUIN|    75           0.00391       -0.31250       -0.31250       -0.18750
 BRILLOUIN|    76           0.00391       -0.31250       -0.31250       -0.06250
 BRILLOUIN|    77           0.00391       -0.31250       -0.31250        0.06250
 BRILLOUIN|    78           0.00391       -0.31250       -0.31250        0.18750
 BRILLOUIN|    79           0.00391       -0.31250       -0.31250        0.31250
 BRILLOUIN|    80           0.00391       -0.31250       -0.31250        0.43750
 BRILLOUIN|    81           0.00391       -0.31250       -0.18750       -0.43750
 BRILLOUIN|    82           0.00391       -0.31250       -0.18750       -0.31250
 BRILLOUIN|    83           0.00391       -0.31250       -0.18750       -0.18750
 BRILLOUIN|    84           0.00391       -0.31250       -0.18750       -0.06250
 BRILLOUIN|    85           0.00391       -0.31250       -0.18750        0.06250
 BRILLOUIN|    86           0.00391       -0.31250       -0.18750        0.18750
 BRILLOUIN|    87           0.00391       -0.31250       -0.18750        0.31250
 BRILLOUIN|    88           0.00391       -0.31250       -0.18750        0.43750
 BRILLOUIN|    89           0.00391       -0.31250       -0.06250       -0.43750
 BRILLOUIN|    90           0.00391       -0.31250       -0.06250       -0.31250
 BRILLOUIN|    91           0.00391       -0.31250       -0.06250       -0.18750
 BRILLOUIN|    92           0.00391       -0.31250       -0.06250       -0.06250
 BRILLOUIN|    93           0.00391       -0.31250       -0.06250        0.06250
 BRILLOUIN|    94           0.00391       -0.31250       -0.06250        0.18750
 BRILLOUIN|    95           0.00391       -0.31250       -0.06250        0.31250
 BRILLOUIN|    96           0.00391       -0.31250       -0.06250        0.43750
 BRILLOUIN|    97           0.00391       -0.31250        0.06250       -0.43750
 BRILLOUIN|    98           0.00391       -0.31250        0.06250       -0.31250
 BRILLOUIN|    99           0.00391       -0.31250        0.06250       -0.18750
 BRILLOUIN|   100           0.00391       -0.31250        0.06250       -0.06250
 BRILLOUIN|   101           0.00391       -0.31250        0.06250        0.06250
 BRILLOUIN|   102           0.00391       -0.31250        0.06250        0.18750
 BRILLOUIN|   103           0.00391       -0.31250        0.06250        0.31250
 BRILLOUIN|   104           0.00391       -0.31250        0.06250        0.43750
 BRILLOUIN|   105           0.00391       -0.31250        0.18750       -0.43750
 BRILLOUIN|   106           0.00391       -0.31250        0.18750       -0.31250
 BRILLOUIN|   107           0.00391       -0.31250        0.18750       -0.18750
 BRILLOUIN|   108           0.00391       -0.31250        0.18750       -0.06250
 BRILLOUIN|   109           0.00391       -0.31250        0.18750        0.06250
 BRILLOUIN|   110           0.00391       -0.31250        0.18750        0.18750
 BRILLOUIN|   111           0.00391       -0.31250        0.18750        0.31250
 BRILLOUIN|   112           0.00391       -0.31250        0.18750        0.43750
 BRILLOUIN|   113           0.00391       -0.31250        0.31250       -0.43750
 BRILLOUIN|   114           0.00391       -0.31250        0.31250       -0.31250
 BRILLOUIN|   115           0.00391       -0.31250        0.31250       -0.18750
 BRILLOUIN|   116           0.00391       -0.31250        0.31250       -0.06250
 BRILLOUIN|   117           0.00391       -0.31250        0.31250        0.06250
 BRILLOUIN|   118           0.00391       -0.31250        0.31250        0.18750
 BRILLOUIN|   119           0.00391       -0.31250        0.31250        0.31250
 BRILLOUIN|   120           0.00391       -0.31250        0.31250        0.43750
 BRILLOUIN|   121           0.00391       -0.31250        0.43750       -0.43750
 BRILLOUIN|   122           0.00391       -0.31250        0.43750       -0.31250
 BRILLOUIN|   123           0.00391       -0.31250        0.43750       -0.18750
 BRILLOUIN|   124           0.00391       -0.31250        0.43750       -0.06250
 BRILLOUIN|   125           0.00391       -0.31250        0.43750        0.06250
 BRILLOUIN|   126           0.00391       -0.31250        0.43750        0.18750
 BRILLOUIN|   127           0.00391       -0.31250        0.43750        0.31250
 BRILLOUIN|   128           0.00391       -0.31250        0.43750        0.43750
 BRILLOUIN|   129           0.00391       -0.18750       -0.43750       -0.43750
 BRILLOUIN|   130           0.00391       -0.18750       -0.43750       -0.31250
 BRILLOUIN|   131           0.00391       -0.18750       -0.43750       -0.18750
 BRILLOUIN|   132           0.00391       -0.18750       -0.43750       -0.06250
 BRILLOUIN|   133           0.00391       -0.18750       -0.43750        0.06250
 BRILLOUIN|   134           0.00391       -0.18750       -0.43750        0.18750
 BRILLOUIN|   135           0.00391       -0.18750       -0.43750        0.31250
 BRILLOUIN|   136           0.00391       -0.18750       -0.43750        0.43750
 BRILLOUIN|   137           0.00391       -0.18750       -0.31250       -0.43750
 BRILLOUIN|   138           0.00391       -0.18750       -0.31250       -0.31250
 BRILLOUIN|   139           0.00391       -0.18750       -0.31250       -0.18750
 BRILLOUIN|   140           0.00391       -0.18750       -0.31250       -0.06250
 BRILLOUIN|   141           0.00391       -0.18750       -0.31250        0.06250
 BRILLOUIN|   142           0.00391       -0.18750       -0.31250        0.18750
 BRILLOUIN|   143           0.00391       -0.18750       -0.31250        0.31250
 BRILLOUIN|   144           0.00391       -0.18750       -0.31250        0.43750
 BRILLOUIN|   145           0.00391       -0.18750       -0.18750       -0.43750
 BRILLOUIN|   146           0.00391       -0.18750       -0.18750       -0.31250
 BRILLOUIN|   147           0.00391       -0.18750       -0.18750       -0.18750
 BRILLOUIN|   148           0.00391       -0.18750       -0.18750       -0.06250
 BRILLOUIN|   149           0.00391       -0.18750       -0.18750        0.06250
 BRILLOUIN|   150           0.00391       -0.18750       -0.18750        0.18750
 BRILLOUIN|   151           0.00391       -0.18750       -0.18750        0.31250
 BRILLOUIN|   152           0.00391       -0.18750       -0.18750        0.43750
 BRILLOUIN|   153           0.00391       -0.18750       -0.06250       -0.43750
 BRILLOUIN|   154           0.00391       -0.18750       -0.06250       -0.31250
 BRILLOUIN|   155           0.00391       -0.18750       -0.06250       -0.18750
 BRILLOUIN|   156           0.00391       -0.18750       -0.06250       -0.06250
 BRILLOUIN|   157           0.00391       -0.18750       -0.06250        0.06250
 BRILLOUIN|   158           0.00391       -0.18750       -0.06250        0.18750
 BRILLOUIN|   159           0.00391       -0.18750       -0.06250        0.31250
 BRILLOUIN|   160           0.00391       -0.18750       -0.06250        0.43750
 BRILLOUIN|   161           0.00391       -0.18750        0.06250       -0.43750
 BRILLOUIN|   162           0.00391       -0.18750        0.06250       -0.31250
 BRILLOUIN|   163           0.00391       -0.18750        0.06250       -0.18750
 BRILLOUIN|   164           0.00391       -0.18750        0.06250       -0.06250
 BRILLOUIN|   165           0.00391       -0.18750        0.06250        0.06250
 BRILLOUIN|   166           0.00391       -0.18750        0.06250        0.18750
 BRILLOUIN|   167           0.00391       -0.18750        0.06250        0.31250
 BRILLOUIN|   168           0.00391       -0.18750        0.06250        0.43750
 BRILLOUIN|   169           0.00391       -0.18750        0.18750       -0.43750
 BRILLOUIN|   170           0.00391       -0.18750        0.18750       -0.31250
 BRILLOUIN|   171           0.00391       -0.18750        0.18750       -0.18750
 BRILLOUIN|   172           0.00391       -0.18750        0.18750       -0.06250
 BRILLOUIN|   173           0.00391       -0.18750        0.18750        0.06250
 BRILLOUIN|   174           0.00391       -0.18750        0.18750        0.18750
 BRILLOUIN|   175           0.00391       -0.18750        0.18750        0.31250
 BRILLOUIN|   176           0.00391       -0.18750        0.18750        0.43750
 BRILLOUIN|   177           0.00391       -0.18750        0.31250       -0.43750
 BRILLOUIN|   178           0.00391       -0.18750        0.31250       -0.31250
 BRILLOUIN|   179           0.00391       -0.18750        0.31250       -0.18750
 BRILLOUIN|   180           0.00391       -0.18750        0.31250       -0.06250
 BRILLOUIN|   181           0.00391       -0.18750        0.31250        0.06250
 BRILLOUIN|   182           0.00391       -0.18750        0.31250        0.18750
 BRILLOUIN|   183           0.00391       -0.18750        0.31250        0.31250
 BRILLOUIN|   184           0.00391       -0.18750        0.31250        0.43750
 BRILLOUIN|   185           0.00391       -0.18750        0.43750       -0.43750
 BRILLOUIN|   186           0.00391       -0.18750        0.43750       -0.31250
 BRILLOUIN|   187           0.00391       -0.18750        0.43750       -0.18750
 BRILLOUIN|   188           0.00391       -0.18750        0.43750       -0.06250
 BRILLOUIN|   189           0.00391       -0.18750        0.43750        0.06250
 BRILLOUIN|   190           0.00391       -0.18750        0.43750        0.18750
 BRILLOUIN|   191           0.00391       -0.18750        0.43750        0.31250
 BRILLOUIN|   192           0.00391       -0.18750        0.43750        0.43750
 BRILLOUIN|   193           0.00391       -0.06250       -0.43750       -0.43750
 BRILLOUIN|   194           0.00391       -0.06250       -0.43750       -0.31250
 BRILLOUIN|   195           0.00391       -0.06250       -0.43750       -0.18750
 BRILLOUIN|   196           0.00391       -0.06250       -0.43750       -0.06250
 BRILLOUIN|   197           0.00391       -0.06250       -0.43750        0.06250
 BRILLOUIN|   198           0.00391       -0.06250       -0.43750        0.18750
 BRILLOUIN|   199           0.00391       -0.06250       -0.43750        0.31250
 BRILLOUIN|   200           0.00391       -0.06250       -0.43750        0.43750
 BRILLOUIN|   201           0.00391       -0.06250       -0.31250       -0.43750
 BRILLOUIN|   202           0.00391       -0.06250       -0.31250       -0.31250
 BRILLOUIN|   203           0.00391       -0.06250       -0.31250       -0.18750
 BRILLOUIN|   204           0.00391       -0.06250       -0.31250       -0.06250
 BRILLOUIN|   205           0.00391       -0.06250       -0.31250        0.06250
 BRILLOUIN|   206           0.00391       -0.06250       -0.31250        0.18750
 BRILLOUIN|   207           0.00391       -0.06250       -0.31250        0.31250
 BRILLOUIN|   208           0.00391       -0.06250       -0.31250        0.43750
 BRILLOUIN|   209           0.00391       -0.06250       -0.18750       -0.43750
 BRILLOUIN|   210           0.00391       -0.06250       -0.18750       -0.31250
 BRILLOUIN|   211           0.00391       -0.06250       -0.18750       -0.18750
 BRILLOUIN|   212           0.00391       -0.06250       -0.18750       -0.06250
 BRILLOUIN|   213           0.00391       -0.06250       -0.18750        0.06250
 BRILLOUIN|   214           0.00391       -0.06250       -0.18750        0.18750
 BRILLOUIN|   215           0.00391       -0.06250       -0.18750        0.31250
 BRILLOUIN|   216           0.00391       -0.06250       -0.18750        0.43750
 BRILLOUIN|   217           0.00391       -0.06250       -0.06250       -0.43750
 BRILLOUIN|   218           0.00391       -0.06250       -0.06250       -0.31250
 BRILLOUIN|   219           0.00391       -0.06250       -0.06250       -0.18750
 BRILLOUIN|   220           0.00391       -0.06250       -0.06250       -0.06250
 BRILLOUIN|   221           0.00391       -0.06250       -0.06250        0.06250
 BRILLOUIN|   222           0.00391       -0.06250       -0.06250        0.18750
 BRILLOUIN|   223           0.00391       -0.06250       -0.06250        0.31250
 BRILLOUIN|   224           0.00391       -0.06250       -0.06250        0.43750
 BRILLOUIN|   225           0.00391       -0.06250        0.06250       -0.43750
 BRILLOUIN|   226           0.00391       -0.06250        0.06250       -0.31250
 BRILLOUIN|   227           0.00391       -0.06250        0.06250       -0.18750
 BRILLOUIN|   228           0.00391       -0.06250        0.06250       -0.06250
 BRILLOUIN|   229           0.00391       -0.06250        0.06250        0.06250
 BRILLOUIN|   230           0.00391       -0.06250        0.06250        0.18750
 BRILLOUIN|   231           0.00391       -0.06250        0.06250        0.31250
 BRILLOUIN|   232           0.00391       -0.06250        0.06250        0.43750
 BRILLOUIN|   233           0.00391       -0.06250        0.18750       -0.43750
 BRILLOUIN|   234           0.00391       -0.06250        0.18750       -0.31250
 BRILLOUIN|   235           0.00391       -0.06250        0.18750       -0.18750
 BRILLOUIN|   236           0.00391       -0.06250        0.18750       -0.06250
 BRILLOUIN|   237           0.00391       -0.06250        0.18750        0.06250
 BRILLOUIN|   238           0.00391       -0.06250        0.18750        0.18750
 BRILLOUIN|   239           0.00391       -0.06250        0.18750        0.31250
 BRILLOUIN|   240           0.00391       -0.06250        0.18750        0.43750
 BRILLOUIN|   241           0.00391       -0.06250        0.31250       -0.43750
 BRILLOUIN|   242           0.00391       -0.06250        0.31250       -0.31250
 BRILLOUIN|   243           0.00391       -0.06250        0.31250       -0.18750
 BRILLOUIN|   244           0.00391       -0.06250        0.31250       -0.06250
 BRILLOUIN|   245           0.00391       -0.06250        0.31250        0.06250
 BRILLOUIN|   246           0.00391       -0.06250        0.31250        0.18750
 BRILLOUIN|   247           0.00391       -0.06250        0.31250        0.31250
 BRILLOUIN|   248           0.00391       -0.06250        0.31250        0.43750
 BRILLOUIN|   249           0.00391       -0.06250        0.43750       -0.43750
 BRILLOUIN|   250           0.00391       -0.06250        0.43750       -0.31250
 BRILLOUIN|   251           0.00391       -0.06250        0.43750       -0.18750
 BRILLOUIN|   252           0.00391       -0.06250        0.43750       -0.06250
 BRILLOUIN|   253           0.00391       -0.06250        0.43750        0.06250
 BRILLOUIN|   254           0.00391       -0.06250        0.43750        0.18750
 BRILLOUIN|   255           0.00391       -0.06250        0.43750        0.31250
 BRILLOUIN|   256           0.00391       -0.06250        0.43750        0.43750
 *******************************************************************************

 *******************************************************************************
 *******************************************************************************
 **                                                                           **
 **     #####                         ##              ##                      **
 **    ##   ##            ##          ##              ##                      **
 **   ##     ##                       ##            ######                    **
 **   ##     ##  ##   ##  ##   #####  ##  ##   ####   ##    #####    #####    **
 **   ##     ##  ##   ##  ##  ##      ## ##   ##      ##   ##   ##  ##   ##   **
 **   ##  ## ##  ##   ##  ##  ##      ####     ###    ##   ######   ######    **
 **    ##  ###   ##   ##  ##  ##      ## ##      ##   ##   ##       ##        **
 **     #######   #####   ##   #####  ##  ##  ####    ##    #####   ##        **
 **           ##                                                    ##        **
 **                                                                           **
 **                                                ... make the atoms dance   **
 **                                                                           **
 **            Copyright (C) by CP2K developers group (2000-2025)             **
 **                      J. Chem. Phys. 152, 194103 (2020)                    **
 **                                                                           **
 *******************************************************************************

 DFT| Spin restricted Kohn-Sham (RKS) calculation                            RKS
 DFT| Multiplicity                                                             1
 DFT| Number of spin states                                                    1
 DFT| Charge                                                                   0
 DFT| Self-interaction correction (SIC)                                       NO
 DFT| Cutoffs: density                                              1.000000E-10
 DFT|          gradient                                             1.000000E-10
 DFT|          tau                                                  1.000000E-10
 DFT|          cutoff_smoothing_range                               0.000000E+00
 DFT| XC density smoothing                                                  NONE
 DFT| XC derivatives                                                          PW

 FUNCTIONAL| PBE:
 FUNCTIONAL| J.P.Perdew, K.Burke, M.Ernzerhof, Phys. Rev. Letter, vol. 77, n 18,
 FUNCTIONAL|  pp. 3865-3868, (1996) {spin unpolarized}                          


 QS| Method:                                                                 GPW
 QS| Density plane wave grid type                        NON-SPHERICAL FULLSPACE
 QS| Number of grid levels:                                                    4
 QS| Density cutoff [a.u.]:                                                500.0
 QS| Multi grid cutoff [a.u.]: 1) grid level                               500.0
 QS|                           2) grid level                               166.7
 QS|                           3) grid level                                55.6
 QS|                           4) grid level                                18.5
 QS| Grid level progression factor:                                          3.0
 QS| Relative density cutoff [a.u.]:                                        50.0
 QS| Interaction thresholds: eps_pgf_orb:                                1.0E-16
 QS|                         eps_filter_matrix:                          0.0E+00
 QS|                         eps_core_charge:                            1.0E-18
 QS|                         eps_rho_gspace:                             1.0E-16
 QS|                         eps_rho_rspace:                             1.0E-16
 QS|                         eps_gvg_rspace:                             1.0E-08
 QS|                         eps_ppl:                                    1.0E-02
 QS|                         eps_ppnl:                                   1.0E-10


 ATOMIC KIND INFORMATION

  1. Atomic kind: Cd                                    Number of atoms:       2

     Orbital Basis Set                                     SZV-MOLOPT-SR-GTH-q12

       Number of orbital shell sets:                                           1
       Number of orbital shells:                                               3
       Number of primitive Cartesian functions:                                5
       Number of Cartesian basis functions:                                   10
       Number of spherical basis functions:                                    9
       Norm type:                                                              2

       Normalised Cartesian orbitals:

                        Set   Shell   Orbital            Exponent    Coefficient

                          1       1    2s                2.617301       0.080806
                                                         1.315618      -0.094805
                                                         0.573376      -0.190928
                                                         0.222222       0.125971
                                                         0.076307       0.079094

                          1       2    3px               2.617301       0.142128
                                                         1.315618      -0.180099
                                                         0.573376      -0.054848
                                                         0.222222       0.084671
                                                         0.076307       0.042178
                          1       2    3py               2.617301       0.142128
                                                         1.315618      -0.180099
                                                         0.573376      -0.054848
                                                         0.222222       0.084671
                                                         0.076307       0.042178
                          1       2    3pz               2.617301       0.142128
                                                         1.315618      -0.180099
                                                         0.573376      -0.054848
                                                         0.222222       0.084671
                                                         0.076307       0.042178

                          1       3    4dx2              2.617301      -2.374356
                                                         1.315618      -1.074611
                                                         0.573376      -0.223738
                                                         0.222222      -0.019807
                                                         0.076307      -0.000238
                          1       3    4dxy              2.617301      -4.112506
                                                         1.315618      -1.861281
                                                         0.573376      -0.387526
                                                         0.222222      -0.034306
                                                         0.076307      -0.000412
                          1       3    4dxz              2.617301      -4.112506
                                                         1.315618      -1.861281
                                                         0.573376      -0.387526
                                                         0.222222      -0.034306
                                                         0.076307      -0.000412
                          1       3    4dy2              2.617301      -2.374356
                                                         1.315618      -1.074611
                                                         0.573376      -0.223738
                                                         0.222222      -0.019807
                                                         0.076307      -0.000238
                          1       3    4dyz              2.617301      -4.112506
                                                         1.315618      -1.861281
                                                         0.573376      -0.387526
                                                         0.222222      -0.034306
                                                         0.076307      -0.000412
                          1       3    4dz2              2.617301      -2.374356
                                                         1.315618      -1.074611
                                                         0.573376      -0.223738
                                                         0.222222      -0.019807
                                                         0.076307      -0.000238

       Atomic covalent radius [Angstrom]:                                  1.480

       Atomic van der Waals radius [Angstrom]:                             1.580

     GTH Potential information for                                   GTH-PBE-q12

       Description:                       Goedecker-Teter-Hutter pseudopotential
                                           Goedecker et al., PRB 54, 1703 (1996)
                                          Hartwigsen et al., PRB 58, 3641 (1998)
                                                      Krack, TCA 114, 145 (2005)

       Gaussian exponent of the core charge distribution:               1.652893
       Electronic configuration (s p d ...):                           2   0  10

       Parameters of the local part of the GTH pseudopotential:

                          rloc        C1          C2          C3          C4
                        0.550000    3.633959

       Parameters of the non-local part of the GTH (SOC) pseudopotential:

                   l      r(l)      h(i,j,l)
                                    k(i,j,l)
                   0    0.491279   10.111382   -6.506954    1.804577
                                   -6.506954   11.335586   -4.659397
                                    1.804577   -4.659397    3.698282
                   1    0.599710    4.001487   -1.883936
                                   -1.883936    2.229103
                                    0.289311   -0.455439
                                   -0.455439    0.538883
                   2    0.377873   -6.137032    1.535711
                                    1.535711   -1.741332
                                   -0.061284    0.114110
                                    0.114110   -0.129389


 MOLECULE KIND INFORMATION


 All atoms are their own molecule, skipping detailed information


 TOTAL NUMBERS AND MAXIMUM NUMBERS

  Total number of            - Atomic kinds:                                   1
                             - Atoms:                                          2
                             - Shell sets:                                     2
                             - Shells:                                         6
                             - Primitive Cartesian functions:                 10
                             - Cartesian basis functions:                     20
                             - Spherical basis functions:                     18

  Maximum angular momentum of- Orbital basis functions:                        2
                             - Local part of the GTH pseudopotential:          0
                             - Non-local part of the GTH pseudopotential:      4


 MODULE QUICKSTEP: ATOMIC COORDINATES IN ANGSTROM

   Atom Kind Element         X             Y             Z       Z(eff)     Mass
      1    1 Cd   48      0.000000      0.000000      0.000000  12.0000 112.4110
      2    1 Cd   48      1.518565      0.876744      2.885305  12.0000 112.4110



 SCF PARAMETERS         Density guess:                                    ATOMIC
                        --------------------------------------------------------
                        max_scf:                                             500
                        max_scf_history:                                       0
                        max_diis:                                              4
                        --------------------------------------------------------
                        eps_scf:                                        1.00E-09
                        eps_scf_history:                                0.00E+00
                        eps_diis:                                       1.00E-01
                        eps_eigval:                                     1.00E-05
                        --------------------------------------------------------
                        level_shift [a.u.]:                             0.000000
                        added MOs                                         6    0
                        --------------------------------------------------------
                        Mixing method:                            BROYDEN_MIXING
                                                charge density mixing in g-space
                        --------------------------------------------------------
                        Smear method:                                FERMI_DIRAC
                        Electronic temperature [K]:                        300.0
                        Electronic temperature [a.u.]:                  9.50E-04
                        Accuracy threshold:                             1.00E-10
                        --------------------------------------------------------
                        No outer SCF

 PW_GRID| Information for grid number                                          1
 PW_GRID| Grid distributed over                                     8 processors
 PW_GRID| Real space group dimensions                                     8    1
 PW_GRID| the grid is blocked:                                                NO
 PW_GRID| Cutoff [a.u.]                                                    500.0
 PW_GRID| spherical cutoff:                                                   NO
 PW_GRID|   Bounds   1            -30      29                Points:          60
 PW_GRID|   Bounds   2            -30      29                Points:          60
 PW_GRID|   Bounds   3            -60      59                Points:         120
 PW_GRID| Volume element (a.u.^3)  0.7201E-03     Volume (a.u.^3)       311.0887
 PW_GRID| Grid span                                                    FULLSPACE
 PW_GRID|   Distribution                         Average         Max         Min
 PW_GRID|   G-Vectors                            54000.0       54000       54000
 PW_GRID|   G-Rays                                 900.0         900         900
 PW_GRID|   Real Space Points                    54000.0       57600       50400

 PW_GRID| Information for grid number                                          2
 PW_GRID| Number of the reference grid                                         1
 PW_GRID| Grid distributed over                                     8 processors
 PW_GRID| Real space group dimensions                                     8    1
 PW_GRID| the grid is blocked:                                                NO
 PW_GRID| Cutoff [a.u.]                                                    166.7
 PW_GRID| spherical cutoff:                                                   NO
 PW_GRID|   Bounds   1            -18      17                Points:          36
 PW_GRID|   Bounds   2            -18      17                Points:          36
 PW_GRID|   Bounds   3            -32      31                Points:          64
 PW_GRID| Volume element (a.u.^3)  0.3751E-02     Volume (a.u.^3)       311.0887
 PW_GRID| Grid span                                                    FULLSPACE
 PW_GRID|   Distribution                         Average         Max         Min
 PW_GRID|   G-Vectors                            10368.0       10476       10260
 PW_GRID|   G-Rays                                 288.0         291         285
 PW_GRID|   Real Space Points                    10368.0       11520        9216

 PW_GRID| Information for grid number                                          3
 PW_GRID| Number of the reference grid                                         1
 PW_GRID| Grid distributed over                                     8 processors
 PW_GRID| Real space group dimensions                                     8    1
 PW_GRID| the grid is blocked:                                                NO
 PW_GRID| Cutoff [a.u.]                                                     55.6
 PW_GRID| spherical cutoff:                                                   NO
 PW_GRID|   Bounds   1            -10       9                Points:          20
 PW_GRID|   Bounds   2            -10       9                Points:          20
 PW_GRID|   Bounds   3            -20      19                Points:          40
 PW_GRID| Volume element (a.u.^3)  0.1944E-01     Volume (a.u.^3)       311.0887
 PW_GRID| Grid span                                                    FULLSPACE
 PW_GRID|   Distribution                         Average         Max         Min
 PW_GRID|   G-Vectors                             2000.0        2040        1960
 PW_GRID|   G-Rays                                 100.0         102          98
 PW_GRID|   Real Space Points                     2000.0        2400        1600

 PW_GRID| Information for grid number                                          4
 PW_GRID| Number of the reference grid                                         1
 PW_GRID| Grid distributed over                                     8 processors
 PW_GRID| Real space group dimensions                                     8    1
 PW_GRID| the grid is blocked:                                                NO
 PW_GRID| Cutoff [a.u.]                                                     18.5
 PW_GRID| spherical cutoff:                                                   NO
 PW_GRID|   Bounds   1             -6       5                Points:          12
 PW_GRID|   Bounds   2             -6       5                Points:          12
 PW_GRID|   Bounds   3            -12      11                Points:          24
 PW_GRID| Volume element (a.u.^3)  0.9001E-01     Volume (a.u.^3)       311.0887
 PW_GRID| Grid span                                                    FULLSPACE
 PW_GRID|   Distribution                         Average         Max         Min
 PW_GRID|   G-Vectors                              432.0         444         408
 PW_GRID|   G-Rays                                  36.0          37          34
 PW_GRID|   Real Space Points                      432.0         576         288

 POISSON| Solver                                                        PERIODIC
 POISSON| Periodicity                                                        XYZ

 RS_GRID| Information for grid number                                          1
 RS_GRID|   Bounds   1            -30      29                Points:          60
 RS_GRID|   Bounds   2            -30      29                Points:          60
 RS_GRID|   Bounds   3            -60      59                Points:         120
 RS_GRID| Real space fully replicated
 RS_GRID| Group size                                                           1

 RS_GRID| Information for grid number                                          2
 RS_GRID|   Bounds   1            -18      17                Points:          36
 RS_GRID|   Bounds   2            -18      17                Points:          36
 RS_GRID|   Bounds   3            -32      31                Points:          64
 RS_GRID| Real space fully replicated
 RS_GRID| Group size                                                           1

 RS_GRID| Information for grid number                                          3
 RS_GRID|   Bounds   1            -10       9                Points:          20
 RS_GRID|   Bounds   2            -10       9                Points:          20
 RS_GRID|   Bounds   3            -20      19                Points:          40
 RS_GRID| Real space fully replicated
 RS_GRID| Group size                                                           1

 RS_GRID| Information for grid number                                          4
 RS_GRID|   Bounds   1             -6       5                Points:          12
 RS_GRID|   Bounds   2             -6       5                Points:          12
 RS_GRID|   Bounds   3            -12      11                Points:          24
 RS_GRID| Real space fully replicated
 RS_GRID| Group size                                                           1

 Number of electrons:                                                         24
 Number of occupied orbitals:                                                 12
 Number of molecular orbitals:                                                18

 Number of orbital functions:                                                 18
 Number of independent orbital functions:                                     18

 Extrapolation method: initial_guess

 Atomic guess: The first density matrix is obtained in terms of atomic orbitals
               and electronic configurations assigned to each atomic kind

 Guess for atomic kind: Cd

 Electronic structure
    Total number of core electrons                                         36.00
    Total number of valence electrons                                      12.00
    Total number of electrons                                              48.00
    Multiplicity                                                   not specified
    S   [  2.00  2.00  2.00  2.00] 2.00
    P   [  6.00  6.00  6.00]
    D   [ 10.00]10.00


 *******************************************************************************
                  Iteration          Convergence                     Energy [au]
 *******************************************************************************
                          1         0.00000                     -45.795844140623

 Energy components [Hartree]           Total Energy ::          -45.795844140623
                                        Band Energy ::            0.454614713931
                                     Kinetic Energy ::           38.330137042664
                                   Potential Energy ::          -84.125981183287
                                      Virial (-V/T) ::            2.194773817001
                                        Core Energy ::          -82.943198787514
                                          XC Energy ::           -6.448137013130
                                     Coulomb Energy ::           43.595491660021
                       Total Pseudopotential Energy ::         -121.380250347317
                       Local Pseudopotential Energy ::         -101.202860123566
                    Nonlocal Pseudopotential Energy ::          -20.177390223751
                                        Confinement ::            1.069145171392

 Orbital energies  State     L     Occupation   Energy[a.u.]          Energy[eV]

                       1     0          2.000      -0.261461           -7.114711

                       1     2         10.000       0.097754            2.660012


 Total Electron Density at R=0:                                         0.000000
 Re-scaling the density matrix to get the right number of electrons
                  # Electrons              Trace(P)               Scaling factor
                           24                24.000                        1.000


 SCF WAVEFUNCTION OPTIMIZATION

  Step     Update method      Time    Convergence         Total energy    Change
  ------------------------------------------------------------------------------
     1 NoMix/Diag. 0.10E+00    2.6     1.13652086       -92.2880844508 -9.23E+01
     2 Broy./Diag. 0.10E+00    2.8     0.00055372       -92.5662125619 -2.78E-01
     3 Broy./Diag. 0.10E+00    2.8     0.01008887       -92.2338394887  3.32E-01
     4 Broy./Diag. 0.10E+00    2.8     0.00010572       -92.1470373248  8.68E-02
     5 Broy./Diag. 0.10E+00    2.8     0.00097659       -92.1276495669  1.94E-02
     6 Broy./Diag. 0.10E+00    2.9     0.00002698       -92.1241672716  3.48E-03
     7 Broy./Diag. 0.10E+00    2.8     0.00031334       -92.1253753718 -1.21E-03
     8 Broy./Diag. 0.10E+00    2.8     0.00001079       -92.1253642499  1.11E-05
     9 Broy./Diag. 0.10E+00    2.8     0.00007363       -92.1261645600 -8.00E-04
    10 Broy./Diag. 0.10E+00    2.8     0.00000073       -92.1262290762 -6.45E-05
    11 Broy./Diag. 0.10E+00    2.9     0.00000848       -92.1260768140  1.52E-04
    12 Broy./Diag. 0.10E+00    2.8     0.00000020       -92.1260473647  2.94E-05
    13 Broy./Diag. 0.10E+00    2.8     0.00000185       -92.1260249747  2.24E-05
    14 Broy./Diag. 0.10E+00    2.8     0.00000003       -92.1260212793  3.70E-06
    15 Broy./Diag. 0.10E+00    2.8     0.00000021       -92.1260242324 -2.95E-06
    16 Broy./Diag. 0.10E+00    2.8     0.00000004       -92.1260249741 -7.42E-07
    17 Broy./Diag. 0.10E+00    2.8     0.00000004       -92.1260249715  2.63E-09
    18 Broy./Diag. 0.10E+00    2.8     0.00000003       -92.1260247236  2.48E-07
    19 Broy./Diag. 0.10E+00    2.8     0.00000001       -92.1260245848  1.39E-07
    20 Broy./Diag. 0.10E+00    2.8     9.7956E-09       -92.1260243969  1.88E-07
    21 Broy./Diag. 0.10E+00    2.8     0.00000001       -92.1260244283 -3.15E-08
    22 Broy./Diag. 0.10E+00    2.8     0.00000001       -92.1260245491 -1.21E-07
    23 Broy./Diag. 0.10E+00    2.8     8.7327E-09       -92.1260245165  3.26E-08
    24 Broy./Diag. 0.10E+00    2.8     3.0898E-09       -92.1260244406  7.59E-08
    25 Broy./Diag. 0.10E+00    2.8     3.5780E-09       -92.1260243253  1.15E-07
    26 Broy./Diag. 0.10E+00    2.8     3.2984E-09       -92.1260242587  6.67E-08
    27 Broy./Diag. 0.10E+00    2.8     6.5030E-09       -92.1260241878  7.08E-08
    28 Broy./Diag. 0.10E+00    2.8     7.5435E-10       -92.1260241786  9.24E-09

  *** SCF run converged in    28 steps ***


  Electronic density on regular grids:        -24.0000000000        0.0000000000
  Core density on regular grids:               24.0000000000       -0.0000000000
  Total charge density on r-space grids:        0.0000000000
  Total charge density g-space grids:           0.0000000000

  Overlap energy of the core charge distribution:               0.00000000002407
  Self energy of the core charge distribution:               -147.71509096523076
  Core Hamiltonian energy:                                     48.18371985556461
  Hartree energy:                                              20.67548608174567
  Exchange-correlation energy:                                -13.27010675079482
  Electronic entropic energy:                                  -0.00003239989842
  Fermi energy:                                                 0.25258734964554

  Total energy:                                               -92.12602417858966

 !-----------------------------------------------------------------------------!
                     Mulliken Population Analysis

 #  Atom  Element  Kind  Atomic population                           Net charge
       1     Cd       1         12.000000                             -0.000000
       2     Cd       1         12.000000                              0.000000
 # Total charge                             24.000000                  0.000000

 !-----------------------------------------------------------------------------!

 !-----------------------------------------------------------------------------!
                           Hirshfeld Charges

  #Atom  Element  Kind  Ref Charge     Population                    Net charge
      1       Cd     1      12.000         12.000                         0.000
      2       Cd     1      12.000         12.000                         0.000

  Total Charge                                                            0.000
 !-----------------------------------------------------------------------------!

 KPOINTS| Band Structure Calculation
 KPOINTS| Number of k-point sets                                               1
 KPOINTS| Number of added MOs/bands                                           -1
 KPOINTS| Number of k-points in set    1                                     148
 KPOINTS| In units of b-vector [2pi/Bohr]
 KPOINTS| Special point     1 not specifi     0.000000     0.000000     0.000000
 KPOINTS| Special point     2 not specifi     0.500000     0.000000     0.000000
 KPOINTS| Special point     3 not specifi     0.333333     0.333333     0.000000
 KPOINTS| Special point     4 not specifi     0.000000     0.000000     0.000000
 KPOINTS| Time for k-point line                                            1.045

 ENERGY| Total FORCE_EVAL ( QS ) energy [hartree]            -92.126024178589660

 -------------------------------------------------------------------------------
 -                                                                             -
 -                                DBCSR STATISTICS                             -
 -                                                                             -
 -------------------------------------------------------------------------------
 COUNTER                                    TOTAL       BLAS       SMM       ACC
 flops inhomo. stacks                           0       0.0%      0.0%      0.0%
 flops total                         0.000000E+00       0.0%      0.0%      0.0%
 flops max/rank                      0.000000E+00       0.0%      0.0%      0.0%
 matmuls inhomo. stacks                         0       0.0%      0.0%      0.0%
 matmuls total                                  0       0.0%      0.0%      0.0%
 number of processed stacks                     0       0.0%      0.0%      0.0%
 average stack size                                     0.0       0.0       0.0
 marketing flops                     0.000000E+00
 -------------------------------------------------------------------------------
 -                                                                             -
 -                      DBCSR MESSAGE PASSING PERFORMANCE                      -
 -                                                                             -
 -------------------------------------------------------------------------------
 ROUTINE             CALLS      AVE VOLUME [Bytes]
 MP_Bcast                1                     12.
 MP_Allreduce           19                     21.
 MP_Alltoall        628248                    720.
 -------------------------------------------------------------------------------

 -------------------------------------------------------------------------------
 -                                                                             -
 -                                DBM STATISTICS                               -
 -                                                                             -
 -------------------------------------------------------------------------------
    M  x    N  x    K                                          COUNT     PERCENT
 -------------------------------------------------------------------------------

 -------------------------------------------------------------------------------
 -                                                                             -
 -                                GRID STATISTICS                              -
 -                                                                             -
 -------------------------------------------------------------------------------
 LP    KERNEL             BACKEND                              COUNT     PERCENT
 4     collocate general  CPU                                 262450      50.88%
 4     integrate general  CPU                                 253400      49.12%
 0     collocate general  CPU                                      4       0.00%
 0     integrate general  CPU                                      2       0.00%
 -------------------------------------------------------------------------------

 MEMORY| Estimated peak process memory [MiB]                                 288

 -------------------------------------------------------------------------------
 ----                             MULTIGRID INFO                            ----
 -------------------------------------------------------------------------------
 count for grid        1:            936          cutoff [a.u.]          500.00
 count for grid        2:           8932          cutoff [a.u.]          166.67
 count for grid        3:           5328          cutoff [a.u.]           55.56
 count for grid        4:           7978          cutoff [a.u.]           18.52
 total gridlevel count  :          23174

 -------------------------------------------------------------------------------
 -                                                                             -
 -                         MESSAGE PASSING PERFORMANCE                         -
 -                                                                             -
 -------------------------------------------------------------------------------

 ROUTINE             CALLS      AVE VOLUME [Bytes]
 MP_Group                6
 MP_Bcast           262783                  22294.
 MP_Allreduce       107517                     19.
 MP_Sync                 4
 MP_Alltoall           509                2469834.
 MP_SendRecv           826                 149558.
 MP_ISendRecv          791                 146994.
 MP_Wait            180715
 MP_comm_split           4
 MP_ISend           191564                     97.
 MP_IRecv           305792                     59.
 -------------------------------------------------------------------------------


 -------------------------------------------------------------------------------
 -                                                                             -
 -                           R E F E R E N C E S                               -
 -                                                                             -
 -------------------------------------------------------------------------------
 
 CP2K version 2025.1 (Development Version), the CP2K developers group (2025).
 CP2K is freely available from https://www.cp2k.org/ .
 
 T. D. Kuehne, M. Iannuzzi, M. Del Ben, V. V. Rybkin, P. Seewald, F. Stein, T. 
 Laino, R. Z. Khaliullin, O. Schuett, F. Schiffmann, D. Golze, J. Wilhelm, S. 
 Chulkov, M. H. Bani-Hashemian, V. Weber, U. Borstnik, M. Taillefumier, A. S. 
 Jakobovits, A. Lazzaro, H. Pabst, T. Mueller, R. Schade, M. Guidon, S. 
 Andermatt, N. Holmberg, G. K. Schenter, A. Hehn, A. Bussy, F. Belleflamme, G. 
 Tabacchi, A. Gloess, M. Lass, I. Bethune, C. J. Mundy, C. Plessl, M. Watkins, 
 J. VandeVondele, M. Krack, J. Hutter.
 J. Chem. Phys. 152, 194103 (2020).
 CP2K: An electronic structure and molecular dynamics software package - 
 Quickstep: Efficient and accurate electronic structure calculations.
 https://doi.org/10.1063/5.0007045

 O. Schuett, P. Messmer, J. Hutter, J. VandeVondele.
 Electronic Structure Calculations on Graphics Processing Units, 173-190 (2016).
 GPU-Accelerated Sparse Matrix-Matrix Multiplication for Linear Scaling Density 
 Functional Theory.
 https://doi.org/10.1002/9781118670712.ch8

 J. Hutter, M. Iannuzzi, F. Schiffmann, J. VandeVondele.
 WIREs Comput Mol Sci. 4, 15-25 (2014).
 CP2K: atomistic simulations of condensed matter systems.
 https://doi.org/10.1002/wcms.1159

 U. Borstnik, J. VandeVondele, V. Weber, J. Hutter.
 Parallel Comput. 40, 47-58 (2014).
 Sparse matrix multiplication: The distributed block-compressed sparse row 
 library.
 https://doi.org/10.1016/j.parco.2014.03.012

 J. VandeVondele, J. Hutter.
 J. Chem. Phys. 127, 114105 (2007).
 Gaussian basis sets for accurate calculations on molecular systems in gas and 
 condensed phases.
 https://doi.org/10.1063/1.2770708

 J. VandeVondele, M. Krack, F. Mohamed, M. Parrinello, T. Chassaing, J. Hutter.
 Comput. Phys. Commun. 167, 103-128 (2005).
 QUICKSTEP: Fast and accurate density functional calculations using a mixed 
 Gaussian and plane waves approach.
 https://doi.org/10.1016/j.cpc.2004.12.014

 M. Krack.
 Theor. Chem. Acc. 114, 145-152 (2005).
 Pseudopotentials for H to Kr optimized for gradient-corrected 
 exchange-correlation functionals.
 https://doi.org/10.1007/s00214-005-0655-y

 M. Frigo, S. G. Johnson.
 Proc. IEEE 93, 216-231 (2005).
 The design and implementation of FFTW3.
 https://doi.org/10.1109/JPROC.2004.840301

 C. Hartwigsen, S. Goedecker, J. Hutter.
 Phys. Rev. B 58, 3641-3662 (1998).
 Relativistic separable dual-space Gaussian pseudopotentials from H to Rn.
 https://doi.org/10.1103/PhysRevB.58.3641

 G. Lippert, J. Hutter, M. Parrinello.
 Mol. Phys. 92, 477-487 (1997).
 A hybrid Gaussian and plane wave density functional scheme.
 https://doi.org/10.1080/002689797170220

 S. Goedecker, M. Teter, J. Hutter.
 Phys. Rev. B 54, 1703-1710 (1996).
 Separable dual-space Gaussian pseudopotentials.
 https://doi.org/10.1103/PhysRevB.54.1703

 J. P. Perdew, K. Burke, M. Ernzerhof.
 Phys. Rev. Lett. 77, 3865-3868 (1996).
 Generalized gradient approximation made simple.
 https://doi.org/10.1103/PhysRevLett.77.3865


 -------------------------------------------------------------------------------
 -                                                                             -
 -                                T I M I N G                                  -
 -                                                                             -
 -------------------------------------------------------------------------------
 SUBROUTINE                       CALLS  ASD         SELF TIME        TOTAL TIME
                                MAXIMUM       AVERAGE  MAXIMUM  AVERAGE  MAXIMUM
 CP2K                                 1  1.0    0.014    0.017   83.778   83.778
 qs_energies                          1  2.0    0.006    0.016   82.522   82.528
 scf_env_do_scf                       1  3.0    0.000    0.000   79.977   79.977
 scf_env_do_scf_inner_loop           28  4.0    0.031    0.033   79.977   79.977
 do_general_diag_kp                  29  5.9    0.153    0.188   69.877   70.914
 qs_scf_new_mos_kp                   28  5.0    0.000    0.000   68.858   69.889
 mp_alltoall_i22                 107196  8.8   37.947   46.642   37.947   46.642
 dbcsr_desymmetrize_deep          61062  7.4    0.872    1.008   32.885   39.016
 dbcsr_complete_redistribute      46134  8.2    1.362    1.648   24.131   26.679
 rskp_transform                   14632  6.9    4.855   26.375    4.855   26.375
 kpoint_density_transform            28  7.0    0.071    0.086   17.586   17.612
 copy_fm_to_dbcsr                 14336  8.0    0.081    0.095   14.082   16.346
 copy_dbcsr_to_fm                 31798  6.9    0.301    0.341   15.973   16.228
 transform_dmat                    7168  8.0    2.265   12.296    2.265   12.296
 qs_ks_update_qs_env                 28  5.0    0.000    0.000    3.080    7.562
 rebuild_ks_matrix                   28  6.0    0.000    0.000    2.016    6.498
 qs_ks_build_kohn_sham_matrix        28  7.0    0.059    0.061    2.016    6.498
 sum_up_and_integrate                28  8.0    0.000    0.000    1.251    5.717
 integrate_v_rspace                  28  9.0    0.013    0.067    1.250    5.716
 transfer_rs2pw                     118  8.0    0.001    0.002    4.570    5.611
 transfer_rs2pw_500                  31  8.9    0.046    0.050    4.533    5.574
 mp_sendrecv_dv                     826 10.0    4.511    5.553    4.511    5.553
 grid_integrate_task_list            28 10.0    1.030    5.459    1.030    5.459
 qs_rho_update_rho_low               29  5.0    0.000    0.000    5.261    5.279
 calculate_rho_elec                  29  6.0    0.013    0.016    5.261    5.279
 density_rs2pw                       29  7.0    0.001    0.001    4.242    5.189
 grid_collocate_task_list            29  7.0    1.004    4.978    1.004    4.978
 mp_alltoall_d11v                321588  9.3    3.738    4.032    3.738    4.032
 dbcsr_finalize                  127808  8.3    0.514    0.554    3.460    3.888
 cp_fm_start_copy_general         43600  7.3    0.458    0.744    3.355    3.409
 mp_cart_sub                      63598  8.9    3.117    3.136    3.117    3.136
 hybrid_alltoall_any              61062  8.4    0.233    0.257    2.406    2.586
 mp_alltoall_i11v                199464  9.0    2.518    2.564    2.518    2.564
 dbcsr_merge_all                  46134 10.2    1.223    1.519    1.911    2.232
 write_kpoints_restart               28  5.0    0.009    0.014    1.801    1.801
 mp_cart_create                   31805  8.9    1.629    1.687    1.629    1.687
 mp_allgather_i                   87200  8.3    1.284    1.390    1.284    1.390
 dbcsr_dot                        70953  8.0    0.281    0.330    1.207    1.254
 mp_bcast_iv                     174566  8.3    1.053    1.214    1.053    1.214
 create_qs_kind_set                   1  2.0    0.000    0.000    1.123    1.123
 read_qs_kind                         1  3.0    0.667    0.671    1.123    1.123
 dbcsr_create_new                233351  8.0    0.808    0.874    0.974    1.069
 evaluate_core_matrix_traces         28  6.0    0.000    0.000    1.064    1.064
 calculate_ptrace_kp                 56  7.0    0.053    0.057    1.064    1.064
 mp_sum_d                         71595  8.9    0.907    1.007    0.907    1.007
 dbcsr_work_create               107196  8.8    0.633    0.652    0.916    1.005
 cp_dbcsr_alloc_block_from_nbl     9039  5.0    0.184    0.911    0.200    0.949
 dbcsr_copy                       86555  6.9    0.445    0.481    0.760    0.915
 dbcsr_iterator_start            399429  8.8    0.733    0.748    0.841    0.869
 qs_energies_init_hamiltonians        1  3.0    0.000    0.000    0.834    0.834
 dbcsr_data_new                 1161069  9.7    0.536    0.818    0.536    0.818
 dbcsr_work_destroy_all          107196  9.8    0.500    0.513    0.754    0.769
 copy_dbcsr_to_fm_bc              31798  7.9    0.294    0.312    0.666    0.681
 copy_fm_to_dbcsr_bc              14336  9.0    0.178    0.199    0.590    0.658
 self_consistency_check              28  5.0    0.050    0.053    0.586    0.596
 tree_to_linear_d                 46134 11.2    0.513    0.592    0.513    0.592
 build_core_hamiltonian_matrix        1  4.0    0.005    0.005    0.172    0.586
 dbcsr_data_release             1682622 10.1    0.539    0.564    0.539    0.564
 dbcsr_iterator_stop             399429  8.8    0.467    0.473    0.551    0.557
 cp_fm_write_unformatted           2534  6.0    0.523    0.540    0.527    0.553
 qs_env_update_s_mstruct              1  4.0    0.000    0.000    0.476    0.547
 fft_wrap_pw1pw2                    509 10.0    0.004    0.004    0.522    0.541
 calculate_rho_core                   1  5.0    0.001    0.003    0.426    0.534
 parser_read_line                145595  4.0    0.048    0.050    0.511    0.516
 cp_sm_mix                        35476  6.0    0.086    0.119    0.490    0.502
 dbcsr_destroy                   162399  8.0    0.259    0.279    0.449    0.499
 fft_wrap_pw1pw2_500                338 11.3    0.031    0.032    0.475    0.494
 parser_read_line_low               165  5.2    0.054    0.237    0.463    0.469
 mp_bcast_im                      87200  8.3    0.402    0.461    0.402    0.461
 fft3d_ps                           509 12.0    0.151    0.160    0.431    0.449
 broadcast_input_information        165  6.2    0.107    0.110    0.409    0.443
 init_scf_run                         1  3.0    0.000    0.000    0.395    0.440
 scf_env_initial_rho_setup            1  4.0    0.000    0.000    0.395    0.440
 qs_vxc_create                       28  8.0    0.000    0.000    0.345    0.346
 xc_vxc_pw_create                    28  9.0    0.013    0.014    0.344    0.345
 mp_max_d                         35478  7.0    0.319    0.338    0.319    0.338
 quick_finalize                   61062  9.4    0.152    0.195    0.248    0.335
 dbcsr_copy_into_existing         15603  9.7    0.115    0.236    0.202    0.328
 mp_waitall_1                    180715  8.3    0.148    0.303    0.148    0.303
 cp_cfm_geeig_canon                 933  6.9    0.005    0.006    0.285    0.297
 cp_cfm_heevd                      1866  7.9    0.002    0.002    0.263    0.274
 gspace_mixing                       27  5.0    0.011    0.011    0.273    0.273
 cp_cfm_heevd_base                 1866  8.9    0.261    0.272    0.261    0.272
 mixing_allocate                      1  3.0    0.007    0.007    0.072    0.268
 mp_comm_free                     95440  8.9    0.214    0.263    0.214    0.263
 mp_alltoall_z22v                   509 14.0    0.240    0.252    0.240    0.252
 calculate_first_density_matrix       1  5.0    0.001    0.001    0.200    0.246
 calculate_atomic_block_dm            1  6.0    0.001    0.001    0.198    0.243
 xc_pw_derive                       168 11.0    0.000    0.001    0.223    0.230
 potential_pw2rs                     28 10.0    0.001    0.002    0.207    0.227
 broyden_mixing                      27  6.0    0.215    0.221    0.222    0.223
 calculate_ecore_overlap              1  4.0    0.000    0.000    0.176    0.212
 mp_bcast_i_src                     660  7.2    0.176    0.208    0.176    0.208
 dbcsr_set                       154065  7.5    0.136    0.144    0.185    0.204
 qs_env_rebuild_rho                   1  5.0    0.000    0.000    0.044    0.193
 qs_rho_rebuild                       1  6.0    0.004    0.005    0.044    0.193
 xc_rho_set_and_dset_create          28 10.0    0.008    0.011    0.178    0.183
 kpoint_set_mo_occupation            28  7.0    0.140    0.154    0.156    0.162
 xc_pw_divergence                    28 10.0    0.000    0.000    0.149    0.155
 x_to_yz                            280 13.2    0.024    0.026    0.146    0.152
 dbcsr_iterator_seek             399429  9.8    0.108    0.148    0.108    0.148
 yz_to_x                            229 12.8    0.013    0.013    0.130    0.145
 build_overlap_matrix_low             1  5.0    0.009    0.013    0.041    0.143
 build_kinetic_matrix_low             1  5.0    0.009    0.013    0.040    0.142
 transfer_pw2rs                     113 11.0    0.001    0.001    0.130    0.130
 mp_bcast_am_src                    165  7.2    0.110    0.114    0.124    0.130
 dbcsr_sort_indices              130571 10.9    0.082    0.125    0.082    0.125
 dbcsr_make_index_exist          233351  9.0    0.106    0.124    0.106    0.124
 mp_sum_iv                           24  5.3    0.099    0.121    0.099    0.121
 qs_scf_ensure_work_matrices          1  3.0    0.000    0.000    0.098    0.121
 build_core_ppnl                      1  5.0    0.030    0.104    0.030    0.104
 transfer_pw2rs_500                  29 11.9    0.051    0.052    0.096    0.099
 merge_index                      46134 11.2    0.086    0.098    0.086    0.098
 dbcsr_reserve_blocks             23375  9.1    0.048    0.076    0.063    0.098
 kpoint_density_matrices             28  7.0    0.007    0.007    0.091    0.094
 cp_fm_finish_copy_general        18068  7.8    0.043    0.055    0.064    0.092
 dbcsr_reserve_all_blocks         14336 10.0    0.020    0.025    0.072    0.089
 parallel_gemm_fm                  3584  8.0    0.003    0.003    0.084    0.086
 parallel_gemm_fm_gemm             3584  9.0    0.003    0.003    0.080    0.082
 mp_irecv_iv                     174400  8.3    0.010    0.080    0.010    0.080
 cp_fm_gemm                        3584 10.0    0.077    0.079    0.077    0.079
 dbcsr_switch_data_area           61062 10.4    0.055    0.056    0.071    0.073
 scf_post_calculation_gpw             1  3.0    0.000    0.000    0.063    0.063
 write_available_results              1  4.0    0.000    0.000    0.062    0.062
 write_mo_free_results                1  5.0    0.001    0.001    0.062    0.062
 topology_control                     1  2.0    0.000    0.000    0.061    0.061
 mp_isend_dv                      44192  8.2    0.056    0.060    0.056    0.060
 dbcsr_zero                      154065  8.5    0.049    0.060    0.049    0.060
 xc_functional_eval                  28 11.0    0.000    0.000    0.055    0.057
 pbe_lda_eval                        28 12.0    0.054    0.057    0.054    0.057
 mp_isend_iv                      98248  8.3    0.015    0.057    0.015    0.057
 cp_fm_cleanup_copy_general       31056  7.0    0.033    0.034    0.051    0.052
 mp_sum_dv                          323  3.3    0.033    0.044    0.033    0.044
 read_cell_cif                        2  4.5    0.002    0.004    0.041    0.042
 mp_irecv_im2                     87200  8.3    0.005    0.041    0.005    0.041
 dbcsr_get_data_size_used        107196  9.8    0.034    0.039    0.034    0.039
 dbcsr_distribution_new           46136  8.5    0.031    0.039    0.031    0.039
 coordinate_control                   1  3.0    0.000    0.001    0.037    0.037
 coordinate_control_READ_COORDI       1  4.0    0.000    0.000    0.037    0.037
 read_coordinate_cif                  1  5.0    0.002    0.002    0.037    0.037
 dbcsr_make_dbcsr_index          130571 10.8    0.032    0.035    0.032    0.035
 build_core_ppl                       1  5.0    0.007    0.034    0.007    0.034
 qs_create_task_list                  1  5.0    0.000    0.000    0.006    0.032
 generate_qs_task_list                1  6.0    0.004    0.025    0.006    0.032
 mp_isendrecv_dv                    791 13.0    0.012    0.031    0.012    0.031
 pw_scatter_p                       280 12.2    0.029    0.031    0.029    0.031
 hirshfeld_integration                1  6.0    0.007    0.027    0.030    0.030
 pw_poisson_solve                    28  8.0    0.000    0.000    0.028    0.029
 fft_wrap_pw1pw2_170                 57 10.5    0.002    0.002    0.026    0.027
 transfer_rs2pw_170                  29  9.0    0.008    0.008    0.025    0.027
 mp_isend_im2                     49124  8.3    0.007    0.027    0.007    0.027
 dbcsr_data_copy_aa2              46134 11.0    0.016    0.026    0.016    0.026
 transfer_pw2rs_170                  28 12.0    0.008    0.009    0.023    0.026
 calculate_hirshfeld_normalizat       1  6.0    0.006    0.023    0.026    0.026
 mp_irecv_dv                      44192  8.2    0.024    0.026    0.024    0.026
 qs_init_subsys                       1  2.0    0.001    0.002    0.025    0.025
 qs_env_setup                         1  3.0    0.000    0.000    0.022    0.023
 qs_env_rebuild_pw_env                2  3.5    0.000    0.000    0.022    0.022
 pw_env_rebuild                       1  5.0    0.000    0.000    0.022    0.022
 mp_comm_size                     71939  9.0    0.019    0.022    0.019    0.022
 pw_grid_setup                        4  6.0    0.000    0.000    0.021    0.021
 pw_grid_setup_internal               4  7.0    0.001    0.001    0.020    0.021
 mp_sum_dm3                          28  8.0    0.016    0.020    0.016    0.020
 mp_comm_rank                     71939  9.0    0.017    0.018    0.017    0.018
 pw_gather_p                        229 11.8    0.016    0.017    0.016    0.017
 pw_integral_ab_c1d_c1d_gs           28  9.0    0.016    0.016    0.017    0.017
 kpoint_init_cell_index               2  3.5    0.010    0.013    0.015    0.016
 cp_cfm_gemm                       2799  7.9    0.015    0.016    0.015    0.016
 mp_recv_dv                        7602  7.0    0.002    0.013    0.002    0.013
 pw_copy                            420 10.5    0.013    0.013    0.013    0.013
 mixing_init                          1  5.0    0.011    0.012    0.012    0.012
 pw_grid_sort                         4  8.0    0.008    0.008    0.011    0.012
 restraint_control                    1  2.0    0.000    0.000    0.005    0.010
 mp_sum_i                             4  2.8    0.005    0.010    0.005    0.010
 mp_sum_l                           429  2.1    0.008    0.010    0.008    0.010
 fft_wrap_pw1pw2_60                  57 10.5    0.001    0.001    0.010    0.010
 grid_free_task_list                  1  2.0    0.008    0.009    0.008    0.009
 pw_derive                          252 11.3    0.009    0.009    0.009    0.009
 -------------------------------------------------------------------------------

 The number of warnings for this run is : 1
 
 -------------------------------------------------------------------------------
  **** **** ******  **  PROGRAM ENDED AT                 2025-08-20 16:21:17.390
 ***** ** ***  *** **   PROGRAM RAN ON                              i01r10c05s03
 **    ****   ******    PROGRAM RAN BY                                   di38fab
 ***** **    ** ** **   PROGRAM PROCESS ID                                 16952
  **** **  *******  **  PROGRAM STOPPED IN /hppfs/scratch/04/di38fab/09_GTH/Delt
                                           a_Set/Cd/SZV-MOLOPT-GTH/8x8x8
