 DBCSR| CPU Multiplication driver                                           BLAS (U)
 DBCSR| Multrec recursion limit                                              512 (U)
 DBCSR| Multiplication stack size                                           1000 (D)
 DBCSR| Maximum elements for images                                    UNLIMITED (U)
 DBCSR| Multiplicative factor virtual images                                   1 (U)
 DBCSR| Use multiplication densification                                       T (D)
 DBCSR| Multiplication size stacks                                             3 (U)
 DBCSR| Use memory pool for CPU allocation                                     F (U)
 DBCSR| Number of 3D layers                                               SINGLE (U)
 DBCSR| Use MPI memory allocation                                              F (U)
 DBCSR| Use RMA algorithm                                                      F (U)
 DBCSR| Use Communication thread                                               T (U)
 DBCSR| Communication thread load                                             45 (D)
 DBCSR| MPI: My process id                                                     0
 DBCSR| MPI: Number of processes                                               8
 DBCSR| OMP: Current number of threads                                        12
 DBCSR| OMP: Max number of threads                                            12
 DBCSR| Split modifier for TAS multiplication algorithm                  1.0E+00 (U)


  **** **** ******  **  PROGRAM STARTED AT               2025-08-04 12:47:34.529
 ***** ** ***  *** **   PROGRAM STARTED ON                          i03r08c05s09
 **    ****   ******    PROGRAM STARTED BY                               di38fab
 ***** **    ** ** **   PROGRAM PROCESS ID                                780293
  **** **  *******  **  PROGRAM STARTED IN /hppfs/scratch/04/di38fab/09_GTH/Delt
                                           a_Set/As/aug-SZV-MOLOPT-GTH-tier-1/8x
                                           8x8

 CP2K| version string:                 CP2K version 2025.1 (Development Version)
 CP2K| source code revision number:                                  git:3130539
 CP2K| cp2kflags: omp libint fftw3 libxc parallel scalapack max_contr=4         
 CP2K| is freely available from                            https://www.cp2k.org/
 CP2K| Program compiled at                         Tue Jun  3 16:14:32 CEST 2025
 CP2K| Program compiled on                                               login01
 CP2K| Program compiled for                                        Supermuc-foss
 CP2K| Data directory path                  /hppfs/work/pn36zo/di38fab/cp2k/data
 CP2K| Input file name                                                    GW.inp

 GLOBAL| Force Environment number                                              1
 GLOBAL| Basis set file name            /hppfs/scratch/04/di38fab/09_GTH/BASIS_A
 GLOBAL| Potential file name            /hppfs/work/pn36zo/di38fab/cp2k/data/GTH
 GLOBAL| MM Potential file name                                     MM_POTENTIAL
 GLOBAL| Coordinate file name                                             As.cif
 GLOBAL| Method name                                                        CP2K
 GLOBAL| Project name                                                       WSe2
 GLOBAL| Run type                                                         ENERGY
 GLOBAL| FFT library                                                       FFTW3
 GLOBAL| Diagonalization library                                       ScaLAPACK
 GLOBAL| Cholesky decomposition library                                ScaLAPACK
 GLOBAL| DGEMM library                                                      BLAS
 GLOBAL| Orthonormality check for eigenvectors                          DISABLED
 GLOBAL| Matrix multiplication library                                 ScaLAPACK
 GLOBAL| All-to-all communication in single precision                          F
 GLOBAL| FFTs using library dependent lengths                                  F
 GLOBAL| Grid backend                                                       AUTO
 GLOBAL| Global print level                                               MEDIUM
 GLOBAL| MPI I/O enabled                                                       T
 GLOBAL| Total number of message passing processes                             8
 GLOBAL| Number of threads for this process                                   12
 GLOBAL| This output is from process                                           0
 GLOBAL| OpenMP stack size per thread (OMP_STACKSIZE)                    default
 GLOBAL| CPU model name             Intel(R) Xeon(R) Platinum 8174 CPU @ 3.10GHz

 MEMORY| system memory details [Kb]
 MEMORY|                        rank 0           min           max       average
 MEMORY| MemTotal             98436664      98436664      98436664      98436664
 MEMORY| MemFree              85388460      85264336      85388460      85326398
 MEMORY| Buffers                     0             0             0             0
 MEMORY| Cached                2357168       2357168       2366056       2361612
 MEMORY| Slab                  1196804       1196804       1210252       1203528
 MEMORY| SReclaimable           267520        267520        271572        269546
 MEMORY| MemLikelyFree        88013148      87901964      88013148      87957556


 *** Fundamental physical constants (SI units) ***

 *** Literature: B. J. Mohr and B. N. Taylor,
 ***             CODATA recommended values of the fundamental physical
 ***             constants: 2006, Web Version 5.1
 ***             http://physics.nist.gov/constants

 Speed of light in vacuum [m/s]                             2.99792458000000E+08
 Magnetic constant or permeability of vacuum [N/A**2]       1.25663706143592E-06
 Electric constant or permittivity of vacuum [F/m]          8.85418781762039E-12
 Planck constant (h) [J*s]                                  6.62606896000000E-34
 Planck constant (h-bar) [J*s]                              1.05457162825177E-34
 Elementary charge [C]                                      1.60217648700000E-19
 Electron mass [kg]                                         9.10938215000000E-31
 Electron g factor [ ]                                     -2.00231930436220E+00
 Proton mass [kg]                                           1.67262163700000E-27
 Fine-structure constant                                    7.29735253760000E-03
 Rydberg constant [1/m]                                     1.09737315685270E+07
 Avogadro constant [1/mol]                                  6.02214179000000E+23
 Boltzmann constant [J/K]                                   1.38065040000000E-23
 Atomic mass unit [kg]                                      1.66053878200000E-27
 Bohr radius [m]                                            5.29177208590000E-11

 *** Conversion factors ***

 [u] -> [a.u.]                                              1.82288848426455E+03
 [Angstrom] -> [Bohr] = [a.u.]                              1.88972613288564E+00
 [a.u.] = [Bohr] -> [Angstrom]                              5.29177208590000E-01
 [a.u.] -> [s]                                              2.41888432650478E-17
 [a.u.] -> [fs]                                             2.41888432650478E-02
 [a.u.] -> [J]                                              4.35974393937059E-18
 [a.u.] -> [N]                                              8.23872205491840E-08
 [a.u.] -> [K]                                              3.15774647902944E+05
 [a.u.] -> [kJ/mol]                                         2.62549961709828E+03
 [a.u.] -> [kcal/mol]                                       6.27509468713739E+02
 [a.u.] -> [Pa]                                             2.94210107994716E+13
 [a.u.] -> [bar]                                            2.94210107994716E+08
 [a.u.] -> [atm]                                            2.90362800883016E+08
 [a.u.] -> [eV]                                             2.72113838565563E+01
 [a.u.] -> [Hz]                                             6.57968392072181E+15
 [a.u.] -> [1/cm] (wave numbers)                            2.19474631370540E+05
 [a.u./Bohr**2] -> [1/cm]                                   5.14048714338585E+03
 

 CELL_TOP| Volume [angstrom^3]:                                       136.392019
 CELL_TOP| Vector a [angstrom     3.821     0.000     0.000   |a| =     3.820550
 CELL_TOP| Vector b [angstrom    -1.910     3.309     0.000   |b| =     3.820550
 CELL_TOP| Vector c [angstrom     0.000     0.000    10.790   |c| =    10.789630
 CELL_TOP| Angle (b,c), alpha [degree]:                                90.000000
 CELL_TOP| Angle (a,c), beta  [degree]:                                90.000000
 CELL_TOP| Angle (a,b), gamma [degree]:                               120.000000
 CELL_TOP| Numerically orthorhombic:                                          NO
 CELL_TOP| Periodicity                                                       XYZ

 CELL_CIF| Volume [angstrom^3]:                                       136.392019
 CELL_CIF| Vector a [angstrom     3.821     0.000     0.000   |a| =     3.820550
 CELL_CIF| Vector b [angstrom    -1.910     3.309     0.000   |b| =     3.820550
 CELL_CIF| Vector c [angstrom     0.000     0.000    10.790   |c| =    10.789630
 CELL_CIF| Angle (b,c), alpha [degree]:                                90.000000
 CELL_CIF| Angle (a,c), beta  [degree]:                                90.000000
 CELL_CIF| Angle (a,b), gamma [degree]:                               120.000000
 CELL_CIF| Numerically orthorhombic:                                          NO
 CELL_CIF| Periodicity                                                       XYZ

 GENERATE|  Preliminary Number of Bonds generated:                             0
 GENERATE|  Achieved consistency in connectivity generation.

 CELL| Volume [angstrom^3]:                                           136.392019
 CELL| Vector a [angstrom]:       3.821     0.000     0.000   |a| =     3.820550
 CELL| Vector b [angstrom]:      -1.910     3.309     0.000   |b| =     3.820550
 CELL| Vector c [angstrom]:       0.000     0.000    10.790   |c| =    10.789630
 CELL| Angle (b,c), alpha [degree]:                                    90.000000
 CELL| Angle (a,c), beta  [degree]:                                    90.000000
 CELL| Angle (a,b), gamma [degree]:                                   120.000000
 CELL| Numerically orthorhombic:                                              NO
 CELL| Periodicity                                                           XYZ

 CELL_REF| Volume [angstrom^3]:                                       136.392019
 CELL_REF| Vector a [angstrom     3.821     0.000     0.000   |a| =     3.820550
 CELL_REF| Vector b [angstrom    -1.910     3.309     0.000   |b| =     3.820550
 CELL_REF| Vector c [angstrom     0.000     0.000    10.790   |c| =    10.789630
 CELL_REF| Angle (b,c), alpha [degree]:                                90.000000
 CELL_REF| Angle (a,c), beta  [degree]:                                90.000000
 CELL_REF| Angle (a,b), gamma [degree]:                               120.000000
 CELL_REF| Numerically orthorhombic:                                          NO
 CELL_REF| Periodicity                                                       XYZ

 *** WARNING in cryssym.F:180 :: Symmetry library SPGLIB not available ***


 *******************************************************************************
                                    Kpoints
 *******************************************************************************
 BRILLOUIN| K-point scheme                                        Monkhorst-Pack
 BRILLOUIN| K-Point grid                                             8    8    8
 BRILLOUIN| Accuracy in Symmetry determination                      0.100000E-05
 BRILLOUIN| K-Point point group symmetrization                               OFF
 BRILLOUIN| Wavefunction type                                            COMPLEX
 BRILLOUIN| List of Kpoints [2 Pi/Bohr]                                      256
 BRILLOUIN| Number           Weight            X              Y              Z
 BRILLOUIN|     1           0.00391       -0.43750       -0.43750       -0.43750
 BRILLOUIN|     2           0.00391       -0.43750       -0.43750       -0.31250
 BRILLOUIN|     3           0.00391       -0.43750       -0.43750       -0.18750
 BRILLOUIN|     4           0.00391       -0.43750       -0.43750       -0.06250
 BRILLOUIN|     5           0.00391       -0.43750       -0.43750        0.06250
 BRILLOUIN|     6           0.00391       -0.43750       -0.43750        0.18750
 BRILLOUIN|     7           0.00391       -0.43750       -0.43750        0.31250
 BRILLOUIN|     8           0.00391       -0.43750       -0.43750        0.43750
 BRILLOUIN|     9           0.00391       -0.43750       -0.31250       -0.43750
 BRILLOUIN|    10           0.00391       -0.43750       -0.31250       -0.31250
 BRILLOUIN|    11           0.00391       -0.43750       -0.31250       -0.18750
 BRILLOUIN|    12           0.00391       -0.43750       -0.31250       -0.06250
 BRILLOUIN|    13           0.00391       -0.43750       -0.31250        0.06250
 BRILLOUIN|    14           0.00391       -0.43750       -0.31250        0.18750
 BRILLOUIN|    15           0.00391       -0.43750       -0.31250        0.31250
 BRILLOUIN|    16           0.00391       -0.43750       -0.31250        0.43750
 BRILLOUIN|    17           0.00391       -0.43750       -0.18750       -0.43750
 BRILLOUIN|    18           0.00391       -0.43750       -0.18750       -0.31250
 BRILLOUIN|    19           0.00391       -0.43750       -0.18750       -0.18750
 BRILLOUIN|    20           0.00391       -0.43750       -0.18750       -0.06250
 BRILLOUIN|    21           0.00391       -0.43750       -0.18750        0.06250
 BRILLOUIN|    22           0.00391       -0.43750       -0.18750        0.18750
 BRILLOUIN|    23           0.00391       -0.43750       -0.18750        0.31250
 BRILLOUIN|    24           0.00391       -0.43750       -0.18750        0.43750
 BRILLOUIN|    25           0.00391       -0.43750       -0.06250       -0.43750
 BRILLOUIN|    26           0.00391       -0.43750       -0.06250       -0.31250
 BRILLOUIN|    27           0.00391       -0.43750       -0.06250       -0.18750
 BRILLOUIN|    28           0.00391       -0.43750       -0.06250       -0.06250
 BRILLOUIN|    29           0.00391       -0.43750       -0.06250        0.06250
 BRILLOUIN|    30           0.00391       -0.43750       -0.06250        0.18750
 BRILLOUIN|    31           0.00391       -0.43750       -0.06250        0.31250
 BRILLOUIN|    32           0.00391       -0.43750       -0.06250        0.43750
 BRILLOUIN|    33           0.00391       -0.43750        0.06250       -0.43750
 BRILLOUIN|    34           0.00391       -0.43750        0.06250       -0.31250
 BRILLOUIN|    35           0.00391       -0.43750        0.06250       -0.18750
 BRILLOUIN|    36           0.00391       -0.43750        0.06250       -0.06250
 BRILLOUIN|    37           0.00391       -0.43750        0.06250        0.06250
 BRILLOUIN|    38           0.00391       -0.43750        0.06250        0.18750
 BRILLOUIN|    39           0.00391       -0.43750        0.06250        0.31250
 BRILLOUIN|    40           0.00391       -0.43750        0.06250        0.43750
 BRILLOUIN|    41           0.00391       -0.43750        0.18750       -0.43750
 BRILLOUIN|    42           0.00391       -0.43750        0.18750       -0.31250
 BRILLOUIN|    43           0.00391       -0.43750        0.18750       -0.18750
 BRILLOUIN|    44           0.00391       -0.43750        0.18750       -0.06250
 BRILLOUIN|    45           0.00391       -0.43750        0.18750        0.06250
 BRILLOUIN|    46           0.00391       -0.43750        0.18750        0.18750
 BRILLOUIN|    47           0.00391       -0.43750        0.18750        0.31250
 BRILLOUIN|    48           0.00391       -0.43750        0.18750        0.43750
 BRILLOUIN|    49           0.00391       -0.43750        0.31250       -0.43750
 BRILLOUIN|    50           0.00391       -0.43750        0.31250       -0.31250
 BRILLOUIN|    51           0.00391       -0.43750        0.31250       -0.18750
 BRILLOUIN|    52           0.00391       -0.43750        0.31250       -0.06250
 BRILLOUIN|    53           0.00391       -0.43750        0.31250        0.06250
 BRILLOUIN|    54           0.00391       -0.43750        0.31250        0.18750
 BRILLOUIN|    55           0.00391       -0.43750        0.31250        0.31250
 BRILLOUIN|    56           0.00391       -0.43750        0.31250        0.43750
 BRILLOUIN|    57           0.00391       -0.43750        0.43750       -0.43750
 BRILLOUIN|    58           0.00391       -0.43750        0.43750       -0.31250
 BRILLOUIN|    59           0.00391       -0.43750        0.43750       -0.18750
 BRILLOUIN|    60           0.00391       -0.43750        0.43750       -0.06250
 BRILLOUIN|    61           0.00391       -0.43750        0.43750        0.06250
 BRILLOUIN|    62           0.00391       -0.43750        0.43750        0.18750
 BRILLOUIN|    63           0.00391       -0.43750        0.43750        0.31250
 BRILLOUIN|    64           0.00391       -0.43750        0.43750        0.43750
 BRILLOUIN|    65           0.00391       -0.31250       -0.43750       -0.43750
 BRILLOUIN|    66           0.00391       -0.31250       -0.43750       -0.31250
 BRILLOUIN|    67           0.00391       -0.31250       -0.43750       -0.18750
 BRILLOUIN|    68           0.00391       -0.31250       -0.43750       -0.06250
 BRILLOUIN|    69           0.00391       -0.31250       -0.43750        0.06250
 BRILLOUIN|    70           0.00391       -0.31250       -0.43750        0.18750
 BRILLOUIN|    71           0.00391       -0.31250       -0.43750        0.31250
 BRILLOUIN|    72           0.00391       -0.31250       -0.43750        0.43750
 BRILLOUIN|    73           0.00391       -0.31250       -0.31250       -0.43750
 BRILLOUIN|    74           0.00391       -0.31250       -0.31250       -0.31250
 BRILLOUIN|    75           0.00391       -0.31250       -0.31250       -0.18750
 BRILLOUIN|    76           0.00391       -0.31250       -0.31250       -0.06250
 BRILLOUIN|    77           0.00391       -0.31250       -0.31250        0.06250
 BRILLOUIN|    78           0.00391       -0.31250       -0.31250        0.18750
 BRILLOUIN|    79           0.00391       -0.31250       -0.31250        0.31250
 BRILLOUIN|    80           0.00391       -0.31250       -0.31250        0.43750
 BRILLOUIN|    81           0.00391       -0.31250       -0.18750       -0.43750
 BRILLOUIN|    82           0.00391       -0.31250       -0.18750       -0.31250
 BRILLOUIN|    83           0.00391       -0.31250       -0.18750       -0.18750
 BRILLOUIN|    84           0.00391       -0.31250       -0.18750       -0.06250
 BRILLOUIN|    85           0.00391       -0.31250       -0.18750        0.06250
 BRILLOUIN|    86           0.00391       -0.31250       -0.18750        0.18750
 BRILLOUIN|    87           0.00391       -0.31250       -0.18750        0.31250
 BRILLOUIN|    88           0.00391       -0.31250       -0.18750        0.43750
 BRILLOUIN|    89           0.00391       -0.31250       -0.06250       -0.43750
 BRILLOUIN|    90           0.00391       -0.31250       -0.06250       -0.31250
 BRILLOUIN|    91           0.00391       -0.31250       -0.06250       -0.18750
 BRILLOUIN|    92           0.00391       -0.31250       -0.06250       -0.06250
 BRILLOUIN|    93           0.00391       -0.31250       -0.06250        0.06250
 BRILLOUIN|    94           0.00391       -0.31250       -0.06250        0.18750
 BRILLOUIN|    95           0.00391       -0.31250       -0.06250        0.31250
 BRILLOUIN|    96           0.00391       -0.31250       -0.06250        0.43750
 BRILLOUIN|    97           0.00391       -0.31250        0.06250       -0.43750
 BRILLOUIN|    98           0.00391       -0.31250        0.06250       -0.31250
 BRILLOUIN|    99           0.00391       -0.31250        0.06250       -0.18750
 BRILLOUIN|   100           0.00391       -0.31250        0.06250       -0.06250
 BRILLOUIN|   101           0.00391       -0.31250        0.06250        0.06250
 BRILLOUIN|   102           0.00391       -0.31250        0.06250        0.18750
 BRILLOUIN|   103           0.00391       -0.31250        0.06250        0.31250
 BRILLOUIN|   104           0.00391       -0.31250        0.06250        0.43750
 BRILLOUIN|   105           0.00391       -0.31250        0.18750       -0.43750
 BRILLOUIN|   106           0.00391       -0.31250        0.18750       -0.31250
 BRILLOUIN|   107           0.00391       -0.31250        0.18750       -0.18750
 BRILLOUIN|   108           0.00391       -0.31250        0.18750       -0.06250
 BRILLOUIN|   109           0.00391       -0.31250        0.18750        0.06250
 BRILLOUIN|   110           0.00391       -0.31250        0.18750        0.18750
 BRILLOUIN|   111           0.00391       -0.31250        0.18750        0.31250
 BRILLOUIN|   112           0.00391       -0.31250        0.18750        0.43750
 BRILLOUIN|   113           0.00391       -0.31250        0.31250       -0.43750
 BRILLOUIN|   114           0.00391       -0.31250        0.31250       -0.31250
 BRILLOUIN|   115           0.00391       -0.31250        0.31250       -0.18750
 BRILLOUIN|   116           0.00391       -0.31250        0.31250       -0.06250
 BRILLOUIN|   117           0.00391       -0.31250        0.31250        0.06250
 BRILLOUIN|   118           0.00391       -0.31250        0.31250        0.18750
 BRILLOUIN|   119           0.00391       -0.31250        0.31250        0.31250
 BRILLOUIN|   120           0.00391       -0.31250        0.31250        0.43750
 BRILLOUIN|   121           0.00391       -0.31250        0.43750       -0.43750
 BRILLOUIN|   122           0.00391       -0.31250        0.43750       -0.31250
 BRILLOUIN|   123           0.00391       -0.31250        0.43750       -0.18750
 BRILLOUIN|   124           0.00391       -0.31250        0.43750       -0.06250
 BRILLOUIN|   125           0.00391       -0.31250        0.43750        0.06250
 BRILLOUIN|   126           0.00391       -0.31250        0.43750        0.18750
 BRILLOUIN|   127           0.00391       -0.31250        0.43750        0.31250
 BRILLOUIN|   128           0.00391       -0.31250        0.43750        0.43750
 BRILLOUIN|   129           0.00391       -0.18750       -0.43750       -0.43750
 BRILLOUIN|   130           0.00391       -0.18750       -0.43750       -0.31250
 BRILLOUIN|   131           0.00391       -0.18750       -0.43750       -0.18750
 BRILLOUIN|   132           0.00391       -0.18750       -0.43750       -0.06250
 BRILLOUIN|   133           0.00391       -0.18750       -0.43750        0.06250
 BRILLOUIN|   134           0.00391       -0.18750       -0.43750        0.18750
 BRILLOUIN|   135           0.00391       -0.18750       -0.43750        0.31250
 BRILLOUIN|   136           0.00391       -0.18750       -0.43750        0.43750
 BRILLOUIN|   137           0.00391       -0.18750       -0.31250       -0.43750
 BRILLOUIN|   138           0.00391       -0.18750       -0.31250       -0.31250
 BRILLOUIN|   139           0.00391       -0.18750       -0.31250       -0.18750
 BRILLOUIN|   140           0.00391       -0.18750       -0.31250       -0.06250
 BRILLOUIN|   141           0.00391       -0.18750       -0.31250        0.06250
 BRILLOUIN|   142           0.00391       -0.18750       -0.31250        0.18750
 BRILLOUIN|   143           0.00391       -0.18750       -0.31250        0.31250
 BRILLOUIN|   144           0.00391       -0.18750       -0.31250        0.43750
 BRILLOUIN|   145           0.00391       -0.18750       -0.18750       -0.43750
 BRILLOUIN|   146           0.00391       -0.18750       -0.18750       -0.31250
 BRILLOUIN|   147           0.00391       -0.18750       -0.18750       -0.18750
 BRILLOUIN|   148           0.00391       -0.18750       -0.18750       -0.06250
 BRILLOUIN|   149           0.00391       -0.18750       -0.18750        0.06250
 BRILLOUIN|   150           0.00391       -0.18750       -0.18750        0.18750
 BRILLOUIN|   151           0.00391       -0.18750       -0.18750        0.31250
 BRILLOUIN|   152           0.00391       -0.18750       -0.18750        0.43750
 BRILLOUIN|   153           0.00391       -0.18750       -0.06250       -0.43750
 BRILLOUIN|   154           0.00391       -0.18750       -0.06250       -0.31250
 BRILLOUIN|   155           0.00391       -0.18750       -0.06250       -0.18750
 BRILLOUIN|   156           0.00391       -0.18750       -0.06250       -0.06250
 BRILLOUIN|   157           0.00391       -0.18750       -0.06250        0.06250
 BRILLOUIN|   158           0.00391       -0.18750       -0.06250        0.18750
 BRILLOUIN|   159           0.00391       -0.18750       -0.06250        0.31250
 BRILLOUIN|   160           0.00391       -0.18750       -0.06250        0.43750
 BRILLOUIN|   161           0.00391       -0.18750        0.06250       -0.43750
 BRILLOUIN|   162           0.00391       -0.18750        0.06250       -0.31250
 BRILLOUIN|   163           0.00391       -0.18750        0.06250       -0.18750
 BRILLOUIN|   164           0.00391       -0.18750        0.06250       -0.06250
 BRILLOUIN|   165           0.00391       -0.18750        0.06250        0.06250
 BRILLOUIN|   166           0.00391       -0.18750        0.06250        0.18750
 BRILLOUIN|   167           0.00391       -0.18750        0.06250        0.31250
 BRILLOUIN|   168           0.00391       -0.18750        0.06250        0.43750
 BRILLOUIN|   169           0.00391       -0.18750        0.18750       -0.43750
 BRILLOUIN|   170           0.00391       -0.18750        0.18750       -0.31250
 BRILLOUIN|   171           0.00391       -0.18750        0.18750       -0.18750
 BRILLOUIN|   172           0.00391       -0.18750        0.18750       -0.06250
 BRILLOUIN|   173           0.00391       -0.18750        0.18750        0.06250
 BRILLOUIN|   174           0.00391       -0.18750        0.18750        0.18750
 BRILLOUIN|   175           0.00391       -0.18750        0.18750        0.31250
 BRILLOUIN|   176           0.00391       -0.18750        0.18750        0.43750
 BRILLOUIN|   177           0.00391       -0.18750        0.31250       -0.43750
 BRILLOUIN|   178           0.00391       -0.18750        0.31250       -0.31250
 BRILLOUIN|   179           0.00391       -0.18750        0.31250       -0.18750
 BRILLOUIN|   180           0.00391       -0.18750        0.31250       -0.06250
 BRILLOUIN|   181           0.00391       -0.18750        0.31250        0.06250
 BRILLOUIN|   182           0.00391       -0.18750        0.31250        0.18750
 BRILLOUIN|   183           0.00391       -0.18750        0.31250        0.31250
 BRILLOUIN|   184           0.00391       -0.18750        0.31250        0.43750
 BRILLOUIN|   185           0.00391       -0.18750        0.43750       -0.43750
 BRILLOUIN|   186           0.00391       -0.18750        0.43750       -0.31250
 BRILLOUIN|   187           0.00391       -0.18750        0.43750       -0.18750
 BRILLOUIN|   188           0.00391       -0.18750        0.43750       -0.06250
 BRILLOUIN|   189           0.00391       -0.18750        0.43750        0.06250
 BRILLOUIN|   190           0.00391       -0.18750        0.43750        0.18750
 BRILLOUIN|   191           0.00391       -0.18750        0.43750        0.31250
 BRILLOUIN|   192           0.00391       -0.18750        0.43750        0.43750
 BRILLOUIN|   193           0.00391       -0.06250       -0.43750       -0.43750
 BRILLOUIN|   194           0.00391       -0.06250       -0.43750       -0.31250
 BRILLOUIN|   195           0.00391       -0.06250       -0.43750       -0.18750
 BRILLOUIN|   196           0.00391       -0.06250       -0.43750       -0.06250
 BRILLOUIN|   197           0.00391       -0.06250       -0.43750        0.06250
 BRILLOUIN|   198           0.00391       -0.06250       -0.43750        0.18750
 BRILLOUIN|   199           0.00391       -0.06250       -0.43750        0.31250
 BRILLOUIN|   200           0.00391       -0.06250       -0.43750        0.43750
 BRILLOUIN|   201           0.00391       -0.06250       -0.31250       -0.43750
 BRILLOUIN|   202           0.00391       -0.06250       -0.31250       -0.31250
 BRILLOUIN|   203           0.00391       -0.06250       -0.31250       -0.18750
 BRILLOUIN|   204           0.00391       -0.06250       -0.31250       -0.06250
 BRILLOUIN|   205           0.00391       -0.06250       -0.31250        0.06250
 BRILLOUIN|   206           0.00391       -0.06250       -0.31250        0.18750
 BRILLOUIN|   207           0.00391       -0.06250       -0.31250        0.31250
 BRILLOUIN|   208           0.00391       -0.06250       -0.31250        0.43750
 BRILLOUIN|   209           0.00391       -0.06250       -0.18750       -0.43750
 BRILLOUIN|   210           0.00391       -0.06250       -0.18750       -0.31250
 BRILLOUIN|   211           0.00391       -0.06250       -0.18750       -0.18750
 BRILLOUIN|   212           0.00391       -0.06250       -0.18750       -0.06250
 BRILLOUIN|   213           0.00391       -0.06250       -0.18750        0.06250
 BRILLOUIN|   214           0.00391       -0.06250       -0.18750        0.18750
 BRILLOUIN|   215           0.00391       -0.06250       -0.18750        0.31250
 BRILLOUIN|   216           0.00391       -0.06250       -0.18750        0.43750
 BRILLOUIN|   217           0.00391       -0.06250       -0.06250       -0.43750
 BRILLOUIN|   218           0.00391       -0.06250       -0.06250       -0.31250
 BRILLOUIN|   219           0.00391       -0.06250       -0.06250       -0.18750
 BRILLOUIN|   220           0.00391       -0.06250       -0.06250       -0.06250
 BRILLOUIN|   221           0.00391       -0.06250       -0.06250        0.06250
 BRILLOUIN|   222           0.00391       -0.06250       -0.06250        0.18750
 BRILLOUIN|   223           0.00391       -0.06250       -0.06250        0.31250
 BRILLOUIN|   224           0.00391       -0.06250       -0.06250        0.43750
 BRILLOUIN|   225           0.00391       -0.06250        0.06250       -0.43750
 BRILLOUIN|   226           0.00391       -0.06250        0.06250       -0.31250
 BRILLOUIN|   227           0.00391       -0.06250        0.06250       -0.18750
 BRILLOUIN|   228           0.00391       -0.06250        0.06250       -0.06250
 BRILLOUIN|   229           0.00391       -0.06250        0.06250        0.06250
 BRILLOUIN|   230           0.00391       -0.06250        0.06250        0.18750
 BRILLOUIN|   231           0.00391       -0.06250        0.06250        0.31250
 BRILLOUIN|   232           0.00391       -0.06250        0.06250        0.43750
 BRILLOUIN|   233           0.00391       -0.06250        0.18750       -0.43750
 BRILLOUIN|   234           0.00391       -0.06250        0.18750       -0.31250
 BRILLOUIN|   235           0.00391       -0.06250        0.18750       -0.18750
 BRILLOUIN|   236           0.00391       -0.06250        0.18750       -0.06250
 BRILLOUIN|   237           0.00391       -0.06250        0.18750        0.06250
 BRILLOUIN|   238           0.00391       -0.06250        0.18750        0.18750
 BRILLOUIN|   239           0.00391       -0.06250        0.18750        0.31250
 BRILLOUIN|   240           0.00391       -0.06250        0.18750        0.43750
 BRILLOUIN|   241           0.00391       -0.06250        0.31250       -0.43750
 BRILLOUIN|   242           0.00391       -0.06250        0.31250       -0.31250
 BRILLOUIN|   243           0.00391       -0.06250        0.31250       -0.18750
 BRILLOUIN|   244           0.00391       -0.06250        0.31250       -0.06250
 BRILLOUIN|   245           0.00391       -0.06250        0.31250        0.06250
 BRILLOUIN|   246           0.00391       -0.06250        0.31250        0.18750
 BRILLOUIN|   247           0.00391       -0.06250        0.31250        0.31250
 BRILLOUIN|   248           0.00391       -0.06250        0.31250        0.43750
 BRILLOUIN|   249           0.00391       -0.06250        0.43750       -0.43750
 BRILLOUIN|   250           0.00391       -0.06250        0.43750       -0.31250
 BRILLOUIN|   251           0.00391       -0.06250        0.43750       -0.18750
 BRILLOUIN|   252           0.00391       -0.06250        0.43750       -0.06250
 BRILLOUIN|   253           0.00391       -0.06250        0.43750        0.06250
 BRILLOUIN|   254           0.00391       -0.06250        0.43750        0.18750
 BRILLOUIN|   255           0.00391       -0.06250        0.43750        0.31250
 BRILLOUIN|   256           0.00391       -0.06250        0.43750        0.43750
 *******************************************************************************

 *******************************************************************************
 *******************************************************************************
 **                                                                           **
 **     #####                         ##              ##                      **
 **    ##   ##            ##          ##              ##                      **
 **   ##     ##                       ##            ######                    **
 **   ##     ##  ##   ##  ##   #####  ##  ##   ####   ##    #####    #####    **
 **   ##     ##  ##   ##  ##  ##      ## ##   ##      ##   ##   ##  ##   ##   **
 **   ##  ## ##  ##   ##  ##  ##      ####     ###    ##   ######   ######    **
 **    ##  ###   ##   ##  ##  ##      ## ##      ##   ##   ##       ##        **
 **     #######   #####   ##   #####  ##  ##  ####    ##    #####   ##        **
 **           ##                                                    ##        **
 **                                                                           **
 **                                                ... make the atoms dance   **
 **                                                                           **
 **            Copyright (C) by CP2K developers group (2000-2025)             **
 **                      J. Chem. Phys. 152, 194103 (2020)                    **
 **                                                                           **
 *******************************************************************************

 DFT| Spin restricted Kohn-Sham (RKS) calculation                            RKS
 DFT| Multiplicity                                                             1
 DFT| Number of spin states                                                    1
 DFT| Charge                                                                   0
 DFT| Self-interaction correction (SIC)                                       NO
 DFT| Cutoffs: density                                              1.000000E-10
 DFT|          gradient                                             1.000000E-10
 DFT|          tau                                                  1.000000E-10
 DFT|          cutoff_smoothing_range                               0.000000E+00
 DFT| XC density smoothing                                                  NONE
 DFT| XC derivatives                                                          PW

 FUNCTIONAL| PBE:
 FUNCTIONAL| J.P.Perdew, K.Burke, M.Ernzerhof, Phys. Rev. Letter, vol. 77, n 18,
 FUNCTIONAL|  pp. 3865-3868, (1996) {spin unpolarized}                          


 QS| Method:                                                                 GPW
 QS| Density plane wave grid type                        NON-SPHERICAL FULLSPACE
 QS| Number of grid levels:                                                    4
 QS| Density cutoff [a.u.]:                                                500.0
 QS| Multi grid cutoff [a.u.]: 1) grid level                               500.0
 QS|                           2) grid level                               166.7
 QS|                           3) grid level                                55.6
 QS|                           4) grid level                                18.5
 QS| Grid level progression factor:                                          3.0
 QS| Relative density cutoff [a.u.]:                                        50.0
 QS| Interaction thresholds: eps_pgf_orb:                                1.0E-16
 QS|                         eps_filter_matrix:                          0.0E+00
 QS|                         eps_core_charge:                            1.0E-18
 QS|                         eps_rho_gspace:                             1.0E-16
 QS|                         eps_rho_rspace:                             1.0E-16
 QS|                         eps_gvg_rspace:                             1.0E-08
 QS|                         eps_ppl:                                    1.0E-02
 QS|                         eps_ppnl:                                   1.0E-10


 ATOMIC KIND INFORMATION

  1. Atomic kind: As                                    Number of atoms:       6

     Orbital Basis Set                                 aug-SZV-MOLOPT-GTH-tier-1

       Number of orbital shell sets:                                           1
       Number of orbital shells:                                               4
       Number of primitive Cartesian functions:                                4
       Number of Cartesian basis functions:                                    8
       Number of spherical basis functions:                                    8
       Norm type:                                                              2

       Normalised Cartesian orbitals:

                        Set   Shell   Orbital            Exponent    Coefficient

                          1       1    2s                0.097982      -0.030565
                                                         0.234711      -0.197952
                                                         0.889293      -0.524127
                                                         1.098624       0.764107

                          1       2    3s                0.097982       0.022843
                                                         0.234711       0.216663
                                                         0.889293      -0.099574
                                                         1.098624       0.048788

                          1       3    3px               0.097982      -0.022504
                                                         0.234711      -0.155853
                                                         0.889293      -0.702647
                                                         1.098624       0.789426
                          1       3    3py               0.097982      -0.022504
                                                         0.234711      -0.155853
                                                         0.889293      -0.702647
                                                         1.098624       0.789426
                          1       3    3pz               0.097982      -0.022504
                                                         0.234711      -0.155853
                                                         0.889293      -0.702647
                                                         1.098624       0.789426

                          1       4    4px               0.097982       0.086299
                                                         0.234711      -0.033675
                                                         0.889293       0.021114
                                                         1.098624       0.020440
                          1       4    4py               0.097982       0.086299
                                                         0.234711      -0.033675
                                                         0.889293       0.021114
                                                         1.098624       0.020440
                          1       4    4pz               0.097982       0.086299
                                                         0.234711      -0.033675
                                                         0.889293       0.021114
                                                         1.098624       0.020440

       Atomic covalent radius [Angstrom]:                                  1.200

       Atomic van der Waals radius [Angstrom]:                             1.850

     GTH Potential information for                                       GTH-PBE

       Description:                       Goedecker-Teter-Hutter pseudopotential
                                           Goedecker et al., PRB 54, 1703 (1996)
                                          Hartwigsen et al., PRB 58, 3641 (1998)
                                                      Krack, TCA 114, 145 (2005)

       Gaussian exponent of the core charge distribution:               1.849112
       Electronic configuration (s p d ...):                               2   3

       Parameters of the local part of the GTH pseudopotential:

                          rloc        C1          C2          C3          C4
                        0.520000

       Parameters of the non-local part of the GTH (SOC) pseudopotential:

                   l      r(l)      h(i,j,l)
                                    k(i,j,l)
                   0    0.455550    5.520673    0.035122   -1.061082
                                    0.035122   -1.771193    2.739703
                                   -1.061082    2.739703   -2.174572
                   1    0.554606    1.021792    0.629208
                                    0.629208   -0.744489
                                    0.078845   -0.033085
                                   -0.033085    0.039147
                   2    0.703689    0.314795
                                    0.003356


 MOLECULE KIND INFORMATION


 All atoms are their own molecule, skipping detailed information


 TOTAL NUMBERS AND MAXIMUM NUMBERS

  Total number of            - Atomic kinds:                                   1
                             - Atoms:                                          6
                             - Shell sets:                                     6
                             - Shells:                                        24
                             - Primitive Cartesian functions:                 24
                             - Cartesian basis functions:                     48
                             - Spherical basis functions:                     48

  Maximum angular momentum of the orbital basis functions:                     1


 MODULE QUICKSTEP: ATOMIC COORDINATES IN ANGSTROM

   Atom Kind Element         X             Y             Z       Z(eff)     Mass
      1    1 As   33      0.000000      0.000000      2.444606   5.0000  74.9216
      2    1 As   33      0.000000      0.000000      8.345024   5.0000  74.9216
      3    1 As   33      1.910294      1.102887      6.041114   5.0000  74.9216
      4    1 As   33      1.910294      1.102887      1.151901   5.0000  74.9216
      5    1 As   33     -0.000019      2.205807      9.637729   5.0000  74.9216
      6    1 As   33     -0.000019      2.205807      4.748516   5.0000  74.9216



 SCF PARAMETERS         Density guess:                                    ATOMIC
                        --------------------------------------------------------
                        max_scf:                                             500
                        max_scf_history:                                       0
                        max_diis:                                              4
                        --------------------------------------------------------
                        eps_scf:                                        1.00E-09
                        eps_scf_history:                                0.00E+00
                        eps_diis:                                       1.00E-01
                        eps_eigval:                                     1.00E-05
                        --------------------------------------------------------
                        level_shift [a.u.]:                             0.000000
                        added MOs                                        33    0
                        --------------------------------------------------------
                        Mixing method:                            BROYDEN_MIXING
                                                charge density mixing in g-space
                        --------------------------------------------------------
                        No outer SCF

 PW_GRID| Information for grid number                                          1
 PW_GRID| Grid distributed over                                     8 processors
 PW_GRID| Real space group dimensions                                     8    1
 PW_GRID| the grid is blocked:                                                NO
 PW_GRID| Cutoff [a.u.]                                                    500.0
 PW_GRID| spherical cutoff:                                                   NO
 PW_GRID|   Bounds   1            -37      37                Points:          75
 PW_GRID|   Bounds   2            -37      37                Points:          75
 PW_GRID|   Bounds   3           -108     107                Points:         216
 PW_GRID| Volume element (a.u.^3)  0.7575E-03     Volume (a.u.^3)       920.4190
 PW_GRID| Grid span                                                    FULLSPACE
 PW_GRID|   Distribution                         Average         Max         Min
 PW_GRID|   G-Vectors                           151875.0      151875      151875
 PW_GRID|   G-Rays                                2025.0        2025        2025
 PW_GRID|   Real Space Points                   151875.0      162000      145800

 PW_GRID| Information for grid number                                          2
 PW_GRID| Number of the reference grid                                         1
 PW_GRID| Grid distributed over                                     8 processors
 PW_GRID| Real space group dimensions                                     8    1
 PW_GRID| the grid is blocked:                                                NO
 PW_GRID| Cutoff [a.u.]                                                    166.7
 PW_GRID| spherical cutoff:                                                   NO
 PW_GRID|   Bounds   1            -22      22                Points:          45
 PW_GRID|   Bounds   2            -22      22                Points:          45
 PW_GRID|   Bounds   3            -60      59                Points:         120
 PW_GRID| Volume element (a.u.^3)  0.3788E-02     Volume (a.u.^3)       920.4190
 PW_GRID| Grid span                                                    FULLSPACE
 PW_GRID|   Distribution                         Average         Max         Min
 PW_GRID|   G-Vectors                            30375.0       30465       30285
 PW_GRID|   G-Rays                                 675.0         677         673
 PW_GRID|   Real Space Points                    30375.0       32400       27000

 PW_GRID| Information for grid number                                          3
 PW_GRID| Number of the reference grid                                         1
 PW_GRID| Grid distributed over                                     8 processors
 PW_GRID| Real space group dimensions                                     8    1
 PW_GRID| the grid is blocked:                                                NO
 PW_GRID| Cutoff [a.u.]                                                     55.6
 PW_GRID| spherical cutoff:                                                   NO
 PW_GRID|   Bounds   1            -12      12                Points:          25
 PW_GRID|   Bounds   2            -12      12                Points:          25
 PW_GRID|   Bounds   3            -36      35                Points:          72
 PW_GRID| Volume element (a.u.^3)  0.2045E-01     Volume (a.u.^3)       920.4190
 PW_GRID| Grid span                                                    FULLSPACE
 PW_GRID|   Distribution                         Average         Max         Min
 PW_GRID|   G-Vectors                             5625.0        5675        5550
 PW_GRID|   G-Rays                                 225.0         227         222
 PW_GRID|   Real Space Points                     5625.0        7200        5400

 PW_GRID| Information for grid number                                          4
 PW_GRID| Number of the reference grid                                         1
 PW_GRID| Grid distributed over                                     8 processors
 PW_GRID| Real space group dimensions                                     8    1
 PW_GRID| the grid is blocked:                                                NO
 PW_GRID| Cutoff [a.u.]                                                     18.5
 PW_GRID| spherical cutoff:                                                   NO
 PW_GRID|   Bounds   1             -7       7                Points:          15
 PW_GRID|   Bounds   2             -7       7                Points:          15
 PW_GRID|   Bounds   3            -20      19                Points:          40
 PW_GRID| Volume element (a.u.^3)  0.1023         Volume (a.u.^3)       920.4190
 PW_GRID| Grid span                                                    FULLSPACE
 PW_GRID|   Distribution                         Average         Max         Min
 PW_GRID|   G-Vectors                             1125.0        1140        1110
 PW_GRID|   G-Rays                                  75.0          76          74
 PW_GRID|   Real Space Points                     1125.0        1200         600

 POISSON| Solver                                                        PERIODIC
 POISSON| Periodicity                                                        XYZ

 RS_GRID| Information for grid number                                          1
 RS_GRID|   Bounds   1            -37      37                Points:          75
 RS_GRID|   Bounds   2            -37      37                Points:          75
 RS_GRID|   Bounds   3           -108     107                Points:         216
 RS_GRID| Real space fully replicated
 RS_GRID| Group size                                                           1

 RS_GRID| Information for grid number                                          2
 RS_GRID|   Bounds   1            -22      22                Points:          45
 RS_GRID|   Bounds   2            -22      22                Points:          45
 RS_GRID|   Bounds   3            -60      59                Points:         120
 RS_GRID| Real space fully replicated
 RS_GRID| Group size                                                           1

 RS_GRID| Information for grid number                                          3
 RS_GRID|   Bounds   1            -12      12                Points:          25
 RS_GRID|   Bounds   2            -12      12                Points:          25
 RS_GRID|   Bounds   3            -36      35                Points:          72
 RS_GRID| Real space fully replicated
 RS_GRID| Group size                                                           1

 RS_GRID| Information for grid number                                          4
 RS_GRID|   Bounds   1             -7       7                Points:          15
 RS_GRID|   Bounds   2             -7       7                Points:          15
 RS_GRID|   Bounds   3            -20      19                Points:          40
 RS_GRID| Real space fully replicated
 RS_GRID| Group size                                                           1

 Number of electrons:                                                         30
 Number of occupied orbitals:                                                 15
 Number of molecular orbitals:                                                48

 Number of orbital functions:                                                 48
 Number of independent orbital functions:                                     48

 Extrapolation method: initial_guess

 Atomic guess: The first density matrix is obtained in terms of atomic orbitals
               and electronic configurations assigned to each atomic kind

 Guess for atomic kind: As

 Electronic structure
    Total number of core electrons                                         28.00
    Total number of valence electrons                                       5.00
    Total number of electrons                                              33.00
    Multiplicity                                                   not specified
    S   [  2.00  2.00  2.00] 2.00
    P   [  6.00  6.00] 3.00
    D   [ 10.00]


 *******************************************************************************
                  Iteration          Convergence                     Energy [au]
 *******************************************************************************
                          1        0.215739                      -6.011367692576
                          2        0.689490E-01                  -6.036624011467
                          3        0.100551E-02                  -6.039218187154
                          4        0.109622E-03                  -6.039218736387
                          5        0.681082E-04                  -6.039218740445
                          6        0.504083E-04                  -6.039218741599
                          7        0.682786E-07                  -6.039218742996

 Energy components [Hartree]           Total Energy ::           -6.039218742996
                                        Band Energy ::           -1.484207127929
                                     Kinetic Energy ::            2.164524814492
                                   Potential Energy ::           -8.203743557489
                                      Virial (-V/T) ::            3.790089862939
                                        Core Energy ::           -9.621092645185
                                          XC Energy ::           -1.398375884540
                                     Coulomb Energy ::            4.980249786729
                       Total Pseudopotential Energy ::          -11.847169303236
                       Local Pseudopotential Energy ::          -12.644743834524
                    Nonlocal Pseudopotential Energy ::            0.797574531288
                                        Confinement ::            0.615518435591

 Orbital energies  State     L     Occupation   Energy[a.u.]          Energy[eV]

                       1     0          2.000      -0.502461          -13.672672

                       1     1          3.000      -0.159761           -4.347329


 Total Electron Density at R=0:                                         0.000279
 Re-scaling the density matrix to get the right number of electrons
                  # Electrons              Trace(P)               Scaling factor
                           30                30.000                        1.000


 SCF WAVEFUNCTION OPTIMIZATION

  Step     Update method      Time    Convergence         Total energy    Change
  ------------------------------------------------------------------------------
     1 NoMix/Diag. 0.50E-01    1.8     0.39950605       -38.0050516384 -3.80E+01
     2 Broy./Diag. 0.50E-01    1.8     0.00115528       -37.7630771476  2.42E-01
     3 Broy./Diag. 0.50E-01    1.8     0.03701148       -37.7182972442  4.48E-02
     4 Broy./Diag. 0.50E-01    1.8     0.00016708       -37.7064438795  1.19E-02
     5 Broy./Diag. 0.50E-01    1.8     0.01018753       -37.7765962930 -7.02E-02
     6 Broy./Diag. 0.50E-01    1.8     0.00016294       -37.7756796705  9.17E-04
     7 Broy./Diag. 0.50E-01    1.8     0.00113924       -37.7913020141 -1.56E-02
     8 Broy./Diag. 0.50E-01    1.8     0.00001175       -37.7923186515 -1.02E-03
     9 Broy./Diag. 0.50E-01    1.8     0.00013487       -37.7895025365  2.82E-03
    10 Broy./Diag. 0.50E-01    1.8     0.00001226       -37.7889157101  5.87E-04
    11 Broy./Diag. 0.50E-01    1.8     0.00004089       -37.7875339739  1.38E-03
    12 Broy./Diag. 0.50E-01    1.8     0.00003187       -37.7862679299  1.27E-03
    13 Broy./Diag. 0.50E-01    1.8     0.00000059       -37.7860855109  1.82E-04
    14 Broy./Diag. 0.50E-01    1.8     0.00000598       -37.7862907564 -2.05E-04
    15 Broy./Diag. 0.50E-01    1.8     0.00000021       -37.7863130810 -2.23E-05
    16 Broy./Diag. 0.50E-01    1.8     0.00000426       -37.7864607889 -1.48E-04
    17 Broy./Diag. 0.50E-01    1.8     0.00000007       -37.7864855397 -2.48E-05
    18 Broy./Diag. 0.50E-01    1.8     0.00000177       -37.7864961877 -1.06E-05
    19 Broy./Diag. 0.50E-01    1.8     0.00000014       -37.7865005955 -4.41E-06
    20 Broy./Diag. 0.50E-01    1.8     0.00000042       -37.7864993237  1.27E-06
    21 Broy./Diag. 0.50E-01    1.8     0.00000004       -37.7864996454 -3.22E-07
    22 Broy./Diag. 0.50E-01    1.8     0.00000017       -37.7865007467 -1.10E-06
    23 Broy./Diag. 0.50E-01    1.8     0.00000005       -37.7865020684 -1.32E-06
    24 Broy./Diag. 0.50E-01    1.8     0.00000002       -37.7865025568 -4.88E-07
    25 Broy./Diag. 0.50E-01    1.8     0.00000005       -37.7865013323  1.22E-06
    26 Broy./Diag. 0.50E-01    1.8     0.00000002       -37.7865006030  7.29E-07
    27 Broy./Diag. 0.50E-01    1.8     0.00000001       -37.7865002179  3.85E-07
    28 Broy./Diag. 0.50E-01    1.8     8.6378E-09       -37.7865002393 -2.15E-08
    29 Broy./Diag. 0.50E-01    1.8     0.00000002       -37.7865005772 -3.38E-07
    30 Broy./Diag. 0.50E-01    1.8     7.8558E-09       -37.7865007544 -1.77E-07
    31 Broy./Diag. 0.50E-01    1.8     5.0039E-09       -37.7865008520 -9.76E-08
    32 Broy./Diag. 0.50E-01    1.8     7.5791E-09       -37.7865009274 -7.54E-08
    33 Broy./Diag. 0.50E-01    1.8     1.2548E-09       -37.7865009285 -1.06E-09
    34 Broy./Diag. 0.50E-01    1.8     2.6353E-09       -37.7865009173  1.12E-08
    35 Broy./Diag. 0.50E-01    1.9     1.9376E-09       -37.7865009796 -6.23E-08
    36 Broy./Diag. 0.50E-01    1.8     6.2217E-09       -37.7865011863 -2.07E-07
    37 Broy./Diag. 0.50E-01    1.8     2.2587E-09       -37.7865012586 -7.22E-08
    38 Broy./Diag. 0.50E-01    1.8     1.9109E-09       -37.7865012569  1.62E-09
    39 Broy./Diag. 0.50E-01    1.8     3.4777E-09       -37.7865012070  5.00E-08
    40 Broy./Diag. 0.50E-01    1.8     7.5739E-10       -37.7865011880  1.89E-08

  *** SCF run converged in    40 steps ***


  Electronic density on regular grids:        -30.0000000000       -0.0000000000
  Core density on regular grids:               30.0000000000       -0.0000000000
  Total charge density on r-space grids:       -0.0000000000
  Total charge density g-space grids:          -0.0000000000

  Overlap energy of the core charge distribution:               0.00000000234589
  Self energy of the core charge distribution:                -81.37349762708024
  Core Hamiltonian energy:                                     18.27706310338672
  Hartree energy:                                              34.70907385305578
  Exchange-correlation energy:                                 -9.39914051972459

  Total energy:                                               -37.78650118801644

 !-----------------------------------------------------------------------------!
                     Mulliken Population Analysis

 #  Atom  Element  Kind  Atomic population                           Net charge
       1     As       1          4.999974                              0.000026
       2     As       1          4.999974                              0.000026
       3     As       1          5.000007                             -0.000007
       4     As       1          5.000019                             -0.000019
       5     As       1          5.000019                             -0.000019
       6     As       1          5.000007                             -0.000007
 # Total charge                             30.000000                  0.000000

 !-----------------------------------------------------------------------------!

 !-----------------------------------------------------------------------------!
                           Hirshfeld Charges

  #Atom  Element  Kind  Ref Charge     Population                    Net charge
      1       As     1       5.000          5.000                        -0.000
      2       As     1       5.000          5.000                        -0.000
      3       As     1       5.000          5.000                         0.000
      4       As     1       5.000          5.000                         0.000
      5       As     1       5.000          5.000                         0.000
      6       As     1       5.000          5.000                         0.000

  Total Charge                                                           -0.000
 !-----------------------------------------------------------------------------!

 KPOINTS| Band Structure Calculation
 KPOINTS| Number of k-point sets                                               1
 KPOINTS| Number of added MOs/bands                                           -1
 KPOINTS| Number of k-points in set    1                                     148
 KPOINTS| In units of b-vector [2pi/Bohr]
 KPOINTS| Special point     1 not specifi     0.000000     0.000000     0.000000
 KPOINTS| Special point     2 not specifi     0.500000     0.000000     0.000000
 KPOINTS| Special point     3 not specifi     0.333333     0.333333     0.000000
 KPOINTS| Special point     4 not specifi     0.000000     0.000000     0.000000
 KPOINTS| Time for k-point line                                            0.873

 ENERGY| Total FORCE_EVAL ( QS ) energy [hartree]            -37.786501188016445

 -------------------------------------------------------------------------------
 -                                                                             -
 -                                DBCSR STATISTICS                             -
 -                                                                             -
 -------------------------------------------------------------------------------
 COUNTER                                    TOTAL       BLAS       SMM       ACC
 flops inhomo. stacks                           0       0.0%      0.0%      0.0%
 flops total                         0.000000E+00       0.0%      0.0%      0.0%
 flops max/rank                      0.000000E+00       0.0%      0.0%      0.0%
 matmuls inhomo. stacks                         0       0.0%      0.0%      0.0%
 matmuls total                                  0       0.0%      0.0%      0.0%
 number of processed stacks                     0       0.0%      0.0%      0.0%
 average stack size                                     0.0       0.0       0.0
 marketing flops                     0.000000E+00
 -------------------------------------------------------------------------------
 -                                                                             -
 -                      DBCSR MESSAGE PASSING PERFORMANCE                      -
 -                                                                             -
 -------------------------------------------------------------------------------
 ROUTINE             CALLS      AVE VOLUME [Bytes]
 MP_Bcast                1                     12.
 MP_Allreduce           19                     21.
 MP_Alltoall        861528                    871.
 -------------------------------------------------------------------------------

 -------------------------------------------------------------------------------
 -                                                                             -
 -                                DBM STATISTICS                               -
 -                                                                             -
 -------------------------------------------------------------------------------
    M  x    N  x    K                                          COUNT     PERCENT
 -------------------------------------------------------------------------------

 -------------------------------------------------------------------------------
 -                                                                             -
 -                                GRID STATISTICS                              -
 -                                                                             -
 -------------------------------------------------------------------------------
 LP    KERNEL             BACKEND                              COUNT     PERCENT
 2     collocate general  CPU                                 446982      50.62%
 2     integrate general  CPU                                 436080      49.38%
 0     collocate general  CPU                                     12       0.00%
 0     integrate general  CPU                                      6       0.00%
 -------------------------------------------------------------------------------

 MEMORY| Estimated peak process memory [MiB]                                 440

 -------------------------------------------------------------------------------
 ----                             MULTIGRID INFO                            ----
 -------------------------------------------------------------------------------
 count for grid        1:              0          cutoff [a.u.]          500.00
 count for grid        2:          11420          cutoff [a.u.]          166.67
 count for grid        3:           6697          cutoff [a.u.]           55.56
 count for grid        4:          13591          cutoff [a.u.]           18.52
 total gridlevel count  :          31708

 -------------------------------------------------------------------------------
 -                                                                             -
 -                         MESSAGE PASSING PERFORMANCE                         -
 -                                                                             -
 -------------------------------------------------------------------------------

 ROUTINE             CALLS      AVE VOLUME [Bytes]
 MP_Group                6
 MP_Bcast           372393                    984.
 MP_Allreduce        60141                     80.
 MP_Sync                 4
 MP_Alltoall           725                6605596.
 MP_SendRecv          1162                 416328.
 MP_ISendRecv         1127                 411130.
 MP_Wait            257083
 MP_comm_split           4
 MP_ISend           272204                    537.
 MP_IRecv           434816                    338.
 -------------------------------------------------------------------------------


 -------------------------------------------------------------------------------
 -                                                                             -
 -                           R E F E R E N C E S                               -
 -                                                                             -
 -------------------------------------------------------------------------------
 
 CP2K version 2025.1 (Development Version), the CP2K developers group (2025).
 CP2K is freely available from https://www.cp2k.org/ .
 
 T. D. Kuehne, M. Iannuzzi, M. Del Ben, V. V. Rybkin, P. Seewald, F. Stein, T. 
 Laino, R. Z. Khaliullin, O. Schuett, F. Schiffmann, D. Golze, J. Wilhelm, S. 
 Chulkov, M. H. Bani-Hashemian, V. Weber, U. Borstnik, M. Taillefumier, A. S. 
 Jakobovits, A. Lazzaro, H. Pabst, T. Mueller, R. Schade, M. Guidon, S. 
 Andermatt, N. Holmberg, G. K. Schenter, A. Hehn, A. Bussy, F. Belleflamme, G. 
 Tabacchi, A. Gloess, M. Lass, I. Bethune, C. J. Mundy, C. Plessl, M. Watkins, 
 J. VandeVondele, M. Krack, J. Hutter.
 J. Chem. Phys. 152, 194103 (2020).
 CP2K: An electronic structure and molecular dynamics software package - 
 Quickstep: Efficient and accurate electronic structure calculations.
 https://doi.org/10.1063/5.0007045

 O. Schuett, P. Messmer, J. Hutter, J. VandeVondele.
 Electronic Structure Calculations on Graphics Processing Units, 173-190 (2016).
 GPU-Accelerated Sparse Matrix-Matrix Multiplication for Linear Scaling Density 
 Functional Theory.
 https://doi.org/10.1002/9781118670712.ch8

 J. Hutter, M. Iannuzzi, F. Schiffmann, J. VandeVondele.
 WIREs Comput Mol Sci. 4, 15-25 (2014).
 CP2K: atomistic simulations of condensed matter systems.
 https://doi.org/10.1002/wcms.1159

 U. Borstnik, J. VandeVondele, V. Weber, J. Hutter.
 Parallel Comput. 40, 47-58 (2014).
 Sparse matrix multiplication: The distributed block-compressed sparse row 
 library.
 https://doi.org/10.1016/j.parco.2014.03.012

 J. VandeVondele, J. Hutter.
 J. Chem. Phys. 127, 114105 (2007).
 Gaussian basis sets for accurate calculations on molecular systems in gas and 
 condensed phases.
 https://doi.org/10.1063/1.2770708

 J. VandeVondele, M. Krack, F. Mohamed, M. Parrinello, T. Chassaing, J. Hutter.
 Comput. Phys. Commun. 167, 103-128 (2005).
 QUICKSTEP: Fast and accurate density functional calculations using a mixed 
 Gaussian and plane waves approach.
 https://doi.org/10.1016/j.cpc.2004.12.014

 M. Krack.
 Theor. Chem. Acc. 114, 145-152 (2005).
 Pseudopotentials for H to Kr optimized for gradient-corrected 
 exchange-correlation functionals.
 https://doi.org/10.1007/s00214-005-0655-y

 M. Frigo, S. G. Johnson.
 Proc. IEEE 93, 216-231 (2005).
 The design and implementation of FFTW3.
 https://doi.org/10.1109/JPROC.2004.840301

 C. Hartwigsen, S. Goedecker, J. Hutter.
 Phys. Rev. B 58, 3641-3662 (1998).
 Relativistic separable dual-space Gaussian pseudopotentials from H to Rn.
 https://doi.org/10.1103/PhysRevB.58.3641

 G. Lippert, J. Hutter, M. Parrinello.
 Mol. Phys. 92, 477-487 (1997).
 A hybrid Gaussian and plane wave density functional scheme.
 https://doi.org/10.1080/002689797170220

 S. Goedecker, M. Teter, J. Hutter.
 Phys. Rev. B 54, 1703-1710 (1996).
 Separable dual-space Gaussian pseudopotentials.
 https://doi.org/10.1103/PhysRevB.54.1703

 J. P. Perdew, K. Burke, M. Ernzerhof.
 Phys. Rev. Lett. 77, 3865-3868 (1996).
 Generalized gradient approximation made simple.
 https://doi.org/10.1103/PhysRevLett.77.3865


 -------------------------------------------------------------------------------
 -                                                                             -
 -                                T I M I N G                                  -
 -                                                                             -
 -------------------------------------------------------------------------------
 SUBROUTINE                       CALLS  ASD         SELF TIME        TOTAL TIME
                                MAXIMUM       AVERAGE  MAXIMUM  AVERAGE  MAXIMUM
 CP2K                                 1  1.0    0.010    0.014   75.794   75.795
 qs_energies                          1  2.0    0.017    0.118   75.525   75.583
 scf_env_do_scf                       1  3.0    0.000    0.000   74.192   74.192
 scf_env_do_scf_inner_loop           40  4.0    0.019    0.021   74.192   74.192
 do_general_diag_kp                  41  5.9    0.231    0.240   65.707   66.375
 qs_scf_new_mos_kp                   40  5.0    0.000    0.000   64.961   65.621
 mp_alltoall_i22                 147100  8.8   15.952   26.371   15.952   26.371
 dbcsr_complete_redistribute      63014  8.3    2.169    2.223   22.271   25.529
 dbcsr_desymmetrize_deep          84086  7.5    1.334    1.371   17.999   24.918
 copy_dbcsr_to_fm                 42534  6.9    0.443    0.456   20.120   20.387
 rskp_transform                   20776  7.0    9.928   18.699    9.928   18.699
 kpoint_density_transform            40  7.0    0.084    0.090   16.751   16.769
 copy_fm_to_dbcsr                 20480  8.0    0.122    0.128   10.024   12.964
 transform_dmat                   10240  8.0    4.631    8.844    4.631    8.844
 dbcsr_finalize                  155440  8.7    0.725    0.765    5.098    5.405
 cp_fm_start_copy_general         62032  7.3    0.846    1.254    5.091    5.185
 qs_ks_update_qs_env                 40  5.0    0.000    0.000    3.911    4.916
 rebuild_ks_matrix                   40  6.0    0.000    0.000    3.379    4.384
 qs_ks_build_kohn_sham_matrix        40  7.0    0.036    0.037    3.378    4.384
 mp_alltoall_d11v                441300  9.4    3.959    4.140    3.959    4.140
 mp_cart_sub                      85070  8.9    3.560    3.574    3.560    3.574
 qs_rho_update_rho_low               41  5.0    0.000    0.000    3.202    3.220
 calculate_rho_elec                  41  6.0    0.047    0.051    3.202    3.220
 dbcsr_merge_all                  63014 10.3    1.764    2.007    2.802    3.071
 sum_up_and_integrate                40  8.0    0.000    0.000    1.768    2.773
 integrate_v_rspace                  40  9.0    0.020    0.036    1.766    2.770
 mp_alltoall_i11v                273128  9.0    2.686    2.724    2.686    2.724
 hybrid_alltoall_any              84086  8.5    0.340    0.359    2.536    2.638
 grid_collocate_task_list            41  7.0    1.504    2.426    1.504    2.426
 density_rs2pw                       41  7.0    0.002    0.002    1.643    2.268
 mp_allgather_i                  124064  8.3    2.062    2.258    2.062    2.258
 grid_integrate_task_list            40 10.0    1.153    2.142    1.153    2.142
 transfer_rs2pw                     166  8.0    0.002    0.002    1.398    2.061
 mp_cart_create                   42541  8.9    1.978    2.035    1.978    2.035
 transfer_rs2pw_500                  43  8.9    0.183    0.189    1.303    1.963
 mp_sendrecv_dv                    1162 10.0    1.174    1.838    1.174    1.838
 mp_bcast_iv                     248152  8.3    1.464    1.663    1.464    1.663
 fft_wrap_pw1pw2                    725 10.0    0.007    0.008    1.633    1.655
 fft_wrap_pw1pw2_500                482 11.3    0.118    0.120    1.523    1.540
 dbcsr_work_create               147100  8.8    0.904    0.925    1.355    1.400
 fft3d_ps                           725 12.0    0.576    0.614    1.307    1.333
 dbcsr_create_new                253115  8.3    1.063    1.099    1.272    1.315
 qs_vxc_create                       40  8.0    0.001    0.001    1.195    1.198
 xc_vxc_pw_create                    40  9.0    0.047    0.050    1.194    1.197
 cp_cfm_geeig                      1317  6.9    0.008    0.009    1.143    1.160
 dbcsr_copy                       60251  7.3    0.255    0.266    0.843    1.083
 dbcsr_work_destroy_all          147100  9.8    0.697    0.707    1.048    1.070
 dbcsr_iterator_start            458570  9.0    0.883    0.902    1.024    1.048
 gspace_mixing                       39  5.0    0.042    0.045    1.038    1.038
 copy_fm_to_dbcsr_bc              20480  9.0    0.262    0.272    0.906    0.943
 dbcsr_data_new                 1579274  9.7    0.892    0.936    0.892    0.936
 copy_dbcsr_to_fm_bc              42534  7.9    0.408    0.416    0.911    0.933
 cp_cfm_heevd                      1317  7.9    0.001    0.002    0.902    0.915
 cp_cfm_heevd_base                 1317  8.9    0.901    0.913    0.901    0.913
 broyden_mixing                      39  6.0    0.834    0.844    0.851    0.853
 tree_to_linear_d                 63014 11.3    0.723    0.805    0.723    0.805
 dbcsr_data_release             2206016 10.2    0.771    0.798    0.771    0.798
 xc_pw_derive                       240 11.0    0.001    0.001    0.771    0.785
 dbcsr_copy_into_existing         20971  9.9    0.403    0.640    0.524    0.763
 mp_alltoall_z22v                   725 14.0    0.637    0.697    0.637    0.697
 write_kpoints_restart               40  5.0    0.004    0.006    0.688    0.689
 dbcsr_iterator_stop             458570  9.0    0.568    0.575    0.667    0.674
 dbcsr_destroy                   213835  8.3    0.348    0.354    0.641    0.666
 xc_rho_set_and_dset_create          40 10.0    0.025    0.027    0.624    0.643
 potential_pw2rs                     40 10.0    0.004    0.004    0.593    0.610
 dbcsr_dot                        39281  8.0    0.179    0.201    0.526    0.543
 evaluate_core_matrix_traces         40  6.0    0.000    0.000    0.532    0.532
 calculate_ptrace_kp                 80  7.0    0.029    0.033    0.532    0.532
 xc_pw_divergence                    40 10.0    0.001    0.001    0.511    0.522
 mp_waitall_1                    257083  8.3    0.302    0.522    0.302    0.522
 mp_bcast_im                     124064  8.3    0.457    0.520    0.457    0.520
 quick_finalize                   84086  9.5    0.260    0.272    0.462    0.479
 x_to_yz                            400 13.2    0.056    0.060    0.404    0.423
 transfer_pw2rs                     161 11.0    0.001    0.001    0.415    0.415
 yz_to_x                            325 12.8    0.031    0.036    0.321    0.355
 mp_comm_free                    127645  8.9    0.310    0.337    0.310    0.337
 mp_sum_d                         40019  8.9    0.285    0.333    0.285    0.333
 self_consistency_check              40  5.0    0.028    0.029    0.309    0.321
 transfer_pw2rs_500                  41 11.9    0.173    0.182    0.305    0.320
 cp_fm_finish_copy_general        25748  7.8    0.220    0.238    0.254    0.271
 cp_sm_mix                        19640  6.0    0.067    0.083    0.254    0.267
 cp_fm_write_unformatted            982  6.0    0.191    0.230    0.193    0.239
 dbcsr_sort_indices              171259 10.9    0.228    0.234    0.228    0.234
 qs_energies_init_hamiltonians        1  3.0    0.000    0.000    0.233    0.233
 cp_dbcsr_alloc_block_from_nbl     3679  5.2    0.122    0.214    0.138    0.233
 xc_functional_eval                  40 11.0    0.000    0.000    0.209    0.229
 pbe_lda_eval                        40 12.0    0.209    0.228    0.209    0.228
 dbcsr_set                       146953  7.9    0.138    0.142    0.189    0.203
 dbcsr_reserve_all_blocks         20480 10.0    0.031    0.033    0.145    0.175
 kpoint_density_matrices             40  7.0    0.015    0.015    0.172    0.175
 init_scf_run                         1  3.0    0.000    0.000    0.151    0.172
 scf_env_initial_rho_setup            1  4.0    0.000    0.000    0.150    0.172
 mp_max_d                         19642  7.0    0.142    0.167    0.142    0.167
 build_core_hamiltonian_matrix        1  4.0    0.002    0.002    0.109    0.162
 dbcsr_reserve_blocks             24159 10.3    0.106    0.136    0.128    0.161
 parallel_gemm_fm                  5120  8.0    0.005    0.005    0.153    0.155
 dbcsr_iterator_seek             458570 10.0    0.141    0.152    0.141    0.152
 parallel_gemm_fm_gemm             5120  9.0    0.005    0.005    0.148    0.151
 cp_fm_gemm                        5120 10.0    0.143    0.146    0.143    0.146
 qs_env_update_s_mstruct              1  4.0    0.000    0.000    0.105    0.140
 dbcsr_make_index_exist          253115  9.3    0.132    0.138    0.132    0.138
 merge_index                      63014 11.3    0.124    0.133    0.124    0.133
 mp_sum_dv                          335  3.5    0.059    0.131    0.059    0.131
 cp_cfm_triangular_multiply        3951  7.9    0.127    0.130    0.127    0.130
 calculate_rho_core                   1  5.0    0.002    0.003    0.078    0.120
 mp_irecv_iv                     248128  8.3    0.015    0.119    0.015    0.119
 pw_scatter_p                       400 12.2    0.113    0.116    0.113    0.116
 restraint_control                    1  2.0    0.000    0.000    0.057    0.115
 mp_sum_i                             4  2.8    0.057    0.115    0.057    0.115
 mp_isend_dv                      62624  8.3    0.096    0.104    0.096    0.104
 dbcsr_switch_data_area           84086 10.5    0.076    0.078    0.099    0.103
 mp_isendrecv_dv                   1127 13.0    0.036    0.101    0.036    0.101
 pw_poisson_solve                    40  8.0    0.000    0.000    0.090    0.091
 parser_read_line                  5974  4.1    0.002    0.002    0.089    0.091
 transfer_pw2rs_170                  40 12.0    0.036    0.038    0.081    0.090
 parser_read_line_low                23  6.2    0.008    0.035    0.087    0.089
 broadcast_input_information         23  7.2    0.027    0.030    0.079    0.084
 mp_isend_iv                     139720  8.3    0.022    0.083    0.022    0.083
 cp_fm_cleanup_copy_general       44112  7.0    0.051    0.053    0.078    0.080
 fft_wrap_pw1pw2_170                 81 10.5    0.005    0.005    0.072    0.077
 transfer_rs2pw_170                  41  9.0    0.032    0.034    0.069    0.072
 kpoint_set_mo_occupation            40  7.0    0.038    0.039    0.062    0.071
 mixing_allocate                      1  3.0    0.003    0.003    0.045    0.069
 dbcsr_get_data_size_used        147100  9.8    0.060    0.065    0.060    0.065
 topology_control                     1  2.0    0.000    0.000    0.063    0.063
 pw_integral_ab_c1d_c1d_gs           40  9.0    0.060    0.062    0.062    0.063
 create_qs_kind_set                   1  2.0    0.000    0.000    0.061    0.062
 read_qs_kind                         1  3.0    0.030    0.033    0.061    0.062
 dbcsr_zero                      146953  8.9    0.051    0.060    0.051    0.060
 mp_irecv_im2                    124064  8.3    0.007    0.059    0.007    0.059
 qs_init_subsys                       1  2.0    0.001    0.001    0.055    0.055
 pw_gather_p                        325 11.8    0.054    0.055    0.054    0.055
 qs_env_setup                         1  3.0    0.000    0.000    0.053    0.053
 qs_env_rebuild_pw_env                2  3.5    0.000    0.000    0.052    0.053
 pw_env_rebuild                       1  5.0    0.000    0.000    0.052    0.052
 dbcsr_distribution_new           63016  8.6    0.048    0.052    0.048    0.052
 pw_grid_setup                        4  6.0    0.000    0.000    0.051    0.051
 pw_grid_setup_internal               4  7.0    0.001    0.002    0.051    0.051
 cp_cfm_triangular_invert          1317  7.9    0.048    0.050    0.048    0.050
 calculate_first_density_matrix       1  5.0    0.000    0.000    0.028    0.049
 scf_post_calculation_gpw             1  3.0    0.000    0.000    0.049    0.049
 write_available_results              1  4.0    0.000    0.000    0.048    0.048
 write_mo_free_results                1  5.0    0.002    0.002    0.048    0.048
 calculate_atomic_block_dm            1  6.0    0.001    0.001    0.027    0.048
 dbcsr_make_dbcsr_index          171259 10.9    0.046    0.048    0.046    0.048
 dbcsr_data_copy_aa2              63014 11.3    0.043    0.048    0.043    0.048
 cp_cfm_cholesky_decompose         1317  7.9    0.046    0.047    0.046    0.047
 read_cell_cif                        2  4.5    0.002    0.004    0.043    0.044
 mp_isend_im2                     69860  8.3    0.010    0.039    0.010    0.039
 coordinate_control                   1  3.0    0.000    0.001    0.038    0.038
 coordinate_control_READ_COORDI       1  4.0    0.000    0.000    0.038    0.038
 read_coordinate_cif                  1  5.0    0.002    0.002    0.038    0.038
 mp_irecv_dv                      62624  8.3    0.035    0.038    0.035    0.038
 build_overlap_matrix_low             1  5.0    0.004    0.005    0.024    0.038
 mp_bcast_i_src                      92  8.2    0.032    0.038    0.032    0.038
 build_kinetic_matrix_low             1  5.0    0.004    0.004    0.023    0.037
 pw_grid_sort                         4  8.0    0.024    0.025    0.035    0.035
 qs_env_rebuild_rho                   1  5.0    0.000    0.000    0.023    0.035
 qs_rho_rebuild                       1  6.0    0.001    0.002    0.023    0.035
 build_core_ppnl                      1  5.0    0.028    0.035    0.028    0.035
 mp_sum_dm3                          40  8.0    0.024    0.033    0.024    0.033
 pw_copy                            600 10.5    0.030    0.031    0.030    0.031
 calculate_ecore_overlap              1  4.0    0.000    0.000    0.015    0.030
 pw_derive                          360 11.3    0.028    0.030    0.028    0.030
 mixing_init                          1  5.0    0.025    0.026    0.026    0.026
 mp_sum_iv                           24  5.3    0.013    0.025    0.013    0.025
 qs_scf_ensure_work_matrices          1  3.0    0.000    0.000    0.012    0.025
 fft_wrap_pw1pw2_60                  81 10.5    0.002    0.002    0.022    0.024
 transfer_pw2rs_60                   40 12.0    0.007    0.007    0.020    0.024
 hirshfeld_integration                1  6.0    0.011    0.015    0.022    0.022
 mp_bcast_am_src                     23  8.2    0.014    0.015    0.020    0.021
 calculate_hirshfeld_normalizat       1  6.0    0.009    0.013    0.021    0.021
 pw_copy_from_array                 400 12.2    0.017    0.021    0.017    0.021
 transfer_rs2pw_60                   41  9.0    0.006    0.006    0.019    0.020
 pw_poisson_set                      41  8.9    0.001    0.001    0.019    0.019
 mp_sum_dm                           39  7.0    0.011    0.019    0.011    0.019
 cp_cfm_scale_and_add_fm           5268  6.9    0.017    0.018    0.017    0.018
 mp_comm_size                     40507  9.0    0.011    0.014    0.011    0.014
 pw_axpy                            404  9.3    0.012    0.013    0.012    0.013
 pw_copy_to_array                   325 11.8    0.010    0.012    0.010    0.012
 cp_cfm_to_cfm_columns             1317  7.9    0.011    0.011    0.011    0.011
 sort_shells                          4  9.0    0.010    0.011    0.010    0.011
 fft_wrap_pw1pw2_20                  81 10.5    0.001    0.001    0.010    0.010
 mp_comm_rank                     40507  9.0    0.009    0.010    0.009    0.010
 pw_zero                            201 10.4    0.009    0.010    0.009    0.010
 transfer_pw2rs_20                   40 12.0    0.003    0.003    0.007    0.009
 grid_free_task_list                  1  2.0    0.008    0.009    0.008    0.009
 mp_recv_dv                        2946  7.0    0.001    0.009    0.001    0.009
 mp_sum_l                           429  2.1    0.007    0.008    0.007    0.008
 qs_create_task_list                  1  5.0    0.000    0.000    0.005    0.008
 generate_qs_task_list                1  6.0    0.003    0.005    0.005    0.008
 -------------------------------------------------------------------------------

 The number of warnings for this run is : 1
 
 -------------------------------------------------------------------------------
  **** **** ******  **  PROGRAM ENDED AT                 2025-08-04 12:48:50.697
 ***** ** ***  *** **   PROGRAM RAN ON                              i03r08c05s09
 **    ****   ******    PROGRAM RAN BY                                   di38fab
 ***** **    ** ** **   PROGRAM PROCESS ID                                780293
  **** **  *******  **  PROGRAM STOPPED IN /hppfs/scratch/04/di38fab/09_GTH/Delt
                                           a_Set/As/aug-SZV-MOLOPT-GTH-tier-1/8x
                                           8x8
