In                                      
   1.00000000000000     
     3.298410    0.000000    0.000000
     0.000000    3.298410    0.000000
     0.000000    0.000000    5.062560
   In
     2
Direct
  0.000000  0.000000  0.000000
  0.500000  0.500000  0.500000
 
   28   28   48
  658.33      627.47      543.60      428.34      306.54      198.14      115.00      61.007      32.809      21.032    
  14.798      10.935      8.8189      7.8218      7.5376      7.8218      8.8189      10.935      14.798      21.032    
  32.809      61.007      115.00      198.14      306.54      428.34      543.60      627.47      627.47      598.13    
  518.29      408.41      292.16      188.65      109.41      58.211      31.689      20.583      14.514      10.762    
  8.7035      7.7305      7.4525      7.7305      8.7035      10.762      14.514      20.583      31.689      58.211    
  109.41      188.65      292.16      408.41      518.29      598.13      543.60      518.29      449.27      353.94    
  252.76      162.70      94.232      50.731      28.728      19.308      13.707      10.268      8.3720      7.4662    
  7.2054      7.4662      8.3720      10.268      13.707      19.308      28.728      50.731      94.232      162.70    
  252.76      353.94      449.27      518.29      428.34      408.41      353.94      278.40      198.06      126.89    
  73.655      40.890      24.884      17.385      12.504      9.5264      7.8647      7.0558      6.8196      7.0558    
  7.8647      9.5264      12.504      17.385      24.884      40.890      73.655      126.89      198.06      278.40    
  353.94      408.41      306.54      292.16      252.76      198.06      140.11      89.530      52.877      31.387    
  21.046      15.081      11.075      8.6312      7.2370      6.5383      6.3299      6.5383      7.2370      8.6312    
  11.075      15.081      21.046      31.387      52.877      89.530      140.11      198.06      252.76      292.16    
  198.14      188.65      162.70      126.89      89.530      57.928      36.167      24.026      17.394      12.698    
  9.5962      7.6782      6.5467      5.9577      5.7771      5.9577      6.5467      7.6782      9.5962      12.698    
  17.394      24.026      36.167      57.928      89.530      126.89      162.70      188.65      115.00      109.41    
  94.232      73.655      52.877      36.167      25.270      18.772      13.957      10.494      8.2039      6.7443    
  5.8451      5.3566      5.2024      5.3566      5.8451      6.7443      8.2039      10.494      13.957      18.772    
  25.270      36.167      52.877      73.655      94.232      109.41      61.007      58.211      50.731      40.890    
  31.387      24.026      18.772      14.437      11.045      8.6225      6.9779      5.8807      5.1726      4.7723    
  4.6428      4.7723      5.1726      5.8807      6.9779      8.6225      11.045      14.437      18.772      24.026    
  31.387      40.890      50.731      58.211      32.809      31.689      28.728      24.884      21.046      17.394    
  13.957      11.045      8.7837      7.1271      5.9459      5.1163      4.5588      4.2346      4.1280      4.2346    
  4.5588      5.1163      5.9459      7.1271      8.7837      11.045      13.957      17.394      21.046      24.884    
  28.728      31.689      21.032      20.583      19.308      17.385      15.081      12.698      10.494      8.6225    
  7.1271      5.9743      5.1045      4.4658      4.0250      3.7651      3.6790      3.7651      4.0250      4.4658    
  5.1045      5.9743      7.1271      8.6225      10.494      12.698      15.081      17.385      19.308      20.583    
  14.798      14.514      13.707      12.504      11.075      9.5962      8.2039      6.9779      5.9459      5.1045    
  4.4393      3.9363      3.5849      3.3773      3.3087      3.3773      3.5849      3.9363      4.4393      5.1045    
  5.9459      6.9779      8.2039      9.5962      11.075      12.504      13.707      14.514      10.935      10.762    
  10.268      9.5264      8.6312      7.6782      6.7443      5.8807      5.1163      4.4658      3.9363      3.5301    
  3.2455      3.0780      3.0228      3.0780      3.2455      3.5301      3.9363      4.4658      5.1163      5.8807    
  6.7443      7.6782      8.6312      9.5264      10.268      10.762      8.8189      8.7035      8.3720      7.8647    
  7.2370      6.5467      5.8451      5.1726      4.5588      4.0250      3.5849      3.2455      3.0075      2.8676    
  2.8216      2.8676      3.0075      3.2455      3.5849      4.0250      4.5588      5.1726      5.8451      6.5467    
  7.2370      7.8647      8.3720      8.7035      7.8218      7.7305      7.4662      7.0558      6.5383      5.9577    
  5.3566      4.7723      4.2346      3.7651      3.3773      3.0780      2.8676      2.7437      2.7028      2.7437    
  2.8676      3.0780      3.3773      3.7651      4.2346      4.7723      5.3566      5.9577      6.5383      7.0558    
  7.4662      7.7305      7.5376      7.4525      7.2054      6.8196      6.3299      5.7771      5.2024      4.6428    
  4.1280      3.6790      3.3087      3.0228      2.8216      2.7028      2.6636      2.7028      2.8216      3.0228    
  3.3087      3.6790      4.1280      4.6428      5.2024      5.7771      6.3299      6.8196      7.2054      7.4525    
  7.8218      7.7305      7.4662      7.0558      6.5383      5.9577      5.3566      4.7723      4.2346      3.7651    
  3.3773      3.0780      2.8676      2.7437      2.7028      2.7437      2.8676      3.0780      3.3773      3.7651    
  4.2346      4.7723      5.3566      5.9577      6.5383      7.0558      7.4662      7.7305      8.8189      8.7035    
  8.3720      7.8647      7.2370      6.5467      5.8451      5.1726      4.5588      4.0250      3.5849      3.2455    
  3.0075      2.8676      2.8216      2.8676      3.0075      3.2455      3.5849      4.0250      4.5588      5.1726    
  5.8451      6.5467      7.2370      7.8647      8.3720      8.7035      10.935      10.762      10.268      9.5264    
  8.6312      7.6782      6.7443      5.8807      5.1163      4.4658      3.9363      3.5301      3.2455      3.0780    
  3.0228      3.0780      3.2455      3.5301      3.9363      4.4658      5.1163      5.8807      6.7443      7.6782    
  8.6312      9.5264      10.268      10.762      14.798      14.514      13.707      12.504      11.075      9.5962    
  8.2039      6.9779      5.9459      5.1045      4.4393      3.9363      3.5849      3.3773      3.3087      3.3773    
  3.5849      3.9363      4.4393      5.1045      5.9459      6.9779      8.2039      9.5962      11.075      12.504    
  13.707      14.514      21.032      20.583      19.308      17.385      15.081      12.698      10.494      8.6225    
  7.1271      5.9743      5.1045      4.4658      4.0250      3.7651      3.6790      3.7651      4.0250      4.4658    
  5.1045      5.9743      7.1271      8.6225      10.494      12.698      15.081      17.385      19.308      20.583    
  32.809      31.689      28.728      24.884      21.046      17.394      13.957      11.045      8.7837      7.1271    
  5.9459      5.1163      4.5588      4.2346      4.1280      4.2346      4.5588      5.1163      5.9459      7.1271    
  8.7837      11.045      13.957      17.394      21.046      24.884      28.728      31.689      61.007      58.211    
  50.731      40.890      31.387      24.026      18.772      14.437      11.045      8.6225      6.9779      5.8807    
  5.1726      4.7723      4.6428      4.7723      5.1726      5.8807      6.9779      8.6225      11.045      14.437    
  18.772      24.026      31.387      40.890      50.731      58.211      115.00      109.41      94.232      73.655    
  52.877      36.167      25.270      18.772      13.957      10.494      8.2039      6.7443      5.8451      5.3566    
  5.2024      5.3566      5.8451      6.7443      8.2039      10.494      13.957      18.772      25.270      36.167    
  52.877      73.655      94.232      109.41      198.14      188.65      162.70      126.89      89.530      57.928    
  36.167      24.026      17.394      12.698      9.5962      7.6782      6.5467      5.9577      5.7771      5.9577    
  6.5467      7.6782      9.5962      12.698      17.394      24.026      36.167      57.928      89.530      126.89    
  162.70      188.65      306.54      292.16      252.76      198.06      140.11      89.530      52.877      31.387    
  21.046      15.081      11.075      8.6312      7.2370      6.5383      6.3299      6.5383      7.2370      8.6312    
  11.075      15.081      21.046      31.387      52.877      89.530      140.11      198.06      252.76      292.16    
  428.34      408.41      353.94      278.40      198.06      126.89      73.655      40.890      24.884      17.385    
  12.504      9.5264      7.8647      7.0558      6.8196      7.0558      7.8647      9.5264      12.504      17.385    
  24.884      40.890      73.655      126.89      198.06      278.40      353.94      408.41      543.60      518.29    
  449.27      353.94      252.76      162.70      94.232      50.731      28.728      19.308      13.707      10.268    
  8.3720      7.4662      7.2054      7.4662      8.3720      10.268      13.707      19.308      28.728      50.731    
  94.232      162.70      252.76      353.94      449.27      518.29      627.47      598.13      518.29      408.41    
  292.16      188.65      109.41      58.211      31.689      20.583      14.514      10.762      8.7035      7.7305    
  7.4525      7.7305      8.7035      10.762      14.514      20.583      31.689      58.211      109.41      188.65    
  292.16      408.41      518.29      598.13      633.52      603.88      523.25      412.32      294.98      190.52    
  110.51      58.764      31.916      20.682      14.582      10.808      8.7391      7.7617      7.4826      7.7617    
  8.7391      10.808      14.582      20.682      31.916      58.764      110.51      190.52      294.98      412.32    
  523.25      603.88      603.88      575.68      498.90      393.14      281.12      181.37      105.14      56.094    
  30.852      20.244      14.304      10.639      8.6258      7.6718      7.3987      7.6718      8.6258      10.639    
  14.304      20.244      30.852      56.094      105.14      181.37      281.12      393.14      498.90      575.68    
  523.25      498.90      432.48      340.66      243.14      156.38      90.571      48.958      28.040      18.995    
  13.515      10.156      8.3004      7.4116      7.1552      7.4116      8.3004      10.156      13.515      18.995    
  28.040      48.958      90.571      156.38      243.14      340.66      432.48      498.90      412.32      393.14    
  340.66      267.86      190.44      121.93      70.854      39.586      24.380      17.110      12.338      9.4292    
  7.8022      7.0076      6.7751      7.0076      7.8022      9.4292      12.338      17.110      24.380      39.586    
  70.854      121.93      190.44      267.86      340.66      393.14      294.98      281.12      243.14      190.44    
  134.65      86.059      50.999      30.557      20.691      14.855      10.941      8.5521      7.1853      6.4981    
  6.2926      6.4981      7.1853      8.5521      10.941      14.855      20.691      30.557      50.999      86.059    
  134.65      190.44      243.14      281.12      190.52      181.37      156.38      121.93      86.059      55.817    
  35.093      23.555      17.119      12.526      9.4949      7.6176      6.5065      5.9263      5.7480      5.9263    
  6.5065      7.6176      9.4949      12.526      17.119      23.555      35.093      55.817      86.059      121.93    
  156.38      181.37      110.51      105.14      90.571      70.854      50.999      35.093      24.740      18.469    
  13.756      10.371      8.1318      6.7006      5.8162      5.3343      5.1819      5.3343      5.8162      6.7006    
  8.1318      10.371      13.756      18.469      24.740      35.093      50.999      70.854      90.571      105.14    
  58.764      56.094      48.958      39.586      30.557      23.555      18.469      14.225      10.909      8.5412    
  6.9297      5.8515      5.1539      4.7587      4.6306      4.7587      5.1539      5.8515      6.9297      8.5412    
  10.909      14.225      18.469      23.555      30.557      39.586      48.958      56.094      31.916      30.852    
  28.040      24.380      20.691      17.119      13.756      10.909      8.6987      7.0760      5.9158      5.0989    
  4.5490      4.2288      4.1233      4.2288      4.5490      5.0989      5.9158      7.0760      8.6987      10.909    
  13.756      17.119      20.691      24.380      28.040      30.852      20.682      20.244      18.995      17.110    
  14.855      12.526      10.371      8.5412      7.0760      5.9438      5.0875      4.4576      4.0224      3.7657    
  3.6806      3.7657      4.0224      4.4576      5.0875      5.9438      7.0760      8.5412      10.371      12.526    
  14.855      17.110      18.995      20.244      14.582      14.304      13.515      12.338      10.941      9.4949    
  8.1318      6.9297      5.9158      5.0875      4.4316      3.9351      3.5880      3.3829      3.3151      3.3829    
  3.5880      3.9351      4.4316      5.0875      5.9158      6.9297      8.1318      9.4949      10.941      12.338    
  13.515      14.304      10.808      10.639      10.156      9.4292      8.5521      7.6176      6.7006      5.8515    
  5.0989      4.4576      3.9351      3.5339      3.2526      3.0871      3.0325      3.0871      3.2526      3.5339    
  3.9351      4.4576      5.0989      5.8515      6.7006      7.6176      8.5521      9.4292      10.156      10.639    
  8.7391      8.6258      8.3004      7.8022      7.1853      6.5065      5.8162      5.1539      4.5490      4.0224    
  3.5880      3.2526      3.0174      2.8790      2.8335      2.8790      3.0174      3.2526      3.5880      4.0224    
  4.5490      5.1539      5.8162      6.5065      7.1853      7.8022      8.3004      8.6258      7.7617      7.6718    
  7.4116      7.0076      6.4981      5.9263      5.3343      4.7587      4.2288      3.7657      3.3829      3.0871    
  2.8790      2.7562      2.7157      2.7562      2.8790      3.0871      3.3829      3.7657      4.2288      4.7587    
  5.3343      5.9263      6.4981      7.0076      7.4116      7.6718      7.4826      7.3987      7.1552      6.7751    
  6.2926      5.7480      5.1819      4.6306      4.1233      3.6806      3.3151      3.0325      2.8335      2.7157    
  2.6769      2.7157      2.8335      3.0325      3.3151      3.6806      4.1233      4.6306      5.1819      5.7480    
  6.2926      6.7751      7.1552      7.3987      7.7617      7.6718      7.4116      7.0076      6.4981      5.9263    
  5.3343      4.7587      4.2288      3.7657      3.3829      3.0871      2.8790      2.7562      2.7157      2.7562    
  2.8790      3.0871      3.3829      3.7657      4.2288      4.7587      5.3343      5.9263      6.4981      7.0076    
  7.4116      7.6718      8.7391      8.6258      8.3004      7.8022      7.1853      6.5065      5.8162      5.1539    
  4.5490      4.0224      3.5880      3.2526      3.0174      2.8790      2.8335      2.8790      3.0174      3.2526    
  3.5880      4.0224      4.5490      5.1539      5.8162      6.5065      7.1853      7.8022      8.3004      8.6258    
  10.808      10.639      10.156      9.4292      8.5521      7.6176      6.7006      5.8515      5.0989      4.4576    
  3.9351      3.5339      3.2526      3.0871      3.0325      3.0871      3.2526      3.5339      3.9351      4.4576    
  5.0989      5.8515      6.7006      7.6176      8.5521      9.4292      10.156      10.639      14.582      14.304    
  13.515      12.338      10.941      9.4949      8.1318      6.9297      5.9158      5.0875      4.4316      3.9351    
  3.5880      3.3829      3.3151      3.3829      3.5880      3.9351      4.4316      5.0875      5.9158      6.9297    
  8.1318      9.4949      10.941      12.338      13.515      14.304      20.682      20.244      18.995      17.110    
  14.855      12.526      10.371      8.5412      7.0760      5.9438      5.0875      4.4576      4.0224      3.7657    
  3.6806      3.7657      4.0224      4.4576      5.0875      5.9438      7.0760      8.5412      10.371      12.526    
  14.855      17.110      18.995      20.244      31.916      30.852      28.040      24.380      20.691      17.119    
  13.756      10.909      8.6987      7.0760      5.9158      5.0989      4.5490      4.2288      4.1233      4.2288    
  4.5490      5.0989      5.9158      7.0760      8.6987      10.909      13.756      17.119      20.691      24.380    
  28.040      30.852      58.764      56.094      48.958      39.586      30.557      23.555      18.469      14.225    
  10.909      8.5412      6.9297      5.8515      5.1539      4.7587      4.6306      4.7587      5.1539      5.8515    
  6.9297      8.5412      10.909      14.225      18.469      23.555      30.557      39.586      48.958      56.094    
  110.51      105.14      90.571      70.854      50.999      35.093      24.740      18.469      13.756      10.371    
  8.1318      6.7006      5.8162      5.3343      5.1819      5.3343      5.8162      6.7006      8.1318      10.371    
  13.756      18.469      24.740      35.093      50.999      70.854      90.571      105.14      190.52      181.37    
  156.38      121.93      86.059      55.817      35.093      23.555      17.119      12.526      9.4949      7.6176    
  6.5065      5.9263      5.7480      5.9263      6.5065      7.6176      9.4949      12.526      17.119      23.555    
  35.093      55.817      86.059      121.93      156.38      181.37      294.98      281.12      243.14      190.44    
  134.65      86.059      50.999      30.557      20.691      14.855      10.941      8.5521      7.1853      6.4981    
  6.2926      6.4981      7.1853      8.5521      10.941      14.855      20.691      30.557      50.999      86.059    
  134.65      190.44      243.14      281.12      412.32      393.14      340.66      267.86      190.44      121.93    
  70.854      39.586      24.380      17.110      12.338      9.4292      7.8022      7.0076      6.7751      7.0076    
  7.8022      9.4292      12.338      17.110      24.380      39.586      70.854      121.93      190.44      267.86    
  340.66      393.14      523.25      498.90      432.48      340.66      243.14      156.38      90.571      48.958    
  28.040      18.995      13.515      10.156      8.3004      7.4116      7.1552      7.4116      8.3004      10.156    
  13.515      18.995      28.040      48.958      90.571      156.38      243.14      340.66      432.48      498.90    
  603.88      575.68      498.90      393.14      281.12      181.37      105.14      56.094      30.852      20.244    
  14.304      10.639      8.6258      7.6718      7.3987      7.6718      8.6258      10.639      14.304      20.244    
  30.852      56.094      105.14      181.37      281.12      393.14      498.90      575.68      564.77      538.45    
  466.72      367.73      262.74      169.27      98.071      52.627      29.500      19.681      13.962      10.445    
  8.5090      7.5872      7.3224      7.5872      8.5090      10.445      13.962      19.681      29.500      52.627    
  98.071      169.27      262.74      367.73      466.72      538.45      538.45      513.38      445.02      350.58    
  250.33      161.11      93.321      50.307      28.588      19.269      13.702      10.286      8.4018      7.5016    
  7.2423      7.5016      8.4018      10.286      13.702      19.269      28.588      50.307      93.321      161.11    
  250.33      350.58      445.02      513.38      466.72      445.02      385.74      303.64      216.33      138.82    
  80.466      44.124      26.173      18.092      12.965      9.8331      8.0940      7.2536      7.0095      7.2536    
  8.0940      9.8331      12.965      18.092      26.173      44.124      80.466      138.82      216.33      303.64    
  385.74      445.02      367.73      350.58      303.64      238.46      169.20      108.18      63.157      36.050    
  22.998      16.322      11.865      9.1508      7.6221      6.8684      6.6462      6.8684      7.6221      9.1508    
  11.865      16.322      22.998      36.050      63.157      108.18      169.20      238.46      303.64      350.58    
  262.74      250.33      216.33      169.20      119.47      76.489      45.877      28.312      19.686      14.211    
  10.560      8.3256      7.0367      6.3822      6.1850      6.3822      7.0367      8.3256      10.560      14.211    
  19.686      28.312      45.877      76.489      119.47      169.20      216.33      250.33      169.27      161.11    
  138.82      108.18      76.489      50.049      32.187      22.261      16.329      12.034      9.2057      7.4439    
  6.3913      5.8362      5.6645      5.8362      6.3913      7.4439      9.2057      12.034      16.329      22.261    
  32.187      50.049      76.489      108.18      138.82      161.11      98.071      93.321      80.466      63.157    
  45.877      32.187      23.296      17.597      13.181      10.022      7.9260      6.5756      5.7333      5.2706    
  5.1235      5.2706      5.7333      6.5756      7.9260      10.022      13.181      17.597      23.296      32.187    
  45.877      63.157      80.466      93.321      52.627      50.307      44.124      36.050      28.312      22.261    
  17.597      13.619      10.524      8.3091      6.7919      5.7682      5.1007      4.7202      4.5965      4.7202    
  5.1007      5.7682      6.7919      8.3091      10.524      13.619      17.597      22.261      28.312      36.050    
  44.124      50.307      29.500      28.588      26.173      22.998      19.686      16.329      13.181      10.524    
  8.4564      6.9300      5.8299      5.0497      4.5216      4.2130      4.1112      4.2130      4.5216      5.0497    
  5.8299      6.9300      8.4564      10.524      13.181      16.329      19.686      22.998      26.173      28.588    
  19.681      19.269      18.092      16.322      14.211      12.034      10.022      8.3091      6.9300      5.8568    
  5.0395      4.4352      4.0165      3.7691      3.6871      3.7691      4.0165      4.4352      5.0395      5.8568    
  6.9300      8.3091      10.022      12.034      14.211      16.322      18.092      19.269      13.962      13.702    
  12.965      11.865      10.560      9.2057      7.9260      6.7919      5.8299      5.0395      4.4106      3.9332    
  3.5989      3.4014      3.3361      3.4014      3.5989      3.9332      4.4106      5.0395      5.8299      6.7919    
  7.9260      9.2057      10.560      11.865      12.965      13.702      10.445      10.286      9.8331      9.1508    
  8.3256      7.4439      6.5756      5.7682      5.0497      4.4352      3.9332      3.5470      3.2761      3.1165    
  3.0639      3.1165      3.2761      3.5470      3.9332      4.4352      5.0497      5.7682      6.5756      7.4439    
  8.3256      9.1508      9.8331      10.286      8.5090      8.4018      8.0940      7.6221      7.0367      6.3913    
  5.7333      5.1007      4.5216      4.0165      3.5989      3.2761      3.0492      2.9155      2.8715      2.9155    
  3.0492      3.2761      3.5989      4.0165      4.5216      5.1007      5.7333      6.3913      7.0367      7.6221    
  8.0940      8.4018      7.5872      7.5016      7.2536      6.8684      6.3822      5.8362      5.2706      4.7202    
  4.2130      3.7691      3.4014      3.1165      2.9155      2.7967      2.7574      2.7967      2.9155      3.1165    
  3.4014      3.7691      4.2130      4.7202      5.2706      5.8362      6.3822      6.8684      7.2536      7.5016    
  7.3224      7.2423      7.0095      6.6462      6.1850      5.6645      5.1235      4.5965      4.1112      3.6871    
  3.3361      3.0639      2.8715      2.7574      2.7197      2.7574      2.8715      3.0639      3.3361      3.6871    
  4.1112      4.5965      5.1235      5.6645      6.1850      6.6462      7.0095      7.2423      7.5872      7.5016    
  7.2536      6.8684      6.3822      5.8362      5.2706      4.7202      4.2130      3.7691      3.4014      3.1165    
  2.9155      2.7967      2.7574      2.7967      2.9155      3.1165      3.4014      3.7691      4.2130      4.7202    
  5.2706      5.8362      6.3822      6.8684      7.2536      7.5016      8.5090      8.4018      8.0940      7.6221    
  7.0367      6.3913      5.7333      5.1007      4.5216      4.0165      3.5989      3.2761      3.0492      2.9155    
  2.8715      2.9155      3.0492      3.2761      3.5989      4.0165      4.5216      5.1007      5.7333      6.3913    
  7.0367      7.6221      8.0940      8.4018      10.445      10.286      9.8331      9.1508      8.3256      7.4439    
  6.5756      5.7682      5.0497      4.4352      3.9332      3.5470      3.2761      3.1165      3.0639      3.1165    
  3.2761      3.5470      3.9332      4.4352      5.0497      5.7682      6.5756      7.4439      8.3256      9.1508    
  9.8331      10.286      13.962      13.702      12.965      11.865      10.560      9.2057      7.9260      6.7919    
  5.8299      5.0395      4.4106      3.9332      3.5989      3.4014      3.3361      3.4014      3.5989      3.9332    
  4.4106      5.0395      5.8299      6.7919      7.9260      9.2057      10.560      11.865      12.965      13.702    
  19.681      19.269      18.092      16.322      14.211      12.034      10.022      8.3091      6.9300      5.8568    
  5.0395      4.4352      4.0165      3.7691      3.6871      3.7691      4.0165      4.4352      5.0395      5.8568    
  6.9300      8.3091      10.022      12.034      14.211      16.322      18.092      19.269      29.500      28.588    
  26.173      22.998      19.686      16.329      13.181      10.524      8.4564      6.9300      5.8299      5.0497    
  4.5216      4.2130      4.1112      4.2130      4.5216      5.0497      5.8299      6.9300      8.4564      10.524    
  13.181      16.329      19.686      22.998      26.173      28.588      52.627      50.307      44.124      36.050    
  28.312      22.261      17.597      13.619      10.524      8.3091      6.7919      5.7682      5.1007      4.7202    
  4.5965      4.7202      5.1007      5.7682      6.7919      8.3091      10.524      13.619      17.597      22.261    
  28.312      36.050      44.124      50.307      98.071      93.321      80.466      63.157      45.877      32.187    
  23.296      17.597      13.181      10.022      7.9260      6.5756      5.7333      5.2706      5.1235      5.2706    
  5.7333      6.5756      7.9260      10.022      13.181      17.597      23.296      32.187      45.877      63.157    
  80.466      93.321      169.27      161.11      138.82      108.18      76.489      50.049      32.187      22.261    
  16.329      12.034      9.2057      7.4439      6.3913      5.8362      5.6645      5.8362      6.3913      7.4439    
  9.2057      12.034      16.329      22.261      32.187      50.049      76.489      108.18      138.82      161.11    
  262.74      250.33      216.33      169.20      119.47      76.489      45.877      28.312      19.686      14.211    
  10.560      8.3256      7.0367      6.3822      6.1850      6.3822      7.0367      8.3256      10.560      14.211    
  19.686      28.312      45.877      76.489      119.47      169.20      216.33      250.33      367.73      350.58    
  303.64      238.46      169.20      108.18      63.157      36.050      22.998      16.322      11.865      9.1508    
  7.6221      6.8684      6.6462      6.8684      7.6221      9.1508      11.865      16.322      22.998      36.050    
  63.157      108.18      169.20      238.46      303.64      350.58      466.72      445.02      385.74      303.64    
  216.33      138.82      80.466      44.124      26.173      18.092      12.965      9.8331      8.0940      7.2536    
  7.0095      7.2536      8.0940      9.8331      12.965      18.092      26.173      44.124      80.466      138.82    
  216.33      303.64      385.74      445.02      538.45      513.38      445.02      350.58      250.33      161.11    
  93.321      50.307      28.588      19.269      13.702      10.286      8.4018      7.5016      7.2423      7.5016    
  8.4018      10.286      13.702      19.269      28.588      50.307      93.321      161.11      250.33      350.58    
  445.02      513.38      466.70      445.00      385.72      303.62      216.33      138.82      80.483      44.156    
  26.215      18.142      13.018      9.8904      8.1539      7.3151      7.0715      7.3151      8.1539      9.8904    
  13.018      18.142      26.215      44.156      80.483      138.82      216.33      303.62      385.72      445.00    
  445.00      424.31      367.76      289.37      206.01      132.08      76.637      42.335      25.505      17.769    
  12.787      9.7477      8.0565      7.2362      6.9974      7.2362      8.0565      9.7477      12.787      17.769    
  25.505      42.335      76.637      132.08      206.01      289.37      367.76      424.31      385.72      367.76    
  318.58      250.33      177.78      113.73      66.274      37.505      23.609      16.708      12.129      9.3409    
  7.7761      7.0079      6.7822      7.0079      7.7761      9.3409      12.129      16.708      23.609      37.505    
  66.274      113.73      177.78      250.33      318.58      367.76      303.62      289.37      250.33      196.15    
  138.75      88.683      52.450      31.245      21.040      15.119      11.148      8.7265      7.3452      6.6528    