In                                      
   1.00000000000000     
     3.298410    0.000000    0.000000
     0.000000    3.298410    0.000000
     0.000000    0.000000    5.062560
   In
     2
Direct
  0.000000  0.000000  0.000000
  0.500000  0.500000  0.500000
 
   28   28   48
 0.65832842598E+03 0.62747445883E+03 0.54359929788E+03 0.42833573077E+03 0.30654111314E+03
 0.19814448444E+03 0.11499825922E+03 0.61006538022E+02 0.32808694567E+02 0.21032278216E+02
 0.14797916073E+02 0.10935028406E+02 0.88188851484E+01 0.78217901650E+01 0.75376360974E+01
 0.78217901650E+01 0.88188851484E+01 0.10935028406E+02 0.14797916073E+02 0.21032278216E+02
 0.32808694567E+02 0.61006538022E+02 0.11499825922E+03 0.19814448444E+03 0.30654111314E+03
 0.42833573077E+03 0.54359929788E+03 0.62747445883E+03 0.62747445883E+03 0.59812852704E+03
 0.51828706435E+03 0.40841379718E+03 0.29215685714E+03 0.18865295590E+03 0.10940742963E+03
 0.58211064236E+02 0.31688578395E+02 0.20582624900E+02 0.14513822200E+02 0.10761761205E+02
 0.87034501600E+01 0.77304693829E+01 0.74525036734E+01 0.77304693829E+01 0.87034501600E+01
 0.10761761205E+02 0.14513822200E+02 0.20582624900E+02 0.31688578395E+02 0.58211064236E+02
 0.10940742963E+03 0.18865295590E+03 0.29215685714E+03 0.40841379718E+03 0.51828706435E+03
 0.59812852704E+03 0.54359929788E+03 0.51828706435E+03 0.44926640915E+03 0.35393981276E+03
 0.25275774718E+03 0.16269831600E+03 0.94231609067E+02 0.50731086632E+02 0.28728351186E+02
 0.19308060767E+02 0.13707253852E+02 0.10268430399E+02 0.83719565058E+01 0.74661641297E+01
 0.72053618554E+01 0.74661641297E+01 0.83719565058E+01 0.10268430399E+02 0.13707253852E+02
 0.19308060767E+02 0.28728351186E+02 0.50731086632E+02 0.94231609067E+02 0.16269831600E+03
 0.25275774718E+03 0.35393981276E+03 0.44926640915E+03 0.51828706435E+03 0.42833573077E+03
 0.40841379718E+03 0.35393981276E+03 0.27840163223E+03 0.19806198107E+03 0.12688523137E+03
 0.73655225949E+02 0.40889797060E+02 0.24883939017E+02 0.17384749632E+02 0.12503577140E+02
 0.95263817054E+01 0.78647031656E+01 0.70558238096E+01 0.68195984503E+01 0.70558238096E+01
 0.78647031656E+01 0.95263817054E+01 0.12503577140E+02 0.17384749632E+02 0.24883939017E+02
 0.40889797060E+02 0.73655225949E+02 0.12688523137E+03 0.19806198107E+03 0.27840163223E+03
 0.35393981276E+03 0.40841379718E+03 0.30654111314E+03 0.29215685714E+03 0.25275774718E+03
 0.19806198107E+03 0.14011454359E+03 0.89529882251E+02 0.52876531702E+02 0.31387056862E+02
 0.21045521931E+02 0.15080525232E+02 0.11075024059E+02 0.86311801158E+01 0.72369635435E+01
 0.65383379823E+01 0.63299375310E+01 0.65383379823E+01 0.72369635435E+01 0.86311801158E+01
 0.11075024059E+02 0.15080525232E+02 0.21045521931E+02 0.31387056862E+02 0.52876531702E+02
 0.89529882251E+02 0.14011454359E+03 0.19806198107E+03 0.25275774718E+03 0.29215685714E+03
 0.19814448444E+03 0.18865295590E+03 0.16269831600E+03 0.12688523137E+03 0.89529882251E+02
 0.57927565750E+02 0.36166553600E+02 0.24026495742E+02 0.17394483621E+02 0.12697637196E+02
 0.95961635727E+01 0.76782300346E+01 0.65466846291E+01 0.59576732594E+01 0.57771426633E+01
 0.59576732594E+01 0.65466846291E+01 0.76782300346E+01 0.95961635727E+01 0.12697637196E+02
 0.17394483621E+02 0.24026495742E+02 0.36166553600E+02 0.57927565750E+02 0.89529882251E+02
 0.12688523137E+03 0.16269831600E+03 0.18865295590E+03 0.11499825922E+03 0.10940742963E+03
 0.94231609067E+02 0.73655225949E+02 0.52876531702E+02 0.36166553600E+02 0.25269731301E+02
 0.18771802980E+02 0.13957198031E+02 0.10493538413E+02 0.82038982089E+01 0.67443352338E+01
 0.58450976333E+01 0.53565897601E+01 0.52024399560E+01 0.53565897601E+01 0.58450976333E+01
 0.67443352338E+01 0.82038982089E+01 0.10493538413E+02 0.13957198031E+02 0.18771802980E+02
 0.25269731301E+02 0.36166553600E+02 0.52876531702E+02 0.73655225949E+02 0.94231609067E+02
 0.10940742963E+03 0.61006538022E+02 0.58211064236E+02 0.50731086632E+02 0.40889797060E+02
 0.31387056862E+02 0.24026495742E+02 0.18771802980E+02 0.14437016721E+02 0.11044577706E+02
 0.86225380152E+01 0.69778759681E+01 0.58806962667E+01 0.51725673839E+01 0.47723499287E+01
 0.46428199328E+01 0.47723499287E+01 0.51725673839E+01 0.58806962667E+01 0.69778759681E+01
 0.86225380152E+01 0.11044577706E+02 0.14437016721E+02 0.18771802980E+02 0.24026495742E+02
 0.31387056862E+02 0.40889797060E+02 0.50731086632E+02 0.58211064236E+02 0.32808694567E+02
 0.31688578395E+02 0.28728351186E+02 0.24883939017E+02 0.21045521931E+02 0.17394483621E+02
 0.13957198031E+02 0.11044577706E+02 0.87836862949E+01 0.71271434105E+01 0.59458935180E+01
 0.51162846596E+01 0.45588430002E+01 0.42346487036E+01 0.41279717241E+01 0.42346487036E+01
 0.45588430002E+01 0.51162846596E+01 0.59458935180E+01 0.71271434105E+01 0.87836862949E+01
 0.11044577706E+02 0.13957198031E+02 0.17394483621E+02 0.21045521931E+02 0.24883939017E+02
 0.28728351186E+02 0.31688578395E+02 0.21032278216E+02 0.20582624900E+02 0.19308060767E+02
 0.17384749632E+02 0.15080525232E+02 0.12697637196E+02 0.10493538413E+02 0.86225380152E+01
 0.71271434105E+01 0.59742598422E+01 0.51044681361E+01 0.44658017838E+01 0.40250141741E+01
 0.37650807415E+01 0.36790183292E+01 0.37650807415E+01 0.40250141741E+01 0.44658017838E+01
 0.51044681361E+01 0.59742598422E+01 0.71271434105E+01 0.86225380152E+01 0.10493538413E+02
 0.12697637196E+02 0.15080525232E+02 0.17384749632E+02 0.19308060767E+02 0.20582624900E+02
 0.14797916073E+02 0.14513822200E+02 0.13707253852E+02 0.12503577140E+02 0.11075024059E+02
 0.95961635727E+01 0.82038982089E+01 0.69778759681E+01 0.59458935180E+01 0.51044681361E+01
 0.44392541576E+01 0.39362928544E+01 0.35848989269E+01 0.33773492100E+01 0.33087366439E+01
 0.33773492100E+01 0.35848989269E+01 0.39362928544E+01 0.44392541576E+01 0.51044681361E+01
 0.59458935180E+01 0.69778759681E+01 0.82038982089E+01 0.95961635727E+01 0.11075024059E+02
 0.12503577140E+02 0.13707253852E+02 0.14513822200E+02 0.10935028406E+02 0.10761761205E+02
 0.10268430399E+02 0.95263817054E+01 0.86311801158E+01 0.76782300346E+01 0.67443352338E+01
 0.58806962667E+01 0.51162846596E+01 0.44658017838E+01 0.39362928544E+01 0.35300769476E+01
 0.32454734302E+01 0.30779568739E+01 0.30227878429E+01 0.30779568739E+01 0.32454734302E+01
 0.35300769476E+01 0.39362928544E+01 0.44658017838E+01 0.51162846596E+01 0.58806962667E+01
 0.67443352338E+01 0.76782300346E+01 0.86311801158E+01 0.95263817054E+01 0.10268430399E+02
 0.10761761205E+02 0.88188851484E+01 0.87034501600E+01 0.83719565058E+01 0.78647031656E+01
 0.72369635435E+01 0.65466846291E+01 0.58450976333E+01 0.51725673839E+01 0.45588430002E+01
 0.40250141741E+01 0.35848989269E+01 0.32454734302E+01 0.30075130085E+01 0.28676313102E+01
 0.28216181210E+01 0.28676313102E+01 0.30075130085E+01 0.32454734302E+01 0.35848989269E+01
 0.40250141741E+01 0.45588430002E+01 0.51725673839E+01 0.58450976333E+01 0.65466846291E+01
 0.72369635435E+01 0.78647031656E+01 0.83719565058E+01 0.87034501600E+01 0.78217901650E+01
 0.77304693829E+01 0.74661641297E+01 0.70558238096E+01 0.65383379823E+01 0.59576732594E+01
 0.53565897601E+01 0.47723499287E+01 0.42346487036E+01 0.37650807415E+01 0.33773492100E+01
 0.30779568739E+01 0.28676313102E+01 0.27436721613E+01 0.27028199576E+01 0.27436721613E+01
 0.28676313102E+01 0.30779568739E+01 0.33773492100E+01 0.37650807415E+01 0.42346487036E+01
 0.47723499287E+01 0.53565897601E+01 0.59576732594E+01 0.65383379823E+01 0.70558238096E+01
 0.74661641297E+01 0.77304693829E+01 0.75376360974E+01 0.74525036734E+01 0.72053618554E+01
 0.68195984503E+01 0.63299375310E+01 0.57771426633E+01 0.52024399560E+01 0.46428199328E+01
 0.41279717241E+01 0.36790183292E+01 0.33087366439E+01 0.30227878429E+01 0.28216181210E+01
 0.27028199576E+01 0.26636139390E+01 0.27028199576E+01 0.28216181210E+01 0.30227878429E+01
 0.33087366439E+01 0.36790183292E+01 0.41279717241E+01 0.46428199328E+01 0.52024399560E+01
 0.57771426633E+01 0.63299375310E+01 0.68195984503E+01 0.72053618554E+01 0.74525036734E+01
 0.78217901650E+01 0.77304693829E+01 0.74661641297E+01 0.70558238096E+01 0.65383379823E+01
 0.59576732594E+01 0.53565897601E+01 0.47723499287E+01 0.42346487036E+01 0.37650807415E+01
 0.33773492100E+01 0.30779568739E+01 0.28676313102E+01 0.27436721613E+01 0.27028199576E+01
 0.27436721613E+01 0.28676313102E+01 0.30779568739E+01 0.33773492100E+01 0.37650807415E+01
 0.42346487036E+01 0.47723499287E+01 0.53565897601E+01 0.59576732594E+01 0.65383379823E+01
 0.70558238096E+01 0.74661641297E+01 0.77304693829E+01 0.88188851484E+01 0.87034501600E+01
 0.83719565058E+01 0.78647031656E+01 0.72369635435E+01 0.65466846291E+01 0.58450976333E+01
 0.51725673839E+01 0.45588430002E+01 0.40250141741E+01 0.35848989269E+01 0.32454734302E+01
 0.30075130085E+01 0.28676313102E+01 0.28216181210E+01 0.28676313102E+01 0.30075130085E+01
 0.32454734302E+01 0.35848989269E+01 0.40250141741E+01 0.45588430002E+01 0.51725673839E+01
 0.58450976333E+01 0.65466846291E+01 0.72369635435E+01 0.78647031656E+01 0.83719565058E+01
 0.87034501600E+01 0.10935028406E+02 0.10761761205E+02 0.10268430399E+02 0.95263817054E+01
 0.86311801158E+01 0.76782300346E+01 0.67443352338E+01 0.58806962667E+01 0.51162846596E+01
 0.44658017838E+01 0.39362928544E+01 0.35300769476E+01 0.32454734302E+01 0.30779568739E+01
 0.30227878429E+01 0.30779568739E+01 0.32454734302E+01 0.35300769476E+01 0.39362928544E+01
 0.44658017838E+01 0.51162846596E+01 0.58806962667E+01 0.67443352338E+01 0.76782300346E+01
 0.86311801158E+01 0.95263817054E+01 0.10268430399E+02 0.10761761205E+02 0.14797916073E+02
 0.14513822200E+02 0.13707253852E+02 0.12503577140E+02 0.11075024059E+02 0.95961635727E+01
 0.82038982089E+01 0.69778759681E+01 0.59458935180E+01 0.51044681361E+01 0.44392541576E+01
 0.39362928544E+01 0.35848989269E+01 0.33773492100E+01 0.33087366439E+01 0.33773492100E+01
 0.35848989269E+01 0.39362928544E+01 0.44392541576E+01 0.51044681361E+01 0.59458935180E+01
 0.69778759681E+01 0.82038982089E+01 0.95961635727E+01 0.11075024059E+02 0.12503577140E+02
 0.13707253852E+02 0.14513822200E+02 0.21032278216E+02 0.20582624900E+02 0.19308060767E+02
 0.17384749632E+02 0.15080525232E+02 0.12697637196E+02 0.10493538413E+02 0.86225380152E+01
 0.71271434105E+01 0.59742598422E+01 0.51044681361E+01 0.44658017838E+01 0.40250141741E+01
 0.37650807415E+01 0.36790183292E+01 0.37650807415E+01 0.40250141741E+01 0.44658017838E+01
 0.51044681361E+01 0.59742598422E+01 0.71271434105E+01 0.86225380152E+01 0.10493538413E+02
 0.12697637196E+02 0.15080525232E+02 0.17384749632E+02 0.19308060767E+02 0.20582624900E+02
 0.32808694567E+02 0.31688578395E+02 0.28728351186E+02 0.24883939017E+02 0.21045521931E+02
 0.17394483621E+02 0.13957198031E+02 0.11044577706E+02 0.87836862949E+01 0.71271434105E+01
 0.59458935180E+01 0.51162846596E+01 0.45588430002E+01 0.42346487036E+01 0.41279717241E+01
 0.42346487036E+01 0.45588430002E+01 0.51162846596E+01 0.59458935180E+01 0.71271434105E+01
 0.87836862949E+01 0.11044577706E+02 0.13957198031E+02 0.17394483621E+02 0.21045521931E+02
 0.24883939017E+02 0.28728351186E+02 0.31688578395E+02 0.61006538022E+02 0.58211064236E+02
 0.50731086632E+02 0.40889797060E+02 0.31387056862E+02 0.24026495742E+02 0.18771802980E+02
 0.14437016721E+02 0.11044577706E+02 0.86225380152E+01 0.69778759681E+01 0.58806962667E+01
 0.51725673839E+01 0.47723499287E+01 0.46428199328E+01 0.47723499287E+01 0.51725673839E+01
 0.58806962667E+01 0.69778759681E+01 0.86225380152E+01 0.11044577706E+02 0.14437016721E+02
 0.18771802980E+02 0.24026495742E+02 0.31387056862E+02 0.40889797060E+02 0.50731086632E+02
 0.58211064236E+02 0.11499825922E+03 0.10940742963E+03 0.94231609067E+02 0.73655225949E+02
 0.52876531702E+02 0.36166553600E+02 0.25269731301E+02 0.18771802980E+02 0.13957198031E+02
 0.10493538413E+02 0.82038982089E+01 0.67443352338E+01 0.58450976333E+01 0.53565897601E+01
 0.52024399560E+01 0.53565897601E+01 0.58450976333E+01 0.67443352338E+01 0.82038982089E+01
 0.10493538413E+02 0.13957198031E+02 0.18771802980E+02 0.25269731301E+02 0.36166553600E+02
 0.52876531702E+02 0.73655225949E+02 0.94231609067E+02 0.10940742963E+03 0.19814448444E+03
 0.18865295590E+03 0.16269831600E+03 0.12688523137E+03 0.89529882251E+02 0.57927565750E+02
 0.36166553600E+02 0.24026495742E+02 0.17394483621E+02 0.12697637196E+02 0.95961635727E+01
 0.76782300346E+01 0.65466846291E+01 0.59576732594E+01 0.57771426633E+01 0.59576732594E+01
 0.65466846291E+01 0.76782300346E+01 0.95961635727E+01 0.12697637196E+02 0.17394483621E+02
 0.24026495742E+02 0.36166553600E+02 0.57927565750E+02 0.89529882251E+02 0.12688523137E+03
 0.16269831600E+03 0.18865295590E+03 0.30654111314E+03 0.29215685714E+03 0.25275774718E+03
 0.19806198107E+03 0.14011454359E+03 0.89529882251E+02 0.52876531702E+02 0.31387056862E+02
 0.21045521931E+02 0.15080525232E+02 0.11075024059E+02 0.86311801158E+01 0.72369635435E+01
 0.65383379823E+01 0.63299375310E+01 0.65383379823E+01 0.72369635435E+01 0.86311801158E+01
 0.11075024059E+02 0.15080525232E+02 0.21045521931E+02 0.31387056862E+02 0.52876531702E+02
 0.89529882251E+02 0.14011454359E+03 0.19806198107E+03 0.25275774718E+03 0.29215685714E+03
 0.42833573077E+03 0.40841379718E+03 0.35393981276E+03 0.27840163223E+03 0.19806198107E+03
 0.12688523137E+03 0.73655225949E+02 0.40889797060E+02 0.24883939017E+02 0.17384749632E+02
 0.12503577140E+02 0.95263817054E+01 0.78647031656E+01 0.70558238096E+01 0.68195984503E+01
 0.70558238096E+01 0.78647031656E+01 0.95263817054E+01 0.12503577140E+02 0.17384749632E+02
 0.24883939017E+02 0.40889797060E+02 0.73655225949E+02 0.12688523137E+03 0.19806198107E+03
 0.27840163223E+03 0.35393981276E+03 0.40841379718E+03 0.54359929788E+03 0.51828706435E+03
 0.44926640915E+03 0.35393981276E+03 0.25275774718E+03 0.16269831600E+03 0.94231609067E+02
 0.50731086632E+02 0.28728351186E+02 0.19308060767E+02 0.13707253852E+02 0.10268430399E+02
 0.83719565058E+01 0.74661641297E+01 0.72053618554E+01 0.74661641297E+01 0.83719565058E+01
 0.10268430399E+02 0.13707253852E+02 0.19308060767E+02 0.28728351186E+02 0.50731086632E+02
 0.94231609067E+02 0.16269831600E+03 0.25275774718E+03 0.35393981276E+03 0.44926640915E+03
 0.51828706435E+03 0.62747445883E+03 0.59812852704E+03 0.51828706435E+03 0.40841379718E+03
 0.29215685714E+03 0.18865295590E+03 0.10940742963E+03 0.58211064236E+02 0.31688578395E+02
 0.20582624900E+02 0.14513822200E+02 0.10761761205E+02 0.87034501600E+01 0.77304693829E+01
 0.74525036734E+01 0.77304693829E+01 0.87034501600E+01 0.10761761205E+02 0.14513822200E+02
 0.20582624900E+02 0.31688578395E+02 0.58211064236E+02 0.10940742963E+03 0.18865295590E+03
 0.29215685714E+03 0.40841379718E+03 0.51828706435E+03 0.59812852704E+03 0.63352099813E+03
 0.60388040624E+03 0.52325033778E+03 0.41232213310E+03 0.29498006111E+03 0.19051666017E+03
 0.11050667391E+03 0.58764080980E+02 0.31916321012E+02 0.20682414406E+02 0.14581774641E+02
 0.10808387420E+02 0.87391175166E+01 0.77616783387E+01 0.74825974926E+01 0.77616783387E+01
 0.87391175166E+01 0.10808387420E+02 0.14581774641E+02 0.20682414406E+02 0.31916321012E+02
 0.58764080980E+02 0.11050667391E+03 0.19051666017E+03 0.29498006111E+03 0.41232213310E+03
 0.52325033778E+03 0.60388040624E+03 0.60388040624E+03 0.57567886786E+03 0.49890246260E+03
 0.39313638541E+03 0.28111642235E+03 0.18137367104E+03 0.10513651961E+03 0.56094311303E+02
 0.30852378127E+02 0.20243902199E+02 0.14303902637E+02 0.10638801365E+02 0.86258091772E+01
 0.76717901126E+01 0.73987066001E+01 0.76717901126E+01 0.86258091772E+01 0.10638801365E+02
 0.14303902637E+02 0.20243902199E+02 0.30852378127E+02 0.56094311303E+02 0.10513651961E+03
 0.18137367104E+03 0.28111642235E+03 0.39313638541E+03 0.49890246260E+03 0.57567886786E+03
 0.52325033778E+03 0.49890246260E+03 0.43247632834E+03 0.34065816249E+03 0.24314234610E+03
 0.15638092054E+03 0.90570536324E+02 0.48957791975E+02 0.28039980876E+02 0.18994895712E+02
 0.13515118094E+02 0.10155877657E+02 0.83003568711E+01 0.74116130317E+01 0.71551735777E+01
 0.74116130317E+01 0.83003568711E+01 0.10155877657E+02 0.13515118094E+02 0.18994895712E+02
 0.28039980876E+02 0.48957791975E+02 0.90570536324E+02 0.15638092054E+03 0.24314234610E+03
 0.34065816249E+03 0.43247632834E+03 0.49890246260E+03 0.41232213310E+03 0.39313638541E+03
 0.34065816249E+03 0.26785859868E+03 0.19043587828E+03 0.12192725535E+03 0.70853691202E+02
 0.39586421114E+02 0.24379807458E+02 0.17110355509E+02 0.12338197321E+02 0.94292341726E+01
 0.78021568280E+01 0.70076351784E+01 0.67750621630E+01 0.70076351784E+01 0.78021568280E+01
 0.94292341726E+01 0.12338197321E+02 0.17110355509E+02 0.24379807458E+02 0.39586421114E+02
 0.70853691202E+02 0.12192725535E+03 0.19043587828E+03 0.26785859868E+03 0.34065816249E+03
 0.39313638541E+03 0.29498006111E+03 0.28111642235E+03 0.24314234610E+03 0.19043587828E+03
 0.13464786706E+03 0.86059006568E+02 0.50998880225E+02 0.30557292171E+02 0.20691200350E+02
 0.14855396673E+02 0.10941420074E+02 0.85521014401E+01 0.71852922306E+01 0.64981058898E+01
 0.62926194026E+01 0.64981058898E+01 0.71852922306E+01 0.85521014401E+01 0.10941420074E+02
 0.14855396673E+02 0.20691200350E+02 0.30557292171E+02 0.50998880225E+02 0.86059006568E+02
 0.13464786706E+03 0.19043587828E+03 0.24314234610E+03 0.28111642235E+03 0.19051666017E+03
 0.18137367104E+03 0.15638092054E+03 0.12192725535E+03 0.86059006568E+02 0.55817255217E+02
 0.35093036507E+02 0.23555398075E+02 0.17119368610E+02 0.12525644391E+02 0.94949094913E+01
 0.76175628749E+01 0.65065332126E+01 0.59262911278E+01 0.57480370764E+01 0.59262911278E+01
 0.65065332126E+01 0.76175628749E+01 0.94949094913E+01 0.12525644391E+02 0.17119368610E+02
 0.23555398075E+02 0.35093036507E+02 0.55817255217E+02 0.86059006568E+02 0.12192725535E+03
 0.15638092054E+03 0.18137367104E+03 0.11050667391E+03 0.10513651961E+03 0.90570536324E+02
 0.70853691202E+02 0.50998880225E+02 0.35093036507E+02 0.24740476503E+02 0.18468922706E+02
 0.13756110650E+02 0.10371252052E+02 0.81318213684E+01 0.67006391166E+01 0.58161533932E+01
 0.53342717307E+01 0.51819208061E+01 0.53342717307E+01 0.58161533932E+01 0.67006391166E+01
 0.81318213684E+01 0.10371252052E+02 0.13756110650E+02 0.18468922706E+02 0.24740476503E+02
 0.35093036507E+02 0.50998880225E+02 0.70853691202E+02 0.90570536324E+02 0.10513651961E+03
 0.58764080980E+02 0.56094311303E+02 0.48957791975E+02 0.39586421114E+02 0.30557292171E+02
 0.23555398075E+02 0.18468922706E+02 0.14225035330E+02 0.10909362295E+02 0.85411740522E+01
 0.69296571696E+01 0.58515281420E+01 0.51538525302E+01 0.47586976097E+01 0.46306364257E+01
 0.47586976097E+01 0.51538525302E+01 0.58515281420E+01 0.69296571696E+01 0.85411740522E+01
 0.10909362295E+02 0.14225035330E+02 0.18468922706E+02 0.23555398075E+02 0.30557292171E+02
 0.39586421114E+02 0.48957791975E+02 0.56094311303E+02 0.31916321012E+02 0.30852378127E+02
 0.28039980876E+02 0.24379807458E+02 0.20691200350E+02 0.17119368610E+02 0.13756110650E+02
 0.10909362295E+02 0.86987241949E+01 0.70760048533E+01 0.59157948368E+01 0.50989066515E+01
 0.45489816572E+01 0.42287520670E+01 0.41233061407E+01 0.42287520670E+01 0.45489816572E+01
 0.50989066515E+01 0.59157948368E+01 0.70760048533E+01 0.86987241949E+01 0.10909362295E+02
 0.13756110650E+02 0.17119368610E+02 0.20691200350E+02 0.24379807458E+02 0.28039980876E+02
 0.30852378127E+02 0.20682414406E+02 0.20243902199E+02 0.18994895712E+02 0.17110355509E+02
 0.14855396673E+02 0.12525644391E+02 0.10371252052E+02 0.85411740522E+01 0.70760048533E+01
 0.59437538933E+01 0.50874973348E+01 0.44576275096E+01 0.40224343408E+01 0.37656590358E+01
 0.36806236681E+01 0.37656590358E+01 0.40224343408E+01 0.44576275096E+01 0.50874973348E+01
 0.59437538933E+01 0.70760048533E+01 0.85411740522E+01 0.10371252052E+02 0.12525644391E+02
 0.14855396673E+02 0.17110355509E+02 0.18994895712E+02 0.20243902199E+02 0.14581774641E+02
 0.14303902637E+02 0.13515118094E+02 0.12338197321E+02 0.10941420074E+02 0.94949094913E+01
 0.81318213684E+01 0.69296571696E+01 0.59157948368E+01 0.50874973348E+01 0.44315677737E+01
 0.39350641273E+01 0.35879773319E+01 0.33829310451E+01 0.33151446539E+01 0.33829310451E+01
 0.35879773319E+01 0.39350641273E+01 0.44315677737E+01 0.50874973348E+01 0.59157948368E+01
 0.69296571696E+01 0.81318213684E+01 0.94949094913E+01 0.10941420074E+02 0.12338197321E+02
 0.13515118094E+02 0.14303902637E+02 0.10808387420E+02 0.10638801365E+02 0.10155877657E+02
 0.94292341726E+01 0.85521014401E+01 0.76175628749E+01 0.67006391166E+01 0.58515281420E+01
 0.50989066515E+01 0.44576275096E+01 0.39350641273E+01 0.35338719577E+01 0.32526490458E+01
 0.30870756731E+01 0.30325398929E+01 0.30870756731E+01 0.32526490458E+01 0.35338719577E+01
 0.39350641273E+01 0.44576275096E+01 0.50989066515E+01 0.58515281420E+01 0.67006391166E+01
 0.76175628749E+01 0.85521014401E+01 0.94292341726E+01 0.10155877657E+02 0.10638801365E+02
 0.87391175166E+01 0.86258091772E+01 0.83003568711E+01 0.78021568280E+01 0.71852922306E+01
 0.65065332126E+01 0.58161533932E+01 0.51538525302E+01 0.45489816572E+01 0.40224343408E+01
 0.35879773319E+01 0.32526490458E+01 0.30173799693E+01 0.28789900963E+01 0.28334500385E+01
 0.28789900963E+01 0.30173799693E+01 0.32526490458E+01 0.35879773319E+01 0.40224343408E+01
 0.45489816572E+01 0.51538525302E+01 0.58161533932E+01 0.65065332126E+01 0.71852922306E+01
 0.78021568280E+01 0.83003568711E+01 0.86258091772E+01 0.77616783387E+01 0.76717901126E+01
 0.74116130317E+01 0.70076351784E+01 0.64981058898E+01 0.59262911278E+01 0.53342717307E+01
 0.47586976097E+01 0.42287520670E+01 0.37656590358E+01 0.33829310451E+01 0.30870756731E+01
 0.28789900963E+01 0.27562257075E+01 0.27157428301E+01 0.27562257075E+01 0.28789900963E+01
 0.30870756731E+01 0.33829310451E+01 0.37656590358E+01 0.42287520670E+01 0.47586976097E+01
 0.53342717307E+01 0.59262911278E+01 0.64981058898E+01 0.70076351784E+01 0.74116130317E+01
 0.76717901126E+01 0.74825974926E+01 0.73987066001E+01 0.71551735777E+01 0.67750621630E+01
 0.62926194026E+01 0.57480370764E+01 0.51819208061E+01 0.46306364257E+01 0.41233061407E+01
 0.36806236681E+01 0.33151446539E+01 0.30325398929E+01 0.28334500385E+01 0.27157428301E+01
 0.26768705807E+01 0.27157428301E+01 0.28334500385E+01 0.30325398929E+01 0.33151446539E+01
 0.36806236681E+01 0.41233061407E+01 0.46306364257E+01 0.51819208061E+01 0.57480370764E+01
 0.62926194026E+01 0.67750621630E+01 0.71551735777E+01 0.73987066001E+01 0.77616783387E+01
 0.76717901126E+01 0.74116130317E+01 0.70076351784E+01 0.64981058898E+01 0.59262911278E+01
 0.53342717307E+01 0.47586976097E+01 0.42287520670E+01 0.37656590358E+01 0.33829310451E+01
 0.30870756731E+01 0.28789900963E+01 0.27562257075E+01 0.27157428301E+01 0.27562257075E+01
 0.28789900963E+01 0.30870756731E+01 0.33829310451E+01 0.37656590358E+01 0.42287520670E+01
 0.47586976097E+01 0.53342717307E+01 0.59262911278E+01 0.64981058898E+01 0.70076351784E+01
 0.74116130317E+01 0.76717901126E+01 0.87391175166E+01 0.86258091772E+01 0.83003568711E+01
 0.78021568280E+01 0.71852922306E+01 0.65065332126E+01 0.58161533932E+01 0.51538525302E+01
 0.45489816572E+01 0.40224343408E+01 0.35879773319E+01 0.32526490458E+01 0.30173799693E+01
 0.28789900963E+01 0.28334500385E+01 0.28789900963E+01 0.30173799693E+01 0.32526490458E+01
 0.35879773319E+01 0.40224343408E+01 0.45489816572E+01 0.51538525302E+01 0.58161533932E+01
 0.65065332126E+01 0.71852922306E+01 0.78021568280E+01 0.83003568711E+01 0.86258091772E+01
 0.10808387420E+02 0.10638801365E+02 0.10155877657E+02 0.94292341726E+01 0.85521014401E+01
 0.76175628749E+01 0.67006391166E+01 0.58515281420E+01 0.50989066515E+01 0.44576275096E+01
 0.39350641273E+01 0.35338719577E+01 0.32526490458E+01 0.30870756731E+01 0.30325398929E+01
 0.30870756731E+01 0.32526490458E+01 0.35338719577E+01 0.39350641273E+01 0.44576275096E+01
 0.50989066515E+01 0.58515281420E+01 0.67006391166E+01 0.76175628749E+01 0.85521014401E+01
 0.94292341726E+01 0.10155877657E+02 0.10638801365E+02 0.14581774641E+02 0.14303902637E+02
 0.13515118094E+02 0.12338197321E+02 0.10941420074E+02 0.94949094913E+01 0.81318213684E+01
 0.69296571696E+01 0.59157948368E+01 0.50874973348E+01 0.44315677737E+01 0.39350641273E+01
 0.35879773319E+01 0.33829310451E+01 0.33151446539E+01 0.33829310451E+01 0.35879773319E+01
 0.39350641273E+01 0.44315677737E+01 0.50874973348E+01 0.59157948368E+01 0.69296571696E+01
 0.81318213684E+01 0.94949094913E+01 0.10941420074E+02 0.12338197321E+02 0.13515118094E+02
 0.14303902637E+02 0.20682414406E+02 0.20243902199E+02 0.18994895712E+02 0.17110355509E+02
 0.14855396673E+02 0.12525644391E+02 0.10371252052E+02 0.85411740522E+01 0.70760048533E+01
 0.59437538933E+01 0.50874973348E+01 0.44576275096E+01 0.40224343408E+01 0.37656590358E+01
 0.36806236681E+01 0.37656590358E+01 0.40224343408E+01 0.44576275096E+01 0.50874973348E+01
 0.59437538933E+01 0.70760048533E+01 0.85411740522E+01 0.10371252052E+02 0.12525644391E+02
 0.14855396673E+02 0.17110355509E+02 0.18994895712E+02 0.20243902199E+02 0.31916321012E+02
 0.30852378127E+02 0.28039980876E+02 0.24379807458E+02 0.20691200350E+02 0.17119368610E+02
 0.13756110650E+02 0.10909362295E+02 0.86987241949E+01 0.70760048533E+01 0.59157948368E+01
 0.50989066515E+01 0.45489816572E+01 0.42287520670E+01 0.41233061407E+01 0.42287520670E+01
 0.45489816572E+01 0.50989066515E+01 0.59157948368E+01 0.70760048533E+01 0.86987241949E+01
 0.10909362295E+02 0.13756110650E+02 0.17119368610E+02 0.20691200350E+02 0.24379807458E+02
 0.28039980876E+02 0.30852378127E+02 0.58764080980E+02 0.56094311303E+02 0.48957791975E+02
 0.39586421114E+02 0.30557292171E+02 0.23555398075E+02 0.18468922706E+02 0.14225035330E+02
 0.10909362295E+02 0.85411740522E+01 0.69296571696E+01 0.58515281420E+01 0.51538525302E+01
 0.47586976097E+01 0.46306364257E+01 0.47586976097E+01 0.51538525302E+01 0.58515281420E+01
 0.69296571696E+01 0.85411740522E+01 0.10909362295E+02 0.14225035330E+02 0.18468922706E+02
 0.23555398075E+02 0.30557292171E+02 0.39586421114E+02 0.48957791975E+02 0.56094311303E+02
 0.11050667391E+03 0.10513651961E+03 0.90570536324E+02 0.70853691202E+02 0.50998880225E+02
 0.35093036507E+02 0.24740476503E+02 0.18468922706E+02 0.13756110650E+02 0.10371252052E+02
 0.81318213684E+01 0.67006391166E+01 0.58161533932E+01 0.53342717307E+01 0.51819208061E+01
 0.53342717307E+01 0.58161533932E+01 0.67006391166E+01 0.81318213684E+01 0.10371252052E+02
 0.13756110650E+02 0.18468922706E+02 0.24740476503E+02 0.35093036507E+02 0.50998880225E+02
 0.70853691202E+02 0.90570536324E+02 0.10513651961E+03 0.19051666017E+03 0.18137367104E+03
 0.15638092054E+03 0.12192725535E+03 0.86059006568E+02 0.55817255217E+02 0.35093036507E+02
 0.23555398075E+02 0.17119368610E+02 0.12525644391E+02 0.94949094913E+01 0.76175628749E+01
 0.65065332126E+01 0.59262911278E+01 0.57480370764E+01 0.59262911278E+01 0.65065332126E+01
 0.76175628749E+01 0.94949094913E+01 0.12525644391E+02 0.17119368610E+02 0.23555398075E+02
 0.35093036507E+02 0.55817255217E+02 0.86059006568E+02 0.12192725535E+03 0.15638092054E+03
 0.18137367104E+03 0.29498006111E+03 0.28111642235E+03 0.24314234610E+03 0.19043587828E+03
 0.13464786706E+03 0.86059006568E+02 0.50998880225E+02 0.30557292171E+02 0.20691200350E+02
 0.14855396673E+02 0.10941420074E+02 0.85521014401E+01 0.71852922306E+01 0.64981058898E+01
 0.62926194026E+01 0.64981058898E+01 0.71852922306E+01 0.85521014401E+01 0.10941420074E+02
 0.14855396673E+02 0.20691200350E+02 0.30557292171E+02 0.50998880225E+02 0.86059006568E+02
 0.13464786706E+03 0.19043587828E+03 0.24314234610E+03 0.28111642235E+03 0.41232213310E+03
 0.39313638541E+03 0.34065816249E+03 0.26785859868E+03 0.19043587828E+03 0.12192725535E+03
 0.70853691202E+02 0.39586421114E+02 0.24379807458E+02 0.17110355509E+02 0.12338197321E+02
 0.94292341726E+01 0.78021568280E+01 0.70076351784E+01 0.67750621630E+01 0.70076351784E+01
 0.78021568280E+01 0.94292341726E+01 0.12338197321E+02 0.17110355509E+02 0.24379807458E+02
 0.39586421114E+02 0.70853691202E+02 0.12192725535E+03 0.19043587828E+03 0.26785859868E+03
 0.34065816249E+03 0.39313638541E+03 0.52325033778E+03 0.49890246260E+03 0.43247632834E+03
 0.34065816249E+03 0.24314234610E+03 0.15638092054E+03 0.90570536324E+02 0.48957791975E+02
 0.28039980876E+02 0.18994895712E+02 0.13515118094E+02 0.10155877657E+02 0.83003568711E+01
 0.74116130317E+01 0.71551735777E+01 0.74116130317E+01 0.83003568711E+01 0.10155877657E+02
 0.13515118094E+02 0.18994895712E+02 0.28039980876E+02 0.48957791975E+02 0.90570536324E+02
 0.15638092054E+03 0.24314234610E+03 0.34065816249E+03 0.43247632834E+03 0.49890246260E+03
 0.60388040624E+03 0.57567886786E+03 0.49890246260E+03 0.39313638541E+03 0.28111642235E+03
 0.18137367104E+03 0.10513651961E+03 0.56094311303E+02 0.30852378127E+02 0.20243902199E+02
 0.14303902637E+02 0.10638801365E+02 0.86258091772E+01 0.76717901126E+01 0.73987066001E+01
 0.76717901126E+01 0.86258091772E+01 0.10638801365E+02 0.14303902637E+02 0.20243902199E+02
 0.30852378127E+02 0.56094311303E+02 0.10513651961E+03 0.18137367104E+03 0.28111642235E+03
 0.39313638541E+03 0.49890246260E+03 0.57567886786E+03 0.56477189295E+03 0.53845035922E+03
 0.46671750048E+03 0.36773261068E+03 0.26274259186E+03 0.16927359540E+03 0.98070957664E+02
 0.52626983418E+02 0.29500374358E+02 0.19681487435E+02 0.13961870272E+02 0.10444954308E+02
 0.85089665414E+01 0.75872105329E+01 0.73224421119E+01 0.75872105329E+01 0.85089665414E+01
 0.10444954308E+02 0.13961870272E+02 0.19681487435E+02 0.29500374358E+02 0.52626983418E+02
 0.98070957664E+02 0.16927359540E+03 0.26274259186E+03 0.36773261068E+03 0.46671750048E+03
 0.53845035922E+03 0.53845035922E+03 0.51338279854E+03 0.44502004050E+03 0.35058248294E+03
 0.25032967160E+03 0.16110830362E+03 0.93320588285E+02 0.50307149890E+02 0.28588279892E+02
 0.19269309744E+02 0.13702046425E+02 0.10285985411E+02 0.84018468696E+01 0.75015631850E+01
 0.72422620756E+01 0.75015631850E+01 0.84018468696E+01 0.10285985411E+02 0.13702046425E+02
 0.19269309744E+02 0.28588279892E+02 0.50307149890E+02 0.93320588285E+02 0.16110830362E+03
 0.25032967160E+03 0.35058248294E+03 0.44502004050E+03 0.51338279854E+03 0.46671750048E+03
 0.44502004050E+03 0.38574189214E+03 0.30363563095E+03 0.21633383012E+03 0.13881592917E+03