   2   2   0   0
  0.2753908E+02  0.3298410E-09  0.3298410E-09  0.5062560E-09  0.5000000E-15
  1.000000000000000E-004
  CAR 
 In                                      
     46.11327979    -10.39801468  301      6.93552705      1.00000000
    -10.398  0.0000E+00  0.0000E+00
    -10.210  0.0000E+00  0.0000E+00
    -10.021  0.0000E+00  0.0000E+00
     -9.833  0.0000E+00  0.0000E+00
     -9.645  0.0000E+00  0.0000E+00
     -9.456  0.0000E+00  0.0000E+00
     -9.268  0.0000E+00  0.0000E+00
     -9.079  0.0000E+00  0.0000E+00
     -8.891  0.0000E+00  0.0000E+00
     -8.703  0.0000E+00  0.0000E+00
     -8.514  0.0000E+00  0.0000E+00
     -8.326  0.0000E+00  0.0000E+00
     -8.138  0.0000E+00  0.0000E+00
     -7.949  0.1289E-04  0.2428E-05
     -7.761  0.1418E+01  0.2672E+00
     -7.572  0.3666E+02  0.7172E+01
     -7.384  0.4576E+02  0.1579E+02
     -7.196  0.2230E+02  0.1999E+02
     -7.007  0.3474E-01  0.2000E+02
     -6.819  0.0000E+00  0.2000E+02
     -6.631  0.0000E+00  0.2000E+02
     -6.442  0.0000E+00  0.2000E+02
     -6.254  0.0000E+00  0.2000E+02
     -6.065  0.0000E+00  0.2000E+02
     -5.877  0.0000E+00  0.2000E+02
     -5.689  0.0000E+00  0.2000E+02
     -5.500  0.0000E+00  0.2000E+02
     -5.312  0.0000E+00  0.2000E+02
     -5.124  0.0000E+00  0.2000E+02
     -4.935  0.0000E+00  0.2000E+02
     -4.747  0.0000E+00  0.2000E+02
     -4.559  0.0000E+00  0.2000E+02
     -4.370  0.0000E+00  0.2000E+02
     -4.182  0.0000E+00  0.2000E+02
     -3.993  0.0000E+00  0.2000E+02
     -3.805  0.0000E+00  0.2000E+02
     -3.617  0.0000E+00  0.2000E+02
     -3.428  0.0000E+00  0.2000E+02
     -3.240  0.0000E+00  0.2000E+02
     -3.052  0.0000E+00  0.2000E+02
     -2.863  0.0000E+00  0.2000E+02
     -2.675  0.0000E+00  0.2000E+02
     -2.486  0.2078E-13  0.2000E+02
     -2.298  0.4184E-03  0.2000E+02
     -2.110  0.5799E-01  0.2001E+02
     -1.921  0.1657E+00  0.2004E+02
     -1.733  0.1982E+00  0.2008E+02
     -1.545  0.2973E+00  0.2014E+02
     -1.356  0.2397E+00  0.2018E+02
     -1.168  0.3512E+00  0.2025E+02
     -0.979  0.4277E+00  0.2033E+02
     -0.791  0.3341E+00  0.2039E+02
     -0.603  0.3383E+00  0.2045E+02
     -0.414  0.5362E+00  0.2056E+02
     -0.226  0.3609E+00  0.2062E+02
     -0.038  0.6711E+00  0.2075E+02
      0.151  0.2908E+00  0.2080E+02
      0.339  0.4845E+00  0.2090E+02
      0.528  0.6409E+00  0.2102E+02
      0.716  0.5765E+00  0.2112E+02
      0.904  0.6055E+00  0.2124E+02
      1.093  0.5698E+00  0.2135E+02
      1.281  0.6011E+00  0.2146E+02
      1.469  0.5326E+00  0.2156E+02
      1.658  0.7898E+00  0.2171E+02
      1.846  0.5786E+00  0.2182E+02
      2.034  0.9376E+00  0.2199E+02
      2.223  0.5487E+00  0.2210E+02
      2.411  0.8372E+00  0.2226E+02
      2.600  0.7941E+00  0.2240E+02
      2.788  0.6749E+00  0.2253E+02
      2.976  0.8516E+00  0.2269E+02
      3.165  0.1049E+01  0.2289E+02
      3.353  0.9757E+00  0.2307E+02
      3.541  0.5913E+00  0.2319E+02
      3.730  0.5050E+00  0.2328E+02
      3.918  0.8099E+00  0.2343E+02
      4.107  0.6959E+00  0.2356E+02
      4.295  0.7878E+00  0.2371E+02
      4.483  0.9147E+00  0.2388E+02
      4.672  0.7253E+00  0.2402E+02
      4.860  0.6750E+00  0.2415E+02
      5.048  0.4431E+00  0.2423E+02
      5.237  0.7291E+00  0.2437E+02
      5.425  0.9378E+00  0.2455E+02
      5.614  0.9754E+00  0.2473E+02
      5.802  0.7544E+00  0.2487E+02
      5.990  0.7931E+00  0.2502E+02
      6.179  0.8295E+00  0.2518E+02
      6.367  0.1278E+01  0.2542E+02
      6.555  0.1083E+01  0.2562E+02
      6.744  0.1086E+01  0.2583E+02
      6.932  0.9075E+00  0.2600E+02
      7.120  0.7222E+00  0.2613E+02
      7.309  0.1054E+01  0.2633E+02
      7.497  0.8746E+00  0.2650E+02
      7.686  0.1150E+01  0.2671E+02
      7.874  0.1270E+01  0.2695E+02
      8.062  0.1037E+01  0.2715E+02
      8.251  0.6948E+00  0.2728E+02
      8.439  0.1130E+01  0.2749E+02
      8.627  0.8682E+00  0.2766E+02
      8.816  0.9666E+00  0.2784E+02
      9.004  0.1199E+01  0.2806E+02
      9.193  0.1418E+01  0.2833E+02
      9.381  0.1283E+01  0.2857E+02
      9.569  0.8864E+00  0.2874E+02
      9.758  0.1245E+01  0.2897E+02
      9.946  0.1130E+01  0.2919E+02
     10.134  0.1113E+01  0.2940E+02
     10.323  0.9856E+00  0.2958E+02
     10.511  0.1580E+01  0.2988E+02
     10.700  0.1428E+01  0.3015E+02
     10.888  0.1573E+01  0.3044E+02
     11.076  0.1221E+01  0.3067E+02
     11.265  0.1434E+01  0.3094E+02
     11.453  0.1584E+01  0.3124E+02
     11.641  0.1063E+01  0.3144E+02
     11.830  0.1490E+01  0.3172E+02
     12.018  0.1327E+01  0.3197E+02
     12.207  0.1081E+01  0.3218E+02
     12.395  0.1623E+01  0.3248E+02
     12.583  0.9216E+00  0.3266E+02
     12.772  0.1418E+01  0.3292E+02
     12.960  0.1183E+01  0.3315E+02
     13.148  0.1194E+01  0.3337E+02
     13.337  0.7549E+00  0.3351E+02
     13.525  0.1195E+01  0.3374E+02
     13.713  0.1271E+01  0.3398E+02
     13.902  0.1049E+01  0.3418E+02
     14.090  0.7640E+00  0.3432E+02
     14.279  0.1282E+01  0.3456E+02
     14.467  0.1129E+01  0.3477E+02
     14.655  0.1225E+01  0.3501E+02
     14.844  0.1271E+01  0.3524E+02
     15.032  0.1099E+01  0.3545E+02
     15.220  0.1327E+01  0.3570E+02
     15.409  0.1586E+01  0.3600E+02
     15.597  0.1189E+01  0.3622E+02
     15.786  0.1362E+01  0.3648E+02
     15.974  0.1266E+01  0.3672E+02
     16.162  0.1585E+01  0.3702E+02
     16.351  0.1838E+01  0.3736E+02
     16.539  0.1520E+01  0.3765E+02
     16.727  0.1481E+01  0.3793E+02
     16.916  0.1615E+01  0.3823E+02
     17.104  0.1454E+01  0.3851E+02
     17.293  0.1552E+01  0.3880E+02
     17.481  0.1278E+01  0.3904E+02
     17.669  0.1951E+01  0.3941E+02
     17.858  0.1625E+01  0.3971E+02
     18.046  0.1462E+01  0.3999E+02
     18.234  0.1128E+01  0.4020E+02
     18.423  0.1537E+01  0.4049E+02
     18.611  0.2003E+01  0.4087E+02
     18.799  0.1337E+01  0.4112E+02
     18.988  0.1440E+01  0.4139E+02
     19.176  0.1463E+01  0.4167E+02
     19.365  0.1107E+01  0.4188E+02
     19.553  0.1367E+01  0.4213E+02
     19.741  0.9939E+00  0.4232E+02
     19.930  0.1000E+01  0.4251E+02
     20.118  0.1094E+01  0.4272E+02
     20.306  0.9826E+00  0.4290E+02
     20.495  0.2235E+01  0.4332E+02
     20.683  0.1716E+01  0.4364E+02
     20.872  0.1615E+01  0.4395E+02
     21.060  0.1986E+01  0.4432E+02
     21.248  0.2082E+01  0.4472E+02
     21.437  0.2003E+01  0.4509E+02
     21.625  0.1484E+01  0.4537E+02
     21.813  0.2035E+01  0.4576E+02
     22.002  0.1843E+01  0.4610E+02
     22.190  0.1632E+01  0.4641E+02
     22.379  0.1600E+01  0.4671E+02
     22.567  0.2690E+01  0.4722E+02
     22.755  0.1550E+01  0.4751E+02
     22.944  0.1900E+01  0.4787E+02
     23.132  0.2342E+01  0.4831E+02
     23.320  0.1962E+01  0.4868E+02
     23.509  0.1234E+01  0.4891E+02
     23.697  0.2328E+01  0.4935E+02
     23.886  0.1930E+01  0.4971E+02
     24.074  0.2597E+01  0.5020E+02
     24.262  0.1933E+01  0.5057E+02
     24.451  0.1915E+01  0.5093E+02
     24.639  0.1960E+01  0.5130E+02
     24.827  0.2068E+01  0.5169E+02
     25.016  0.2373E+01  0.5213E+02
     25.204  0.2303E+01  0.5257E+02
     25.392  0.2718E+01  0.5308E+02
     25.581  0.1918E+01  0.5344E+02
     25.769  0.1881E+01  0.5379E+02
     25.958  0.2369E+01  0.5424E+02
     26.146  0.2365E+01  0.5469E+02
     26.334  0.1911E+01  0.5505E+02
     26.523  0.2263E+01  0.5547E+02
     26.711  0.2356E+01  0.5592E+02
     26.899  0.2593E+01  0.5640E+02
     27.088  0.2560E+01  0.5689E+02
     27.276  0.1943E+01  0.5725E+02
     27.465  0.2856E+01  0.5779E+02
     27.653  0.2238E+01  0.5821E+02
     27.841  0.2341E+01  0.5865E+02
     28.030  0.2025E+01  0.5903E+02
     28.218  0.2714E+01  0.5955E+02
     28.406  0.2143E+01  0.5995E+02
     28.595  0.1987E+01  0.6032E+02
     28.783  0.2431E+01  0.6078E+02
     28.972  0.2380E+01  0.6123E+02
     29.160  0.2270E+01  0.6166E+02
     29.348  0.1981E+01  0.6203E+02
     29.537  0.2287E+01  0.6246E+02
     29.725  0.2133E+01  0.6286E+02
     29.913  0.1855E+01  0.6321E+02
     30.102  0.2005E+01  0.6359E+02
     30.290  0.1512E+01  0.6388E+02
     30.478  0.2370E+01  0.6432E+02
     30.667  0.2060E+01  0.6471E+02
     30.855  0.2300E+01  0.6514E+02
     31.044  0.2042E+01  0.6553E+02
     31.232  0.1970E+01  0.6590E+02
     31.420  0.2147E+01  0.6630E+02
     31.609  0.2460E+01  0.6677E+02
     31.797  0.2702E+01  0.6728E+02
     31.985  0.2692E+01  0.6778E+02
     32.174  0.2045E+01  0.6817E+02
     32.362  0.1894E+01  0.6852E+02
     32.551  0.2008E+01  0.6890E+02
     32.739  0.1538E+01  0.6919E+02
     32.927  0.2544E+01  0.6967E+02
     33.116  0.2103E+01  0.7007E+02
     33.304  0.2725E+01  0.7058E+02
     33.492  0.3395E+01  0.7122E+02
     33.681  0.1882E+01  0.7158E+02
     33.869  0.1555E+01  0.7187E+02
     34.058  0.2226E+01  0.7229E+02
     34.246  0.2346E+01  0.7273E+02
     34.434  0.2703E+01  0.7324E+02
     34.623  0.2723E+01  0.7375E+02
     34.811  0.3214E+01  0.7436E+02
     34.999  0.2415E+01  0.7481E+02
     35.188  0.3029E+01  0.7538E+02
     35.376  0.2901E+01  0.7593E+02
     35.565  0.2832E+01  0.7646E+02
     35.753  0.3351E+01  0.7709E+02
     35.941  0.2989E+01  0.7766E+02
     36.130  0.3077E+01  0.7824E+02
     36.318  0.2639E+01  0.7873E+02
     36.506  0.2435E+01  0.7919E+02
     36.695  0.2180E+01  0.7960E+02
     36.883  0.2230E+01  0.8002E+02
     37.071  0.2392E+01  0.8047E+02
     37.260  0.2499E+01  0.8094E+02
     37.448  0.2145E+01  0.8135E+02
     37.637  0.2754E+01  0.8187E+02
     37.825  0.2564E+01  0.8235E+02
     38.013  0.2808E+01  0.8288E+02
     38.202  0.2773E+01  0.8340E+02
     38.390  0.2348E+01  0.8384E+02
     38.578  0.2291E+01  0.8428E+02
     38.767  0.2619E+01  0.8477E+02
     38.955  0.2382E+01  0.8522E+02
     39.144  0.2565E+01  0.8570E+02
     39.332  0.2809E+01  0.8623E+02
     39.520  0.2494E+01  0.8670E+02
     39.709  0.2736E+01  0.8721E+02
     39.897  0.2338E+01  0.8766E+02
     40.085  0.2046E+01  0.8804E+02
     40.274  0.2444E+01  0.8850E+02
     40.462  0.2820E+01  0.8903E+02
     40.651  0.2374E+01  0.8948E+02
     40.839  0.2468E+01  0.8994E+02
     41.027  0.3383E+01  0.9058E+02
     41.216  0.3602E+01  0.9126E+02
     41.404  0.2624E+01  0.9175E+02
     41.592  0.3617E+01  0.9244E+02
     41.781  0.3854E+01  0.9316E+02
     41.969  0.2834E+01  0.9370E+02
     42.157  0.3025E+01  0.9427E+02
     42.346  0.2434E+01  0.9472E+02
     42.534  0.2360E+01  0.9517E+02
     42.723  0.1568E+01  0.9546E+02
     42.911  0.1203E+01  0.9569E+02
     43.099  0.4489E+00  0.9578E+02
     43.288  0.5611E+00  0.9588E+02
     43.476  0.5241E+00  0.9598E+02
     43.664  0.1083E+00  0.9600E+02
     43.853  0.3429E-04  0.9600E+02
     44.041  0.0000E+00  0.9600E+02
     44.230  0.0000E+00  0.9600E+02
     44.418  0.0000E+00  0.9600E+02
     44.606  0.0000E+00  0.9600E+02
     44.795  0.0000E+00  0.9600E+02
     44.983  0.0000E+00  0.9600E+02
     45.171  0.0000E+00  0.9600E+02
     45.360  0.0000E+00  0.9600E+02
     45.548  0.0000E+00  0.9600E+02
     45.737  0.0000E+00  0.9600E+02
     45.925  0.0000E+00  0.9600E+02
     46.113  0.0000E+00  0.9600E+02
