    2    2    1    1
  0.2753908E+02  0.3298410E-09  0.3298410E-09  0.5062560E-09  0.5000000E-15
  1.000000000000000E-004
  CAR 
 In                                      
     26    196     48
 
  0.0000000E+00  0.0000000E+00  0.0000000E+00  0.5787037E-03
      1         -7.829319   1.000000
      2         -7.714423   1.000000
      3         -7.683755   1.000000
      4         -7.576945   1.000000
      5         -7.576945   1.000000
      6         -7.518884   1.000000
      7         -7.417168   1.000000
      8         -7.331234   1.000000
      9         -7.305053   1.000000
     10         -7.305053   1.000000
     11         -2.243806   1.000000
     12          3.880101   1.000000
     13          4.425312   1.000000
     14         11.627721   0.000000
     15         11.627721   0.000000
     16         14.940878   0.000000
     17         14.997675   0.000000
     18         17.035827   0.000000
     19         17.035827   0.000000
     20         17.193200   0.000000
     21         18.437957   0.000000
     22         20.473220   0.000000
     23         20.650348   0.000000
     24         20.650348   0.000000
     25         21.692667   0.000000
     26         22.451444   0.000000
     27         24.877675   0.000000
     28         25.392685   0.000000
     29         25.392685   0.000000
     30         28.430718   0.000000
     31         29.101977   0.000000
     32         30.388269   0.000000
     33         31.003849   0.000000
     34         31.003849   0.000000
     35         31.126180   0.000000
     36         32.834229   0.000000
     37         32.915297   0.000000
     38         32.915297   0.000000
     39         33.722916   0.000000
     40         33.722916   0.000000
     41         34.784165   0.000000
     42         35.767997   0.000000
     43         36.629033   0.000000
     44         38.060594   0.000000
     45         38.097155   0.000000
     46         38.097155   0.000000
     47         40.750317   0.000000
     48         42.063404   0.000000
 
  0.8333333E-01 -0.1094502E-33  0.0000000E+00  0.2314815E-02
      1         -7.812917   1.000000
      2         -7.702889   1.000000
      3         -7.671048   1.000000
      4         -7.581852   1.000000
      5         -7.571573   1.000000
      6         -7.514408   1.000000
      7         -7.422860   1.000000
      8         -7.340179   1.000000
      9         -7.320946   1.000000
     10         -7.308961   1.000000
     11         -2.141234   1.000000
     12          3.949138   1.000000
     13          4.549018   1.000000
     14         10.478829   0.000000
     15         11.747734   0.000000
     16         15.033531   0.000000
     17         15.993118   0.000000
     18         16.287618   0.000000
     19         16.404936   0.000000
     20         17.131436   0.000000
     21         18.238149   0.000000
     22         20.709305   0.000000
     23         21.019587   0.000000
     24         21.693849   0.000000
     25         22.017988   0.000000
     26         22.951631   0.000000
     27         24.427271   0.000000
     28         24.457696   0.000000
     29         25.382800   0.000000
     30         28.482307   0.000000
     31         29.498339   0.000000
     32         30.022437   0.000000
     33         30.273208   0.000000
     34         30.313369   0.000000
     35         31.296782   0.000000
     36         32.234035   0.000000
     37         32.629477   0.000000
     38         32.847431   0.000000
     39         34.535008   0.000000
     40         35.001092   0.000000
     41         35.629315   0.000000
     42         36.355063   0.000000
     43         36.662620   0.000000
     44         37.328420   0.000000
     45         38.125556   0.000000
     46         40.065819   0.000000
     47         40.644281   0.000000
     48         41.682111   0.000000
 
  0.1666667E+00 -0.3389662E-32  0.0000000E+00  0.2314815E-02
      1         -7.775517   1.000000
      2         -7.662714   1.000000
      3         -7.643047   1.000000
      4         -7.593876   1.000000
      5         -7.555946   1.000000
      6         -7.496393   1.000000
      7         -7.437848   1.000000
      8         -7.364849   1.000000
      9         -7.364473   1.000000
     10         -7.320448   1.000000
     11         -1.831495   1.000000
     12          4.141752   1.000000
     13          4.915499   1.000000
     14          8.636741   0.000000
     15         12.103420   0.000000
     16         14.145125   0.000000
     17         14.739113   0.000000
     18         15.229754   0.000000
     19         17.381567   0.000000
     20         18.500843   0.000000
     21         18.654070   0.000000
     22         20.887752   0.000000
     23         21.293570   0.000000
     24         22.129061   0.000000
     25         22.943214   0.000000
     26         22.947444   0.000000
     27         24.123748   0.000000
     28         24.737147   0.000000
     29         25.990845   0.000000
     30         27.260146   0.000000
     31         28.256885   0.000000
     32         28.826976   0.000000
     33         28.857622   0.000000
     34         30.969883   0.000000
     35         31.437811   0.000000
     36         31.949234   0.000000
     37         33.082410   0.000000
     38         33.297163   0.000000
     39         35.380268   0.000000
     40         36.311528   0.000000
     41         37.043785   0.000000
     42         37.124544   0.000000
     43         38.235139   0.000000
     44         38.473212   0.000000
     45         38.638221   0.000000
     46         40.363099   0.000000
     47         40.626275   0.000000
     48         41.267631   0.000000
 
  0.2500000E+00  0.3582934E-33  0.0000000E+00  0.2314815E-02
      1         -7.738299   1.000000
      2         -7.623148   1.000000
      3         -7.608071   1.000000
      4         -7.590029   1.000000
      5         -7.531810   1.000000
      6         -7.458117   1.000000
      7         -7.457509   1.000000
      8         -7.426170   1.000000
      9         -7.398865   1.000000
     10         -7.339500   1.000000
     11         -1.310240   1.000000
     12          4.349907   1.000000
     13          5.512386   1.000000
     14          6.983043   0.089480
     15         12.269015   0.000000
     16         12.682024   0.000000
     17         13.007836   0.000000
     18         15.562708   0.000000
     19         17.621674   0.000000
     20         19.076554   0.000000
     21         20.693090   0.000000
     22         21.189830   0.000000
     23         21.302009   0.000000
     24         21.660897   0.000000
     25         22.563498   0.000000
     26         22.723731   0.000000
     27         25.282881   0.000000
     28         25.984201   0.000000
     29         26.512949   0.000000
     30         26.560769   0.000000
     31         27.161010   0.000000
     32         27.407606   0.000000
     33         28.079517   0.000000
     34         29.701510   0.000000
     35         30.564831   0.000000
     36         33.564426   0.000000
     37         33.608219   0.000000
     38         35.425388   0.000000
     39         35.604683   0.000000
     40         37.966831   0.000000
     41         38.593925   0.000000
     42         38.949512   0.000000
     43         39.018296   0.000000
     44         39.092238   0.000000
     45         39.610462   0.000000
     46         39.976378   0.000000
     47         40.288784   0.000000
     48         40.742296   0.000000
 
  0.3333333E+00  0.2554413E-32  0.0000000E+00  0.2314815E-02
      1         -7.706084   1.000000
      2         -7.621406   1.000000
      3         -7.616623   1.000000
      4         -7.502505   1.000000
      5         -7.501180   1.000000
      6         -7.491119   1.000000
      7         -7.475335   1.000000
      8         -7.434536   1.000000
      9         -7.411214   1.000000
     10         -7.364940   1.000000
     11         -0.574457   1.000000
     12          3.990645   1.000000
     13          6.235891   1.000000
     14          6.322966   1.000000
     15         10.533039   0.000000
     16         11.371230   0.000000
     17         13.462971   0.000000
     18         16.041423   0.000000
     19         17.429528   0.000000
     20         19.555168   0.000000
     21         19.880456   0.000000
     22         21.131966   0.000000
     23         21.622654   0.000000
     24         22.833505   0.000000
     25         23.550517   0.000000
     26         24.094160   0.000000
     27         24.812446   0.000000
     28         24.885082   0.000000
     29         25.518042   0.000000
     30         25.664887   0.000000
     31         26.104768   0.000000
     32         28.574124   0.000000
     33         28.932663   0.000000
     34         29.144899   0.000000
     35         30.620442   0.000000
     36         34.364386   0.000000
     37         35.695899   0.000000
     38         35.948702   0.000000
     39         36.130510   0.000000
     40         38.320785   0.000000
     41         39.098747   0.000000
     42         39.109214   0.000000
     43         39.564487   0.000000
     44         39.749341   0.000000
     45         40.106457   0.000000
     46         40.418035   0.000000
     47         41.295632   0.000000
     48         42.743007   0.000000
 
  0.4166667E+00 -0.2255451E-32  0.0000000E+00  0.2314815E-02
      1         -7.677417   1.000000
      2         -7.632614   1.000000
      3         -7.612474   1.000000
      4         -7.548833   1.000000
      5         -7.485462   1.000000
      6         -7.466535   1.000000
      7         -7.464348   1.000000
      8         -7.428284   1.000000
      9         -7.396043   1.000000
     10         -7.381261   1.000000
     11          0.372485   1.000000
     12          2.797897   1.000000
     13          6.714799   1.000000
     14          7.329641   0.000000
     15          8.999624   0.000000
     16          9.868032   0.000000
     17         14.416216   0.000000
     18         16.589230   0.000000
     19         16.675998   0.000000
     20         18.442191   0.000000
     21         20.881191   0.000000
     22         21.588173   0.000000
     23         22.194099   0.000000
     24         23.363102   0.000000
     25         23.395875   0.000000
     26         23.784839   0.000000
     27         23.984030   0.000000
     28         24.605415   0.000000
     29         24.991376   0.000000
     30         26.138655   0.000000
     31         26.847619   0.000000
     32         27.334130   0.000000
     33         27.739767   0.000000
     34         31.802865   0.000000
     35         31.980920   0.000000
     36         35.213838   0.000000
     37         35.310466   0.000000
     38         36.055156   0.000000
     39         37.245505   0.000000
     40         38.306293   0.000000
     41         38.557146   0.000000
     42         39.176008   0.000000
     43         39.395064   0.000000
     44         40.185240   0.000000
     45         40.428542   0.000000
     46         41.102090   0.000000
     47         41.154239   0.000000
     48         41.517048   0.000000
 
  0.5000000E+00  0.7165868E-33  0.0000000E+00  0.1157407E-02
      1         -7.652027   1.000000
      2         -7.652027   1.000000
      3         -7.589858   1.000000
      4         -7.589858   1.000000
      5         -7.481611   1.000000
      6         -7.481611   1.000000
      7         -7.430424   1.000000
      8         -7.430424   1.000000
      9         -7.384998   1.000000
     10         -7.384998   1.000000
     11          1.514107   1.000000
     12          1.514107   1.000000
     13          7.708750   0.000000
     14          7.708750   0.000000
     15          8.516183   0.000000
     16          8.516183   0.000000
     17         15.493111   0.000000
     18         15.493111   0.000000
     19         17.475805   0.000000
     20         17.475805   0.000000
     21         22.058024   0.000000
     22         22.058024   0.000000
     23         22.634206   0.000000
     24         22.634206   0.000000
     25         22.913209   0.000000
     26         22.913209   0.000000
     27         24.082364   0.000000
     28         24.082364   0.000000
     29         25.875761   0.000000
     30         25.875761   0.000000
     31         26.746198   0.000000
     32         26.746198   0.000000
     33         29.892809   0.000000
     34         29.892809   0.000000
     35         34.364703   0.000000
     36         34.364703   0.000000
     37         36.400460   0.000000
     38         36.400460   0.000000
     39         37.477165   0.000000
     40         37.477165   0.000000
     41         38.841074   0.000000
     42         38.841074   0.000000
     43         39.533424   0.000000
     44         39.533424   0.000000
     45         39.774372   0.000000
     46         39.774372   0.000000
     47         41.796980   0.000000
     48         41.796980   0.000000
 
  0.8333333E-01  0.8333333E-01  0.0000000E+00  0.2314815E-02
      1         -7.794939   1.000000
      2         -7.693609   1.000000
      3         -7.656861   1.000000
      4         -7.591041   1.000000
      5         -7.561993   1.000000
      6         -7.511623   1.000000
      7         -7.427954   1.000000
      8         -7.348732   1.000000
      9         -7.342127   1.000000
     10         -7.306861   1.000000
     11         -2.038526   1.000000
     12          4.018577   1.000000
     13          4.671783   1.000000
     14         10.533639   0.000000
     15         10.645572   0.000000
     16         15.892446   0.000000
     17         16.097905   0.000000
     18         16.301399   0.000000
     19         16.353545   0.000000
     20         16.365442   0.000000
     21         17.528581   0.000000
     22         21.761470   0.000000
     23         21.849387   0.000000
     24         21.926520   0.000000
     25         22.188833   0.000000
     26         22.214136   0.000000
     27         23.950365   0.000000
     28         25.210929   0.000000
     29         25.653908   0.000000
     30         27.441669   0.000000
     31         28.631726   0.000000
     32         29.232981   0.000000
     33         30.434825   0.000000
     34         31.290705   0.000000
     35         31.943237   0.000000
     36         32.315613   0.000000
     37         32.531854   0.000000
     38         32.629814   0.000000
     39         34.220144   0.000000
     40         35.281227   0.000000
     41         35.466424   0.000000
     42         36.486665   0.000000
     43         37.809945   0.000000
     44         37.961168   0.000000
     45         38.463868   0.000000
     46         40.506168   0.000000
     47         40.841457   0.000000
     48         41.041493   0.000000
 
  0.1666667E+00  0.8333333E-01  0.0000000E+00  0.4629630E-02
      1         -7.753729   1.000000
      2         -7.658832   1.000000
      3         -7.625311   1.000000
      4         -7.606414   1.000000
      5         -7.544268   1.000000
      6         -7.500173   1.000000
      7         -7.440615   1.000000
      8         -7.388718   1.000000
      9         -7.372611   1.000000
     10         -7.314118   1.000000
     11         -1.728519   1.000000
     12          4.212739   1.000000
     13          5.035570   1.000000
     14          8.737277   0.000000
     15         10.924189   0.000000
     16         14.210506   0.000000
     17         14.737580   0.000000
     18         16.392716   0.000000
     19         16.575611   0.000000
     20         17.439645   0.000000
     21         18.724526   0.000000
     22         20.605033   0.000000
     23         22.106727   0.000000
     24         22.329370   0.000000
     25         22.773382   0.000000
     26         24.202614   0.000000
     27         24.751925   0.000000
     28         24.936165   0.000000
     29         25.876819   0.000000
     30         26.141569   0.000000
     31         26.893430   0.000000
     32         29.612365   0.000000
     33         30.380789   0.000000
     34         30.702777   0.000000
     35         30.931080   0.000000
     36         31.913952   0.000000
     37         32.785111   0.000000
     38         34.483596   0.000000
     39         34.649962   0.000000
     40         35.301991   0.000000
     41         36.187360   0.000000
     42         38.472595   0.000000
     43         38.777201   0.000000
     44         39.151597   0.000000
     45         39.552275   0.000000
     46         39.969677   0.000000
     47         40.119551   0.000000
     48         41.649497   0.000000
 
  0.2500000E+00  0.8333333E-01  0.0000000E+00  0.4629630E-02
      1         -7.715518   1.000000
      2         -7.622156   1.000000
      3         -7.603374   1.000000
      4         -7.590045   1.000000
      5         -7.518887   1.000000
      6         -7.483820   1.000000
      7         -7.449814   1.000000
      8         -7.440558   1.000000
      9         -7.404339   1.000000
     10         -7.330782   1.000000
     11         -1.207078   1.000000
     12          4.426397   1.000000
     13          5.628312   1.000000
     14          7.078156   0.000027
     15         11.461931   0.000000
     16         12.343888   0.000000
     17         13.063483   0.000000
     18         16.638687   0.000000
     19         16.933741   0.000000
     20         17.889624   0.000000
     21         19.175593   0.000000
     22         21.353743   0.000000
     23         22.545506   0.000000
     24         22.854703   0.000000
     25         23.199635   0.000000
     26         23.731575   0.000000
     27         24.348588   0.000000
     28         25.259645   0.000000
     29         25.356586   0.000000
     30         26.636005   0.000000
     31         28.220467   0.000000
     32         28.224178   0.000000
     33         29.428022   0.000000
     34         29.681809   0.000000
     35         30.644517   0.000000
     36         32.414219   0.000000
     37         33.311966   0.000000
     38         34.638364   0.000000
     39         36.915261   0.000000
     40         36.934550   0.000000
     41         37.740409   0.000000
     42         38.655736   0.000000
     43         39.245740   0.000000
     44         39.583780   0.000000
     45         40.192248   0.000000
     46         40.403188   0.000000
     47         40.472334   0.000000
     48         41.419407   0.000000
 
  0.3333333E+00  0.8333333E-01  0.0000000E+00  0.4629630E-02
      1         -7.685148   1.000000
      2         -7.632470   1.000000
      3         -7.602948   1.000000
      4         -7.513487   1.000000
      5         -7.511478   1.000000
      6         -7.491360   1.000000
      7         -7.488057   1.000000
      8         -7.430693   1.000000
      9         -7.402866   1.000000
     10         -7.354709   1.000000
     11         -0.471393   1.000000
     12          4.083640   1.000000
     13          6.315253   1.000000
     14          6.433608   1.000000
     15         10.608799   0.000000
     16         11.447716   0.000000
     17         12.193221   0.000000
     18         16.338274   0.000000
     19         17.423763   0.000000
     20         18.522004   0.000000
     21         18.578235   0.000000
     22         22.325934   0.000000
     23         22.928229   0.000000
     24         23.088602   0.000000
     25         23.534112   0.000000
     26         23.662510   0.000000
     27         24.020568   0.000000
     28         24.375854   0.000000
     29         25.720000   0.000000
     30         26.875472   0.000000
     31         28.057727   0.000000
     32         28.577035   0.000000
     33         29.025863   0.000000
     34         29.215016   0.000000
     35         30.760129   0.000000
     36         34.042532   0.000000
     37         34.379083   0.000000
     38         35.270362   0.000000
     39         36.777600   0.000000
     40         37.903564   0.000000
     41         38.856256   0.000000
     42         38.947355   0.000000
     43         39.080299   0.000000
     44         39.745603   0.000000
     45         40.515574   0.000000
     46         41.018960   0.000000
     47         41.380001   0.000000
     48         42.847473   0.000000
 
  0.4166667E+00  0.8333333E-01  0.0000000E+00  0.4629630E-02
      1         -7.658559   1.000000
      2         -7.629556   1.000000
      3         -7.615491   1.000000
      4         -7.569301   1.000000
      5         -7.498604   1.000000
      6         -7.487044   1.000000
      7         -7.453328   1.000000
      8         -7.409405   1.000000
      9         -7.384593   1.000000
     10         -7.372280   1.000000
     11          0.475174   1.000000
     12          2.898319   1.000000
     13          6.788122   0.999985
     14          7.434091   0.000000
     15          9.074387   0.000000
     16          9.956498   0.000000
     17         13.098708   0.000000
     18         15.302537   0.000000
     19         18.004739   0.000000
     20         18.647523   0.000000
     21         19.446774   0.000000
     22         21.553893   0.000000
     23         21.632789   0.000000
     24         22.450896   0.000000
     25         23.780649   0.000000
     26         24.713394   0.000000
     27         24.751580   0.000000
     28         25.672046   0.000000
     29         26.180599   0.000000
     30         26.675733   0.000000
     31         27.019410   0.000000
     32         27.434370   0.000000
     33         27.801811   0.000000
     34         31.868746   0.000000
     35         32.120096   0.000000
     36         34.921602   0.000000
     37         34.943948   0.000000
     38         35.804300   0.000000
     39         36.813756   0.000000
     40         37.456558   0.000000
     41         38.177025   0.000000
     42         38.242202   0.000000
     43         39.328592   0.000000
     44         40.707602   0.000000
     45         41.064374   0.000000
     46         41.783239   0.000000
     47         41.914934   0.000000
     48         42.095255   0.000000
 
  0.5000000E+00  0.8333333E-01  0.0000000E+00  0.2314815E-02
      1         -7.634916   1.000000
      2         -7.634916   1.000000
      3         -7.608871   1.000000
      4         -7.608871   1.000000
      5         -7.496799   1.000000
      6         -7.496799   1.000000
      7         -7.418105   1.000000
      8         -7.418105   1.000000
      9         -7.373932   1.000000
     10         -7.373932   1.000000
     11          1.616096   1.000000
     12          1.616096   1.000000
     13          7.782247   0.000000
     14          7.782247   0.000000
     15          8.613396   0.000000
     16          8.613396   0.000000
     17         14.152853   0.000000
     18         14.152853   0.000000
     19         18.527871   0.000000
     20         18.527871   0.000000
     21         20.469622   0.000000
     22         20.469622   0.000000
     23         21.608621   0.000000
     24         21.608621   0.000000
     25         24.639586   0.000000
     26         24.639586   0.000000
     27         25.667091   0.000000
     28         25.667091   0.000000
     29         25.980513   0.000000
     30         25.980513   0.000000
     31         26.772616   0.000000
     32         26.772616   0.000000
     33         30.002443   0.000000
     34         30.002443   0.000000
     35         34.421766   0.000000
     36         34.421766   0.000000
     37         35.961735   0.000000
     38         35.961735   0.000000
     39         37.268461   0.000000
     40         37.268461   0.000000
     41         37.505731   0.000000
     42         37.505731   0.000000
     43         39.566766   0.000000
     44         39.566766   0.000000
     45         41.072994   0.000000
     46         41.072994   0.000000
     47         42.383177   0.000000
     48         42.383177   0.000000
 
  0.1666667E+00  0.1666667E+00  0.0000000E+00  0.2314815E-02
      1         -7.698315   1.000000
      2         -7.643396   1.000000
      3         -7.628954   1.000000
      4         -7.581409   1.000000
      5         -7.520369   1.000000
      6         -7.511096   1.000000
      7         -7.443457   1.000000
      8         -7.439843   1.000000
      9         -7.393397   1.000000
     10         -7.311951   1.000000
     11         -1.417976   1.000000
     12          4.413091   1.000000
     13          5.391589   1.000000
     14          8.837900   0.000000
     15          9.279654   0.000000
     16         14.118829   0.000000
     17         14.396403   0.000000
     18         14.877975   0.000000
     19         16.307037   0.000000
     20         18.887089   0.000000
     21         18.889444   0.000000
     22         18.961366   0.000000
     23         22.585075   0.000000
     24         24.184050   0.000000
     25         24.241624   0.000000
     26         24.304406   0.000000
     27         24.590588   0.000000
     28         25.039036   0.000000
     29         25.079776   0.000000
     30         26.445949   0.000000
     31         26.753149   0.000000
     32         29.615218   0.000000
     33         30.353238   0.000000
     34         30.787061   0.000000
     35         31.659312   0.000000
     36         32.240466   0.000000
     37         32.341437   0.000000
     38         33.193555   0.000000
     39         34.799217   0.000000
     40         35.461643   0.000000
     41         36.777715   0.000000
     42         38.910283   0.000000
     43         39.492372   0.000000
     44         39.505363   0.000000
     45         40.337083   0.000000
     46         40.493846   0.000000
     47         40.844079   0.000000
     48         41.805004   0.000000
 
  0.2500000E+00  0.1666667E+00  0.0000000E+00  0.4629630E-02
      1         -7.654537   1.000000
      2         -7.651005   1.000000
      3         -7.590945   1.000000
      4         -7.554528   1.000000
      5         -7.512870   1.000000
      6         -7.501746   1.000000
      7         -7.491862   1.000000
      8         -7.429836   1.000000
      9         -7.417117   1.000000
     10         -7.320378   1.000000
     11         -0.896364   1.000000
     12          4.647730   1.000000
     13          5.972245   1.000000
     14          7.333450   0.000000
     15          9.626773   0.000000
     16         12.534557   0.000000
     17         13.156786   0.000000
     18         14.805215   0.000000
     19         16.306086   0.000000
     20         17.444374   0.000000
     21         19.213019   0.000000
     22         21.410084   0.000000
     23         22.596573   0.000000
     24         23.177339   0.000000
     25         23.611522   0.000000
     26         24.771190   0.000000
     27         25.197211   0.000000
     28         25.235015   0.000000
     29         26.151309   0.000000
     30         26.865390   0.000000
     31         28.703725   0.000000
     32         29.476346   0.000000
     33         30.113616   0.000000
     34         30.846353   0.000000
     35         30.882435   0.000000
     36         31.531400   0.000000
     37         32.875805   0.000000
     38         33.133370   0.000000
     39         35.698348   0.000000
     40         36.358220   0.000000
     41         37.706904   0.000000
     42         38.678250   0.000000
     43         39.014180   0.000000
     44         40.088455   0.000000
     45         40.759302   0.000000
     46         41.537399   0.000000
     47         41.977521   0.000000
     48         42.316493   0.000000
 
  0.3333333E+00  0.1666667E+00  0.0000000E+00  0.4629630E-02
      1         -7.666361   1.000000
      2         -7.636175   1.000000
      3         -7.572772   1.000000
      4         -7.563864   1.000000
      5         -7.525158   1.000000
      6         -7.502558   1.000000
      7         -7.459684   1.000000
      8         -7.421943   1.000000
      9         -7.390027   1.000000
     10         -7.337993   1.000000
     11         -0.161322   1.000000
     12          4.362591   1.000000
     13          6.524869   1.000000
     14          6.761812   1.000000
     15         10.332862   0.000000
     16         10.814145   0.000000
     17         11.653611   0.000000
     18         14.446337   0.000000
     19         16.868987   0.000000
     20         16.889518   0.000000
     21         19.408068   0.000000
     22         21.143641   0.000000
     23         21.988877   0.000000
     24         23.995118   0.000000
     25         24.439543   0.000000
     26         24.601076   0.000000
     27         25.311735   0.000000
     28         25.738159   0.000000
     29         26.321972   0.000000
     30         28.529358   0.000000
     31         28.894133   0.000000
     32         29.339310   0.000000
     33         29.425340   0.000000
     34         30.348418   0.000000
     35         31.188506   0.000000
     36         32.834740   0.000000
     37         33.437857   0.000000
     38         33.898003   0.000000
     39         36.422374   0.000000
     40         36.974785   0.000000
     41         37.752341   0.000000
     42         37.845482   0.000000
     43         38.835531   0.000000
     44         40.711456   0.000000
     45         41.108793   0.000000
     46         42.180562   0.000000
     47         42.474454   0.000000
     48         43.054290   0.000000
 
  0.4166667E+00  0.1666667E+00  0.0000000E+00  0.4629630E-02
      1         -7.668263   1.000000
      2         -7.622953   1.000000
      3         -7.615986   1.000000
      4         -7.594406   1.000000
      5         -7.506038   1.000000
      6         -7.502723   1.000000
      7         -7.425918   1.000000
      8         -7.384904   1.000000