In                                      
           1
     3.298410    0.000000    0.000000
     0.000000    3.298410    0.000000
     0.000000    0.000000    5.062560
   In
     2
Direct configuration=     1
   0.00000000  0.00000000  0.00000000
   0.50000000  0.50000000  0.50000000
