 DBCSR| CPU Multiplication driver                                           BLAS (U)
 DBCSR| Multrec recursion limit                                              512 (U)
 DBCSR| Multiplication stack size                                           1000 (D)
 DBCSR| Maximum elements for images                                    UNLIMITED (U)
 DBCSR| Multiplicative factor virtual images                                   1 (U)
 DBCSR| Use multiplication densification                                       T (D)
 DBCSR| Multiplication size stacks                                             3 (U)
 DBCSR| Use memory pool for CPU allocation                                     F (U)
 DBCSR| Number of 3D layers                                               SINGLE (U)
 DBCSR| Use MPI memory allocation                                              F (U)
 DBCSR| Use RMA algorithm                                                      F (U)
 DBCSR| Use Communication thread                                               T (U)
 DBCSR| Communication thread load                                             45 (D)
 DBCSR| MPI: My process id                                                     0
 DBCSR| MPI: Number of processes                                               8
 DBCSR| OMP: Current number of threads                                        12
 DBCSR| OMP: Max number of threads                                            12
 DBCSR| Split modifier for TAS multiplication algorithm                  1.0E+00 (U)


  **** **** ******  **  PROGRAM STARTED AT               2025-08-03 17:44:03.505
 ***** ** ***  *** **   PROGRAM STARTED ON                          i06r01c04s03
 **    ****   ******    PROGRAM STARTED BY                               di38fab
 ***** **    ** ** **   PROGRAM PROCESS ID                               1220824
  **** **  *******  **  PROGRAM STARTED IN /hppfs/scratch/04/di38fab/09_GTH/Delt
                                           a_Set/Ne/DZVP-MOLOPT-PBE-GTH/8x8x8

 CP2K| version string:                 CP2K version 2025.1 (Development Version)
 CP2K| source code revision number:                                  git:3130539
 CP2K| cp2kflags: omp libint fftw3 libxc parallel scalapack max_contr=4         
 CP2K| is freely available from                            https://www.cp2k.org/
 CP2K| Program compiled at                         Tue Jun  3 16:14:32 CEST 2025
 CP2K| Program compiled on                                               login01
 CP2K| Program compiled for                                        Supermuc-foss
 CP2K| Data directory path                  /hppfs/work/pn36zo/di38fab/cp2k/data
 CP2K| Input file name                                                    GW.inp

 GLOBAL| Force Environment number                                              1
 GLOBAL| Basis set file name            /hppfs/scratch/04/di38fab/09_GTH/BASIS_A
 GLOBAL| Potential file name            /hppfs/work/pn36zo/di38fab/cp2k/data/GTH
 GLOBAL| MM Potential file name                                     MM_POTENTIAL
 GLOBAL| Coordinate file name                                             Ne.cif
 GLOBAL| Method name                                                        CP2K
 GLOBAL| Project name                                                       WSe2
 GLOBAL| Run type                                                         ENERGY
 GLOBAL| FFT library                                                       FFTW3
 GLOBAL| Diagonalization library                                       ScaLAPACK
 GLOBAL| Cholesky decomposition library                                ScaLAPACK
 GLOBAL| DGEMM library                                                      BLAS
 GLOBAL| Orthonormality check for eigenvectors                          DISABLED
 GLOBAL| Matrix multiplication library                                 ScaLAPACK
 GLOBAL| All-to-all communication in single precision                          F
 GLOBAL| FFTs using library dependent lengths                                  F
 GLOBAL| Grid backend                                                       AUTO
 GLOBAL| Global print level                                               MEDIUM
 GLOBAL| MPI I/O enabled                                                       T
 GLOBAL| Total number of message passing processes                             8
 GLOBAL| Number of threads for this process                                   12
 GLOBAL| This output is from process                                           0
 GLOBAL| OpenMP stack size per thread (OMP_STACKSIZE)                    default
 GLOBAL| CPU model name             Intel(R) Xeon(R) Platinum 8174 CPU @ 3.10GHz

 MEMORY| system memory details [Kb]
 MEMORY|                        rank 0           min           max       average
 MEMORY| MemTotal             98436660      98436660      98436664      98436662
 MEMORY| MemFree              85689700      84629212      85689700      85159456
 MEMORY| Buffers                     0             0             0             0
 MEMORY| Cached                2355968       2355968       2386944       2371456
 MEMORY| Slab                  1114344       1114344       1289944       1202144
 MEMORY| SReclaimable           251756        251756        293112        272434
 MEMORY| MemLikelyFree        88297424      87309268      88297424      87803346


 *** Fundamental physical constants (SI units) ***

 *** Literature: B. J. Mohr and B. N. Taylor,
 ***             CODATA recommended values of the fundamental physical
 ***             constants: 2006, Web Version 5.1
 ***             http://physics.nist.gov/constants

 Speed of light in vacuum [m/s]                             2.99792458000000E+08
 Magnetic constant or permeability of vacuum [N/A**2]       1.25663706143592E-06
 Electric constant or permittivity of vacuum [F/m]          8.85418781762039E-12
 Planck constant (h) [J*s]                                  6.62606896000000E-34
 Planck constant (h-bar) [J*s]                              1.05457162825177E-34
 Elementary charge [C]                                      1.60217648700000E-19
 Electron mass [kg]                                         9.10938215000000E-31
 Electron g factor [ ]                                     -2.00231930436220E+00
 Proton mass [kg]                                           1.67262163700000E-27
 Fine-structure constant                                    7.29735253760000E-03
 Rydberg constant [1/m]                                     1.09737315685270E+07
 Avogadro constant [1/mol]                                  6.02214179000000E+23
 Boltzmann constant [J/K]                                   1.38065040000000E-23
 Atomic mass unit [kg]                                      1.66053878200000E-27
 Bohr radius [m]                                            5.29177208590000E-11

 *** Conversion factors ***

 [u] -> [a.u.]                                              1.82288848426455E+03
 [Angstrom] -> [Bohr] = [a.u.]                              1.88972613288564E+00
 [a.u.] = [Bohr] -> [Angstrom]                              5.29177208590000E-01
 [a.u.] -> [s]                                              2.41888432650478E-17
 [a.u.] -> [fs]                                             2.41888432650478E-02
 [a.u.] -> [J]                                              4.35974393937059E-18
 [a.u.] -> [N]                                              8.23872205491840E-08
 [a.u.] -> [K]                                              3.15774647902944E+05
 [a.u.] -> [kJ/mol]                                         2.62549961709828E+03
 [a.u.] -> [kcal/mol]                                       6.27509468713739E+02
 [a.u.] -> [Pa]                                             2.94210107994716E+13
 [a.u.] -> [bar]                                            2.94210107994716E+08
 [a.u.] -> [atm]                                            2.90362800883016E+08
 [a.u.] -> [eV]                                             2.72113838565563E+01
 [a.u.] -> [Hz]                                             6.57968392072181E+15
 [a.u.] -> [1/cm] (wave numbers)                            2.19474631370540E+05
 [a.u./Bohr**2] -> [1/cm]                                   5.14048714338585E+03
 

 CELL_TOP| Volume [angstrom^3]:                                        98.778990
 CELL_TOP| Vector a [angstrom     4.623     0.000     0.000   |a| =     4.622620
 CELL_TOP| Vector b [angstrom     0.000     4.623     0.000   |b| =     4.622620
 CELL_TOP| Vector c [angstrom     0.000     0.000     4.623   |c| =     4.622620
 CELL_TOP| Angle (b,c), alpha [degree]:                                90.000000
 CELL_TOP| Angle (a,c), beta  [degree]:                                90.000000
 CELL_TOP| Angle (a,b), gamma [degree]:                                90.000000
 CELL_TOP| Numerically orthorhombic:                                         YES
 CELL_TOP| Periodicity                                                       XYZ

 CELL_CIF| Volume [angstrom^3]:                                        98.778990
 CELL_CIF| Vector a [angstrom     4.623     0.000     0.000   |a| =     4.622620
 CELL_CIF| Vector b [angstrom     0.000     4.623     0.000   |b| =     4.622620
 CELL_CIF| Vector c [angstrom     0.000     0.000     4.623   |c| =     4.622620
 CELL_CIF| Angle (b,c), alpha [degree]:                                90.000000
 CELL_CIF| Angle (a,c), beta  [degree]:                                90.000000
 CELL_CIF| Angle (a,b), gamma [degree]:                                90.000000
 CELL_CIF| Numerically orthorhombic:                                         YES
 CELL_CIF| Periodicity                                                       XYZ

 GENERATE|  Preliminary Number of Bonds generated:                             0
 GENERATE|  Achieved consistency in connectivity generation.

 CELL| Volume [angstrom^3]:                                            98.778990
 CELL| Vector a [angstrom]:       4.623     0.000     0.000   |a| =     4.622620
 CELL| Vector b [angstrom]:       0.000     4.623     0.000   |b| =     4.622620
 CELL| Vector c [angstrom]:       0.000     0.000     4.623   |c| =     4.622620
 CELL| Angle (b,c), alpha [degree]:                                    90.000000
 CELL| Angle (a,c), beta  [degree]:                                    90.000000
 CELL| Angle (a,b), gamma [degree]:                                    90.000000
 CELL| Numerically orthorhombic:                                             YES
 CELL| Periodicity                                                           XYZ

 CELL_REF| Volume [angstrom^3]:                                        98.778990
 CELL_REF| Vector a [angstrom     4.623     0.000     0.000   |a| =     4.622620
 CELL_REF| Vector b [angstrom     0.000     4.623     0.000   |b| =     4.622620
 CELL_REF| Vector c [angstrom     0.000     0.000     4.623   |c| =     4.622620
 CELL_REF| Angle (b,c), alpha [degree]:                                90.000000
 CELL_REF| Angle (a,c), beta  [degree]:                                90.000000
 CELL_REF| Angle (a,b), gamma [degree]:                                90.000000
 CELL_REF| Numerically orthorhombic:                                         YES
 CELL_REF| Periodicity                                                       XYZ

 *** WARNING in cryssym.F:180 :: Symmetry library SPGLIB not available ***


 *******************************************************************************
                                    Kpoints
 *******************************************************************************
 BRILLOUIN| K-point scheme                                        Monkhorst-Pack
 BRILLOUIN| K-Point grid                                             8    8    8
 BRILLOUIN| Accuracy in Symmetry determination                      0.100000E-05
 BRILLOUIN| K-Point point group symmetrization                               OFF
 BRILLOUIN| Wavefunction type                                            COMPLEX
 BRILLOUIN| List of Kpoints [2 Pi/Bohr]                                      256
 BRILLOUIN| Number           Weight            X              Y              Z
 BRILLOUIN|     1           0.00391       -0.43750       -0.43750       -0.43750
 BRILLOUIN|     2           0.00391       -0.43750       -0.43750       -0.31250
 BRILLOUIN|     3           0.00391       -0.43750       -0.43750       -0.18750
 BRILLOUIN|     4           0.00391       -0.43750       -0.43750       -0.06250
 BRILLOUIN|     5           0.00391       -0.43750       -0.43750        0.06250
 BRILLOUIN|     6           0.00391       -0.43750       -0.43750        0.18750
 BRILLOUIN|     7           0.00391       -0.43750       -0.43750        0.31250
 BRILLOUIN|     8           0.00391       -0.43750       -0.43750        0.43750
 BRILLOUIN|     9           0.00391       -0.43750       -0.31250       -0.43750
 BRILLOUIN|    10           0.00391       -0.43750       -0.31250       -0.31250
 BRILLOUIN|    11           0.00391       -0.43750       -0.31250       -0.18750
 BRILLOUIN|    12           0.00391       -0.43750       -0.31250       -0.06250
 BRILLOUIN|    13           0.00391       -0.43750       -0.31250        0.06250
 BRILLOUIN|    14           0.00391       -0.43750       -0.31250        0.18750
 BRILLOUIN|    15           0.00391       -0.43750       -0.31250        0.31250
 BRILLOUIN|    16           0.00391       -0.43750       -0.31250        0.43750
 BRILLOUIN|    17           0.00391       -0.43750       -0.18750       -0.43750
 BRILLOUIN|    18           0.00391       -0.43750       -0.18750       -0.31250
 BRILLOUIN|    19           0.00391       -0.43750       -0.18750       -0.18750
 BRILLOUIN|    20           0.00391       -0.43750       -0.18750       -0.06250
 BRILLOUIN|    21           0.00391       -0.43750       -0.18750        0.06250
 BRILLOUIN|    22           0.00391       -0.43750       -0.18750        0.18750
 BRILLOUIN|    23           0.00391       -0.43750       -0.18750        0.31250
 BRILLOUIN|    24           0.00391       -0.43750       -0.18750        0.43750
 BRILLOUIN|    25           0.00391       -0.43750       -0.06250       -0.43750
 BRILLOUIN|    26           0.00391       -0.43750       -0.06250       -0.31250
 BRILLOUIN|    27           0.00391       -0.43750       -0.06250       -0.18750
 BRILLOUIN|    28           0.00391       -0.43750       -0.06250       -0.06250
 BRILLOUIN|    29           0.00391       -0.43750       -0.06250        0.06250
 BRILLOUIN|    30           0.00391       -0.43750       -0.06250        0.18750
 BRILLOUIN|    31           0.00391       -0.43750       -0.06250        0.31250
 BRILLOUIN|    32           0.00391       -0.43750       -0.06250        0.43750
 BRILLOUIN|    33           0.00391       -0.43750        0.06250       -0.43750
 BRILLOUIN|    34           0.00391       -0.43750        0.06250       -0.31250
 BRILLOUIN|    35           0.00391       -0.43750        0.06250       -0.18750
 BRILLOUIN|    36           0.00391       -0.43750        0.06250       -0.06250
 BRILLOUIN|    37           0.00391       -0.43750        0.06250        0.06250
 BRILLOUIN|    38           0.00391       -0.43750        0.06250        0.18750
 BRILLOUIN|    39           0.00391       -0.43750        0.06250        0.31250
 BRILLOUIN|    40           0.00391       -0.43750        0.06250        0.43750
 BRILLOUIN|    41           0.00391       -0.43750        0.18750       -0.43750
 BRILLOUIN|    42           0.00391       -0.43750        0.18750       -0.31250
 BRILLOUIN|    43           0.00391       -0.43750        0.18750       -0.18750
 BRILLOUIN|    44           0.00391       -0.43750        0.18750       -0.06250
 BRILLOUIN|    45           0.00391       -0.43750        0.18750        0.06250
 BRILLOUIN|    46           0.00391       -0.43750        0.18750        0.18750
 BRILLOUIN|    47           0.00391       -0.43750        0.18750        0.31250
 BRILLOUIN|    48           0.00391       -0.43750        0.18750        0.43750
 BRILLOUIN|    49           0.00391       -0.43750        0.31250       -0.43750
 BRILLOUIN|    50           0.00391       -0.43750        0.31250       -0.31250
 BRILLOUIN|    51           0.00391       -0.43750        0.31250       -0.18750
 BRILLOUIN|    52           0.00391       -0.43750        0.31250       -0.06250
 BRILLOUIN|    53           0.00391       -0.43750        0.31250        0.06250
 BRILLOUIN|    54           0.00391       -0.43750        0.31250        0.18750
 BRILLOUIN|    55           0.00391       -0.43750        0.31250        0.31250
 BRILLOUIN|    56           0.00391       -0.43750        0.31250        0.43750
 BRILLOUIN|    57           0.00391       -0.43750        0.43750       -0.43750
 BRILLOUIN|    58           0.00391       -0.43750        0.43750       -0.31250
 BRILLOUIN|    59           0.00391       -0.43750        0.43750       -0.18750
 BRILLOUIN|    60           0.00391       -0.43750        0.43750       -0.06250
 BRILLOUIN|    61           0.00391       -0.43750        0.43750        0.06250
 BRILLOUIN|    62           0.00391       -0.43750        0.43750        0.18750
 BRILLOUIN|    63           0.00391       -0.43750        0.43750        0.31250
 BRILLOUIN|    64           0.00391       -0.43750        0.43750        0.43750
 BRILLOUIN|    65           0.00391       -0.31250       -0.43750       -0.43750
 BRILLOUIN|    66           0.00391       -0.31250       -0.43750       -0.31250
 BRILLOUIN|    67           0.00391       -0.31250       -0.43750       -0.18750
 BRILLOUIN|    68           0.00391       -0.31250       -0.43750       -0.06250
 BRILLOUIN|    69           0.00391       -0.31250       -0.43750        0.06250
 BRILLOUIN|    70           0.00391       -0.31250       -0.43750        0.18750
 BRILLOUIN|    71           0.00391       -0.31250       -0.43750        0.31250
 BRILLOUIN|    72           0.00391       -0.31250       -0.43750        0.43750
 BRILLOUIN|    73           0.00391       -0.31250       -0.31250       -0.43750
 BRILLOUIN|    74           0.00391       -0.31250       -0.31250       -0.31250
 BRILLOUIN|    75           0.00391       -0.31250       -0.31250       -0.18750
 BRILLOUIN|    76           0.00391       -0.31250       -0.31250       -0.06250
 BRILLOUIN|    77           0.00391       -0.31250       -0.31250        0.06250
 BRILLOUIN|    78           0.00391       -0.31250       -0.31250        0.18750
 BRILLOUIN|    79           0.00391       -0.31250       -0.31250        0.31250
 BRILLOUIN|    80           0.00391       -0.31250       -0.31250        0.43750
 BRILLOUIN|    81           0.00391       -0.31250       -0.18750       -0.43750
 BRILLOUIN|    82           0.00391       -0.31250       -0.18750       -0.31250
 BRILLOUIN|    83           0.00391       -0.31250       -0.18750       -0.18750
 BRILLOUIN|    84           0.00391       -0.31250       -0.18750       -0.06250
 BRILLOUIN|    85           0.00391       -0.31250       -0.18750        0.06250
 BRILLOUIN|    86           0.00391       -0.31250       -0.18750        0.18750
 BRILLOUIN|    87           0.00391       -0.31250       -0.18750        0.31250
 BRILLOUIN|    88           0.00391       -0.31250       -0.18750        0.43750
 BRILLOUIN|    89           0.00391       -0.31250       -0.06250       -0.43750
 BRILLOUIN|    90           0.00391       -0.31250       -0.06250       -0.31250
 BRILLOUIN|    91           0.00391       -0.31250       -0.06250       -0.18750
 BRILLOUIN|    92           0.00391       -0.31250       -0.06250       -0.06250
 BRILLOUIN|    93           0.00391       -0.31250       -0.06250        0.06250
 BRILLOUIN|    94           0.00391       -0.31250       -0.06250        0.18750
 BRILLOUIN|    95           0.00391       -0.31250       -0.06250        0.31250
 BRILLOUIN|    96           0.00391       -0.31250       -0.06250        0.43750
 BRILLOUIN|    97           0.00391       -0.31250        0.06250       -0.43750
 BRILLOUIN|    98           0.00391       -0.31250        0.06250       -0.31250
 BRILLOUIN|    99           0.00391       -0.31250        0.06250       -0.18750
 BRILLOUIN|   100           0.00391       -0.31250        0.06250       -0.06250
 BRILLOUIN|   101           0.00391       -0.31250        0.06250        0.06250
 BRILLOUIN|   102           0.00391       -0.31250        0.06250        0.18750
 BRILLOUIN|   103           0.00391       -0.31250        0.06250        0.31250
 BRILLOUIN|   104           0.00391       -0.31250        0.06250        0.43750
 BRILLOUIN|   105           0.00391       -0.31250        0.18750       -0.43750
 BRILLOUIN|   106           0.00391       -0.31250        0.18750       -0.31250
 BRILLOUIN|   107           0.00391       -0.31250        0.18750       -0.18750
 BRILLOUIN|   108           0.00391       -0.31250        0.18750       -0.06250
 BRILLOUIN|   109           0.00391       -0.31250        0.18750        0.06250
 BRILLOUIN|   110           0.00391       -0.31250        0.18750        0.18750
 BRILLOUIN|   111           0.00391       -0.31250        0.18750        0.31250
 BRILLOUIN|   112           0.00391       -0.31250        0.18750        0.43750
 BRILLOUIN|   113           0.00391       -0.31250        0.31250       -0.43750
 BRILLOUIN|   114           0.00391       -0.31250        0.31250       -0.31250
 BRILLOUIN|   115           0.00391       -0.31250        0.31250       -0.18750
 BRILLOUIN|   116           0.00391       -0.31250        0.31250       -0.06250
 BRILLOUIN|   117           0.00391       -0.31250        0.31250        0.06250
 BRILLOUIN|   118           0.00391       -0.31250        0.31250        0.18750
 BRILLOUIN|   119           0.00391       -0.31250        0.31250        0.31250
 BRILLOUIN|   120           0.00391       -0.31250        0.31250        0.43750
 BRILLOUIN|   121           0.00391       -0.31250        0.43750       -0.43750
 BRILLOUIN|   122           0.00391       -0.31250        0.43750       -0.31250
 BRILLOUIN|   123           0.00391       -0.31250        0.43750       -0.18750
 BRILLOUIN|   124           0.00391       -0.31250        0.43750       -0.06250
 BRILLOUIN|   125           0.00391       -0.31250        0.43750        0.06250
 BRILLOUIN|   126           0.00391       -0.31250        0.43750        0.18750
 BRILLOUIN|   127           0.00391       -0.31250        0.43750        0.31250
 BRILLOUIN|   128           0.00391       -0.31250        0.43750        0.43750
 BRILLOUIN|   129           0.00391       -0.18750       -0.43750       -0.43750
 BRILLOUIN|   130           0.00391       -0.18750       -0.43750       -0.31250
 BRILLOUIN|   131           0.00391       -0.18750       -0.43750       -0.18750
 BRILLOUIN|   132           0.00391       -0.18750       -0.43750       -0.06250
 BRILLOUIN|   133           0.00391       -0.18750       -0.43750        0.06250
 BRILLOUIN|   134           0.00391       -0.18750       -0.43750        0.18750
 BRILLOUIN|   135           0.00391       -0.18750       -0.43750        0.31250
 BRILLOUIN|   136           0.00391       -0.18750       -0.43750        0.43750
 BRILLOUIN|   137           0.00391       -0.18750       -0.31250       -0.43750
 BRILLOUIN|   138           0.00391       -0.18750       -0.31250       -0.31250
 BRILLOUIN|   139           0.00391       -0.18750       -0.31250       -0.18750
 BRILLOUIN|   140           0.00391       -0.18750       -0.31250       -0.06250
 BRILLOUIN|   141           0.00391       -0.18750       -0.31250        0.06250
 BRILLOUIN|   142           0.00391       -0.18750       -0.31250        0.18750
 BRILLOUIN|   143           0.00391       -0.18750       -0.31250        0.31250
 BRILLOUIN|   144           0.00391       -0.18750       -0.31250        0.43750
 BRILLOUIN|   145           0.00391       -0.18750       -0.18750       -0.43750
 BRILLOUIN|   146           0.00391       -0.18750       -0.18750       -0.31250
 BRILLOUIN|   147           0.00391       -0.18750       -0.18750       -0.18750
 BRILLOUIN|   148           0.00391       -0.18750       -0.18750       -0.06250
 BRILLOUIN|   149           0.00391       -0.18750       -0.18750        0.06250
 BRILLOUIN|   150           0.00391       -0.18750       -0.18750        0.18750
 BRILLOUIN|   151           0.00391       -0.18750       -0.18750        0.31250
 BRILLOUIN|   152           0.00391       -0.18750       -0.18750        0.43750
 BRILLOUIN|   153           0.00391       -0.18750       -0.06250       -0.43750
 BRILLOUIN|   154           0.00391       -0.18750       -0.06250       -0.31250
 BRILLOUIN|   155           0.00391       -0.18750       -0.06250       -0.18750
 BRILLOUIN|   156           0.00391       -0.18750       -0.06250       -0.06250
 BRILLOUIN|   157           0.00391       -0.18750       -0.06250        0.06250
 BRILLOUIN|   158           0.00391       -0.18750       -0.06250        0.18750
 BRILLOUIN|   159           0.00391       -0.18750       -0.06250        0.31250
 BRILLOUIN|   160           0.00391       -0.18750       -0.06250        0.43750
 BRILLOUIN|   161           0.00391       -0.18750        0.06250       -0.43750
 BRILLOUIN|   162           0.00391       -0.18750        0.06250       -0.31250
 BRILLOUIN|   163           0.00391       -0.18750        0.06250       -0.18750
 BRILLOUIN|   164           0.00391       -0.18750        0.06250       -0.06250
 BRILLOUIN|   165           0.00391       -0.18750        0.06250        0.06250
 BRILLOUIN|   166           0.00391       -0.18750        0.06250        0.18750
 BRILLOUIN|   167           0.00391       -0.18750        0.06250        0.31250
 BRILLOUIN|   168           0.00391       -0.18750        0.06250        0.43750
 BRILLOUIN|   169           0.00391       -0.18750        0.18750       -0.43750
 BRILLOUIN|   170           0.00391       -0.18750        0.18750       -0.31250
 BRILLOUIN|   171           0.00391       -0.18750        0.18750       -0.18750
 BRILLOUIN|   172           0.00391       -0.18750        0.18750       -0.06250
 BRILLOUIN|   173           0.00391       -0.18750        0.18750        0.06250
 BRILLOUIN|   174           0.00391       -0.18750        0.18750        0.18750
 BRILLOUIN|   175           0.00391       -0.18750        0.18750        0.31250
 BRILLOUIN|   176           0.00391       -0.18750        0.18750        0.43750
 BRILLOUIN|   177           0.00391       -0.18750        0.31250       -0.43750
 BRILLOUIN|   178           0.00391       -0.18750        0.31250       -0.31250
 BRILLOUIN|   179           0.00391       -0.18750        0.31250       -0.18750
 BRILLOUIN|   180           0.00391       -0.18750        0.31250       -0.06250
 BRILLOUIN|   181           0.00391       -0.18750        0.31250        0.06250
 BRILLOUIN|   182           0.00391       -0.18750        0.31250        0.18750
 BRILLOUIN|   183           0.00391       -0.18750        0.31250        0.31250
 BRILLOUIN|   184           0.00391       -0.18750        0.31250        0.43750
 BRILLOUIN|   185           0.00391       -0.18750        0.43750       -0.43750
 BRILLOUIN|   186           0.00391       -0.18750        0.43750       -0.31250
 BRILLOUIN|   187           0.00391       -0.18750        0.43750       -0.18750
 BRILLOUIN|   188           0.00391       -0.18750        0.43750       -0.06250
 BRILLOUIN|   189           0.00391       -0.18750        0.43750        0.06250
 BRILLOUIN|   190           0.00391       -0.18750        0.43750        0.18750
 BRILLOUIN|   191           0.00391       -0.18750        0.43750        0.31250
 BRILLOUIN|   192           0.00391       -0.18750        0.43750        0.43750
 BRILLOUIN|   193           0.00391       -0.06250       -0.43750       -0.43750
 BRILLOUIN|   194           0.00391       -0.06250       -0.43750       -0.31250
 BRILLOUIN|   195           0.00391       -0.06250       -0.43750       -0.18750
 BRILLOUIN|   196           0.00391       -0.06250       -0.43750       -0.06250
 BRILLOUIN|   197           0.00391       -0.06250       -0.43750        0.06250
 BRILLOUIN|   198           0.00391       -0.06250       -0.43750        0.18750
 BRILLOUIN|   199           0.00391       -0.06250       -0.43750        0.31250
 BRILLOUIN|   200           0.00391       -0.06250       -0.43750        0.43750
 BRILLOUIN|   201           0.00391       -0.06250       -0.31250       -0.43750
 BRILLOUIN|   202           0.00391       -0.06250       -0.31250       -0.31250
 BRILLOUIN|   203           0.00391       -0.06250       -0.31250       -0.18750
 BRILLOUIN|   204           0.00391       -0.06250       -0.31250       -0.06250
 BRILLOUIN|   205           0.00391       -0.06250       -0.31250        0.06250
 BRILLOUIN|   206           0.00391       -0.06250       -0.31250        0.18750
 BRILLOUIN|   207           0.00391       -0.06250       -0.31250        0.31250
 BRILLOUIN|   208           0.00391       -0.06250       -0.31250        0.43750
 BRILLOUIN|   209           0.00391       -0.06250       -0.18750       -0.43750
 BRILLOUIN|   210           0.00391       -0.06250       -0.18750       -0.31250
 BRILLOUIN|   211           0.00391       -0.06250       -0.18750       -0.18750
 BRILLOUIN|   212           0.00391       -0.06250       -0.18750       -0.06250
 BRILLOUIN|   213           0.00391       -0.06250       -0.18750        0.06250
 BRILLOUIN|   214           0.00391       -0.06250       -0.18750        0.18750
 BRILLOUIN|   215           0.00391       -0.06250       -0.18750        0.31250
 BRILLOUIN|   216           0.00391       -0.06250       -0.18750        0.43750
 BRILLOUIN|   217           0.00391       -0.06250       -0.06250       -0.43750
 BRILLOUIN|   218           0.00391       -0.06250       -0.06250       -0.31250
 BRILLOUIN|   219           0.00391       -0.06250       -0.06250       -0.18750
 BRILLOUIN|   220           0.00391       -0.06250       -0.06250       -0.06250
 BRILLOUIN|   221           0.00391       -0.06250       -0.06250        0.06250
 BRILLOUIN|   222           0.00391       -0.06250       -0.06250        0.18750
 BRILLOUIN|   223           0.00391       -0.06250       -0.06250        0.31250
 BRILLOUIN|   224           0.00391       -0.06250       -0.06250        0.43750
 BRILLOUIN|   225           0.00391       -0.06250        0.06250       -0.43750
 BRILLOUIN|   226           0.00391       -0.06250        0.06250       -0.31250
 BRILLOUIN|   227           0.00391       -0.06250        0.06250       -0.18750
 BRILLOUIN|   228           0.00391       -0.06250        0.06250       -0.06250
 BRILLOUIN|   229           0.00391       -0.06250        0.06250        0.06250
 BRILLOUIN|   230           0.00391       -0.06250        0.06250        0.18750
 BRILLOUIN|   231           0.00391       -0.06250        0.06250        0.31250
 BRILLOUIN|   232           0.00391       -0.06250        0.06250        0.43750
 BRILLOUIN|   233           0.00391       -0.06250        0.18750       -0.43750
 BRILLOUIN|   234           0.00391       -0.06250        0.18750       -0.31250
 BRILLOUIN|   235           0.00391       -0.06250        0.18750       -0.18750
 BRILLOUIN|   236           0.00391       -0.06250        0.18750       -0.06250
 BRILLOUIN|   237           0.00391       -0.06250        0.18750        0.06250
 BRILLOUIN|   238           0.00391       -0.06250        0.18750        0.18750
 BRILLOUIN|   239           0.00391       -0.06250        0.18750        0.31250
 BRILLOUIN|   240           0.00391       -0.06250        0.18750        0.43750
 BRILLOUIN|   241           0.00391       -0.06250        0.31250       -0.43750
 BRILLOUIN|   242           0.00391       -0.06250        0.31250       -0.31250
 BRILLOUIN|   243           0.00391       -0.06250        0.31250       -0.18750
 BRILLOUIN|   244           0.00391       -0.06250        0.31250       -0.06250
 BRILLOUIN|   245           0.00391       -0.06250        0.31250        0.06250
 BRILLOUIN|   246           0.00391       -0.06250        0.31250        0.18750
 BRILLOUIN|   247           0.00391       -0.06250        0.31250        0.31250
 BRILLOUIN|   248           0.00391       -0.06250        0.31250        0.43750
 BRILLOUIN|   249           0.00391       -0.06250        0.43750       -0.43750
 BRILLOUIN|   250           0.00391       -0.06250        0.43750       -0.31250
 BRILLOUIN|   251           0.00391       -0.06250        0.43750       -0.18750
 BRILLOUIN|   252           0.00391       -0.06250        0.43750       -0.06250
 BRILLOUIN|   253           0.00391       -0.06250        0.43750        0.06250
 BRILLOUIN|   254           0.00391       -0.06250        0.43750        0.18750
 BRILLOUIN|   255           0.00391       -0.06250        0.43750        0.31250
 BRILLOUIN|   256           0.00391       -0.06250        0.43750        0.43750
 *******************************************************************************

 *******************************************************************************
 *******************************************************************************
 **                                                                           **
 **     #####                         ##              ##                      **
 **    ##   ##            ##          ##              ##                      **
 **   ##     ##                       ##            ######                    **
 **   ##     ##  ##   ##  ##   #####  ##  ##   ####   ##    #####    #####    **
 **   ##     ##  ##   ##  ##  ##      ## ##   ##      ##   ##   ##  ##   ##   **
 **   ##  ## ##  ##   ##  ##  ##      ####     ###    ##   ######   ######    **
 **    ##  ###   ##   ##  ##  ##      ## ##      ##   ##   ##       ##        **
 **     #######   #####   ##   #####  ##  ##  ####    ##    #####   ##        **
 **           ##                                                    ##        **
 **                                                                           **
 **                                                ... make the atoms dance   **
 **                                                                           **
 **            Copyright (C) by CP2K developers group (2000-2025)             **
 **                      J. Chem. Phys. 152, 194103 (2020)                    **
 **                                                                           **
 *******************************************************************************

 DFT| Spin restricted Kohn-Sham (RKS) calculation                            RKS
 DFT| Multiplicity                                                             1
 DFT| Number of spin states                                                    1
 DFT| Charge                                                                   0
 DFT| Self-interaction correction (SIC)                                       NO
 DFT| Cutoffs: density                                              1.000000E-10
 DFT|          gradient                                             1.000000E-10
 DFT|          tau                                                  1.000000E-10
 DFT|          cutoff_smoothing_range                               0.000000E+00
 DFT| XC density smoothing                                                  NONE
 DFT| XC derivatives                                                          PW

 FUNCTIONAL| PBE:
 FUNCTIONAL| J.P.Perdew, K.Burke, M.Ernzerhof, Phys. Rev. Letter, vol. 77, n 18,
 FUNCTIONAL|  pp. 3865-3868, (1996) {spin unpolarized}                          


 QS| Method:                                                                 GPW
 QS| Density plane wave grid type                        NON-SPHERICAL FULLSPACE
 QS| Number of grid levels:                                                    4
 QS| Density cutoff [a.u.]:                                                500.0
 QS| Multi grid cutoff [a.u.]: 1) grid level                               500.0
 QS|                           2) grid level                               166.7
 QS|                           3) grid level                                55.6
 QS|                           4) grid level                                18.5
 QS| Grid level progression factor:                                          3.0
 QS| Relative density cutoff [a.u.]:                                        50.0
 QS| Interaction thresholds: eps_pgf_orb:                                1.0E-16
 QS|                         eps_filter_matrix:                          0.0E+00
 QS|                         eps_core_charge:                            1.0E-18
 QS|                         eps_rho_gspace:                             1.0E-16
 QS|                         eps_rho_rspace:                             1.0E-16
 QS|                         eps_gvg_rspace:                             1.0E-08
 QS|                         eps_ppl:                                    1.0E-02
 QS|                         eps_ppnl:                                   1.0E-10


 ATOMIC KIND INFORMATION

  1. Atomic kind: Ne                                    Number of atoms:       4

     Orbital Basis Set                                    DZVP-MOLOPT-GGA-GTH-q8

       Number of orbital shell sets:                                           1
       Number of orbital shells:                                               5
       Number of primitive Cartesian functions:                                5
       Number of Cartesian basis functions:                                   14
       Number of spherical basis functions:                                   13
       Norm type:                                                              2

       Normalised Cartesian orbitals:

                        Set   Shell   Orbital            Exponent    Coefficient

                          1       1    2s               23.449317       0.259180
                                                         8.280863       0.439136
                                                         2.545863      -0.378926
                                                         0.797696      -0.279414
                                                         0.235222      -0.110544

                          1       2    3s               23.449317      -0.520837
                                                         8.280863      -0.669636
                                                         2.545863       0.461847
                                                         0.797696       0.706099
                                                         0.235222      -0.344209

                          1       3    3px              23.449317      -1.962337
                                                         8.280863      -3.275737
                                                         2.545863      -1.733977
                                                         0.797696      -0.458934
                                                         0.235222      -0.067807
                          1       3    3py              23.449317      -1.962337
                                                         8.280863      -3.275737
                                                         2.545863      -1.733977
                                                         0.797696      -0.458934
                                                         0.235222      -0.067807
                          1       3    3pz              23.449317      -1.962337
                                                         8.280863      -3.275737
                                                         2.545863      -1.733977
                                                         0.797696      -0.458934
                                                         0.235222      -0.067807

                          1       4    4px              23.449317       1.475737
                                                         8.280863       2.995161
                                                         2.545863       1.485039
                                                         0.797696       0.421799
                                                         0.235222      -0.253446
                          1       4    4py              23.449317       1.475737
                                                         8.280863       2.995161
                                                         2.545863       1.485039
                                                         0.797696       0.421799
                                                         0.235222      -0.253446
                          1       4    4pz              23.449317       1.475737
                                                         8.280863       2.995161
                                                         2.545863       1.485039
                                                         0.797696       0.421799
                                                         0.235222      -0.253446

                          1       5    4dx2             23.449317       3.584493
                                                         8.280863      -1.068608
                                                         2.545863       2.391649
                                                         0.797696       0.674134
                                                         0.235222       0.044052
                          1       5    4dxy             23.449317       6.208523
                                                         8.280863      -1.850883
                                                         2.545863       4.142458
                                                         0.797696       1.167635
                                                         0.235222       0.076300
                          1       5    4dxz             23.449317       6.208523
                                                         8.280863      -1.850883
                                                         2.545863       4.142458
                                                         0.797696       1.167635
                                                         0.235222       0.076300
                          1       5    4dy2             23.449317       3.584493
                                                         8.280863      -1.068608
                                                         2.545863       2.391649
                                                         0.797696       0.674134
                                                         0.235222       0.044052
                          1       5    4dyz             23.449317       6.208523
                                                         8.280863      -1.850883
                                                         2.545863       4.142458
                                                         0.797696       1.167635
                                                         0.235222       0.076300
                          1       5    4dz2             23.449317       3.584493
                                                         8.280863      -1.068608
                                                         2.545863       2.391649
                                                         0.797696       0.674134
                                                         0.235222       0.044052

       Atomic covalent radius [Angstrom]:                                  0.710

       Atomic van der Waals radius [Angstrom]:                             1.540

     GTH Potential information for                                    GTH-PBE-q8

       Description:                       Goedecker-Teter-Hutter pseudopotential
                                           Goedecker et al., PRB 54, 1703 (1996)
                                          Hartwigsen et al., PRB 58, 3641 (1998)
                                                      Krack, TCA 114, 145 (2005)

       Gaussian exponent of the core charge distribution:              13.850416
       Electronic configuration (s p d ...):                               2   6

       Parameters of the local part of the GTH pseudopotential:

                          rloc        C1          C2          C3          C4
                        0.190000  -27.120160    4.360450

       Parameters of the non-local part of the GTH (SOC) pseudopotential:

                   l      r(l)      h(i,j,l)
                                    k(i,j,l)
                   0    0.176059   28.177371    0.833656
                                    0.833656   -1.076245
                   1    0.195475   -0.236294
                                    0.012970


 MOLECULE KIND INFORMATION


 All atoms are their own molecule, skipping detailed information


 TOTAL NUMBERS AND MAXIMUM NUMBERS

  Total number of            - Atomic kinds:                                   1
                             - Atoms:                                          4
                             - Shell sets:                                     4
                             - Shells:                                        20
                             - Primitive Cartesian functions:                 20
                             - Cartesian basis functions:                     56
                             - Spherical basis functions:                     52

  Maximum angular momentum of- Orbital basis functions:                        2
                             - Local part of the GTH pseudopotential:          2
                             - Non-local part of the GTH pseudopotential:      2


 MODULE QUICKSTEP: ATOMIC COORDINATES IN ANGSTROM

   Atom Kind Element         X             Y             Z       Z(eff)     Mass
      1    1 Ne   10      0.000000      0.000000      0.000000   8.0000  20.1797
      2    1 Ne   10      0.000000      2.311310      2.311310   8.0000  20.1797
      3    1 Ne   10      2.311310      0.000000      2.311310   8.0000  20.1797
      4    1 Ne   10      2.311310      2.311310      0.000000   8.0000  20.1797



 SCF PARAMETERS         Density guess:                                    ATOMIC
                        --------------------------------------------------------
                        max_scf:                                             500
                        max_scf_history:                                       0
                        max_diis:                                              4
                        --------------------------------------------------------
                        eps_scf:                                        1.00E-09
                        eps_scf_history:                                0.00E+00
                        eps_diis:                                       1.00E-01
                        eps_eigval:                                     1.00E-05
                        --------------------------------------------------------
                        level_shift [a.u.]:                             0.000000
                        added MOs                                        36    0
                        --------------------------------------------------------
                        Mixing method:                            BROYDEN_MIXING
                                                charge density mixing in g-space
                        --------------------------------------------------------
                        No outer SCF

 PW_GRID| Information for grid number                                          1
 PW_GRID| Grid distributed over                                     8 processors
 PW_GRID| Real space group dimensions                                     8    1
 PW_GRID| the grid is blocked:                                                NO
 PW_GRID| Cutoff [a.u.]                                                    500.0
 PW_GRID| spherical cutoff:                                                   NO
 PW_GRID|   Bounds   1            -45      44                Points:          90
 PW_GRID|   Bounds   2            -45      44                Points:          90
 PW_GRID|   Bounds   3            -45      44                Points:          90
 PW_GRID| Volume element (a.u.^3)  0.9144E-03     Volume (a.u.^3)       666.5937
 PW_GRID| Grid span                                                    FULLSPACE
 PW_GRID|   Distribution                         Average         Max         Min
 PW_GRID|   G-Vectors                            91125.0       91170       91080
 PW_GRID|   G-Rays                                1012.5        1013        1012
 PW_GRID|   Real Space Points                    91125.0       97200       89100

 PW_GRID| Information for grid number                                          2
 PW_GRID| Number of the reference grid                                         1
 PW_GRID| Grid distributed over                                     8 processors
 PW_GRID| Real space group dimensions                                     8    1
 PW_GRID| the grid is blocked:                                                NO
 PW_GRID| Cutoff [a.u.]                                                    166.7
 PW_GRID| spherical cutoff:                                                   NO
 PW_GRID|   Bounds   1            -27      26                Points:          54
 PW_GRID|   Bounds   2            -27      26                Points:          54
 PW_GRID|   Bounds   3            -27      26                Points:          54
 PW_GRID| Volume element (a.u.^3)  0.4233E-02     Volume (a.u.^3)       666.5937
 PW_GRID| Grid span                                                    FULLSPACE
 PW_GRID|   Distribution                         Average         Max         Min
 PW_GRID|   G-Vectors                            19683.0       19710       19656
 PW_GRID|   G-Rays                                 364.5         365         364
 PW_GRID|   Real Space Points                    19683.0       20412       17496

 PW_GRID| Information for grid number                                          3
 PW_GRID| Number of the reference grid                                         1
 PW_GRID| Grid distributed over                                     8 processors
 PW_GRID| Real space group dimensions                                     8    1
 PW_GRID| the grid is blocked:                                                NO
 PW_GRID| Cutoff [a.u.]                                                     55.6
 PW_GRID| spherical cutoff:                                                   NO
 PW_GRID|   Bounds   1            -15      14                Points:          30
 PW_GRID|   Bounds   2            -15      14                Points:          30
 PW_GRID|   Bounds   3            -15      14                Points:          30
 PW_GRID| Volume element (a.u.^3)  0.2469E-01     Volume (a.u.^3)       666.5937
 PW_GRID| Grid span                                                    FULLSPACE
 PW_GRID|   Distribution                         Average         Max         Min
 PW_GRID|   G-Vectors                             3375.0        3390        3360
 PW_GRID|   G-Rays                                 112.5         113         112
 PW_GRID|   Real Space Points                     3375.0        3600        2700

 PW_GRID| Information for grid number                                          4
 PW_GRID| Number of the reference grid                                         1
 PW_GRID| Grid distributed over                                     8 processors
 PW_GRID| Real space group dimensions                                     8    1
 PW_GRID| the grid is blocked:                                                NO
 PW_GRID| Cutoff [a.u.]                                                     18.5
 PW_GRID| spherical cutoff:                                                   NO
 PW_GRID|   Bounds   1             -9       8                Points:          18
 PW_GRID|   Bounds   2             -9       8                Points:          18
 PW_GRID|   Bounds   3             -9       8                Points:          18
 PW_GRID| Volume element (a.u.^3)  0.1143         Volume (a.u.^3)       666.5937
 PW_GRID| Grid span                                                    FULLSPACE
 PW_GRID|   Distribution                         Average         Max         Min
 PW_GRID|   G-Vectors                              729.0         738         720
 PW_GRID|   G-Rays                                  40.5          41          40
 PW_GRID|   Real Space Points                      729.0         972         648

 POISSON| Solver                                                        PERIODIC
 POISSON| Periodicity                                                        XYZ

 RS_GRID| Information for grid number                                          1
 RS_GRID|   Bounds   1            -45      44                Points:          90
 RS_GRID|   Bounds   2            -45      44                Points:          90
 RS_GRID|   Bounds   3            -45      44                Points:          90
 RS_GRID| Real space fully replicated
 RS_GRID| Group size                                                           1

 RS_GRID| Information for grid number                                          2
 RS_GRID|   Bounds   1            -27      26                Points:          54
 RS_GRID|   Bounds   2            -27      26                Points:          54
 RS_GRID|   Bounds   3            -27      26                Points:          54
 RS_GRID| Real space fully replicated
 RS_GRID| Group size                                                           1

 RS_GRID| Information for grid number                                          3
 RS_GRID|   Bounds   1            -15      14                Points:          30
 RS_GRID|   Bounds   2            -15      14                Points:          30
 RS_GRID|   Bounds   3            -15      14                Points:          30
 RS_GRID| Real space fully replicated
 RS_GRID| Group size                                                           1

 RS_GRID| Information for grid number                                          4
 RS_GRID|   Bounds   1             -9       8                Points:          18
 RS_GRID|   Bounds   2             -9       8                Points:          18
 RS_GRID|   Bounds   3             -9       8                Points:          18
 RS_GRID| Real space fully replicated
 RS_GRID| Group size                                                           1

 Number of electrons:                                                         32
 Number of occupied orbitals:                                                 16
 Number of molecular orbitals:                                                52

 Number of orbital functions:                                                 52
 Number of independent orbital functions:                                     52

 Extrapolation method: initial_guess

 Atomic guess: The first density matrix is obtained in terms of atomic orbitals
               and electronic configurations assigned to each atomic kind

 Guess for atomic kind: Ne

 Electronic structure
    Total number of core electrons                                          2.00
    Total number of valence electrons                                       8.00
    Total number of electrons                                              10.00
    Multiplicity                                                   not specified
    S   [  2.00] 2.00
    P      6.00


 *******************************************************************************
                  Iteration          Convergence                     Energy [au]
 *******************************************************************************
                          1         2.21725                     -34.395595154519
                          2         1.69203                     -34.426384029621
                          3        0.132051                     -34.726866950158
                          4        0.244020E-02                 -34.728228058816
                          5        0.114122E-02                 -34.728228426734
                          6        0.741395E-03                 -34.728228486254
                          7        0.112358E-04                 -34.728228529704
                          8        0.439652E-05                 -34.728228529712
                          9        0.184490E-07                 -34.728228529714

 Energy components [Hartree]           Total Energy ::          -34.728228529714
                                        Band Energy ::           -5.550708229874
                                     Kinetic Energy ::           28.176481613636
                                   Potential Energy ::          -62.904710143350
                                      Virial (-V/T) ::            2.232525373676
                                        Core Energy ::          -59.931541826813
                                          XC Energy ::           -5.796430702357
                                     Coulomb Energy ::           30.999743999456
                       Total Pseudopotential Energy ::          -88.136879734736
                       Local Pseudopotential Energy ::          -89.988777237006
                    Nonlocal Pseudopotential Energy ::            1.851897502270
                                        Confinement ::            0.288562942876

 Orbital energies  State     L     Occupation   Energy[a.u.]          Energy[eV]

                       1     0          2.000      -1.328206          -36.142331

                       1     1          6.000      -0.482383          -13.126298


 Total Electron Density at R=0:                                         0.000001
 Re-scaling the density matrix to get the right number of electrons
                  # Electrons              Trace(P)               Scaling factor
                           32                32.000                        1.000


 SCF WAVEFUNCTION OPTIMIZATION

  Step     Update method      Time    Convergence         Total energy    Change
  ------------------------------------------------------------------------------
     1 NoMix/Diag. 0.50E-01    1.2     0.01737384      -139.6734136868 -1.40E+02
     2 Broy./Diag. 0.50E-01    1.2     0.00065144      -138.6938295908  9.80E-01
     3 Broy./Diag. 0.50E-01    1.2     0.00821023      -139.1866448364 -4.93E-01
     4 Broy./Diag. 0.50E-01    1.2     0.00000445      -139.6832737101 -4.97E-01
     5 Broy./Diag. 0.50E-01    1.2     0.00028163      -139.6536611892  2.96E-02
     6 Broy./Diag. 0.50E-01    1.2     0.00000208      -139.6710444858 -1.74E-02
     7 Broy./Diag. 0.50E-01    1.2     0.00003926      -139.6719055397 -8.61E-04
     8 Broy./Diag. 0.50E-01    1.2     0.00000020      -139.6743370115 -2.43E-03
     9 Broy./Diag. 0.50E-01    1.2     0.00000211      -139.6743910868 -5.41E-05
    10 Broy./Diag. 0.50E-01    1.2     0.00000007      -139.6745146728 -1.24E-04
    11 Broy./Diag. 0.50E-01    1.2     0.00000045      -139.6744510324  6.36E-05
    12 Broy./Diag. 0.50E-01    1.2     0.00000001      -139.6744296751  2.14E-05
    13 Broy./Diag. 0.50E-01    1.2     0.00000010      -139.6744520653 -2.24E-05
    14 Broy./Diag. 0.50E-01    1.2     0.00000003      -139.6744567353 -4.67E-06
    15 Broy./Diag. 0.50E-01    1.2     0.00000003      -139.6744505317  6.20E-06
    16 Broy./Diag. 0.50E-01    1.2     0.00000004      -139.6744476366  2.90E-06
    17 Broy./Diag. 0.50E-01    1.2     5.0097E-10      -139.6744501756 -2.54E-06

  *** SCF run converged in    17 steps ***


  Electronic density on regular grids:        -31.9999999997        0.0000000003
  Core density on regular grids:               32.0000000000        0.0000000000
  Total charge density on r-space grids:        0.0000000003
  Total charge density g-space grids:           0.0000000003

  Overlap energy of the core charge distribution:               0.00000000000000
  Self energy of the core charge distribution:               -380.08561417954110
  Core Hamiltonian energy:                                    105.44963217288353
  Hartree energy:                                             158.85594607795323
  Exchange-correlation energy:                                -23.89441424693873

  Total energy:                                              -139.67445017564307

 !-----------------------------------------------------------------------------!
                     Mulliken Population Analysis

 #  Atom  Element  Kind  Atomic population                           Net charge
       1     Ne       1          8.000000                             -0.000000
       2     Ne       1          8.000000                             -0.000000
       3     Ne       1          8.000000                              0.000000
       4     Ne       1          8.000000                             -0.000000
 # Total charge                             32.000000                 -0.000000

 !-----------------------------------------------------------------------------!

 !-----------------------------------------------------------------------------!
                           Hirshfeld Charges

  #Atom  Element  Kind  Ref Charge     Population                    Net charge
      1       Ne     1       8.000          8.000                         0.000
      2       Ne     1       8.000          8.000                         0.000
      3       Ne     1       8.000          8.000                         0.000
      4       Ne     1       8.000          8.000                         0.000

  Total Charge                                                            0.000
 !-----------------------------------------------------------------------------!

 KPOINTS| Band Structure Calculation
 KPOINTS| Number of k-point sets                                               1
 KPOINTS| Number of added MOs/bands                                           -1
 KPOINTS| Number of k-points in set    1                                     148
 KPOINTS| In units of b-vector [2pi/Bohr]
 KPOINTS| Special point     1 not specifi     0.000000     0.000000     0.000000
 KPOINTS| Special point     2 not specifi     0.500000     0.000000     0.500000
 KPOINTS| Special point     3 not specifi     0.625000     0.250000     0.625000
 KPOINTS| Special point     4 not specifi     0.000000     0.000000     0.000000
 KPOINTS| Time for k-point line                                            0.585

 ENERGY| Total FORCE_EVAL ( QS ) energy [hartree]           -139.674450175643074

 -------------------------------------------------------------------------------
 -                                                                             -
 -                                DBCSR STATISTICS                             -
 -                                                                             -
 -------------------------------------------------------------------------------
 COUNTER                                    TOTAL       BLAS       SMM       ACC
 flops inhomo. stacks                           0       0.0%      0.0%      0.0%
 flops total                         0.000000E+00       0.0%      0.0%      0.0%
 flops max/rank                      0.000000E+00       0.0%      0.0%      0.0%
 matmuls inhomo. stacks                         0       0.0%      0.0%      0.0%
 matmuls total                                  0       0.0%      0.0%      0.0%
 number of processed stacks                     0       0.0%      0.0%      0.0%
 average stack size                                     0.0       0.0       0.0
 marketing flops                     0.000000E+00
 -------------------------------------------------------------------------------
 -                                                                             -
 -                      DBCSR MESSAGE PASSING PERFORMANCE                      -
 -                                                                             -
 -------------------------------------------------------------------------------
 ROUTINE             CALLS      AVE VOLUME [Bytes]
 MP_Bcast                1                     12.
 MP_Allreduce           19                     21.
 MP_Alltoall        369172                   1376.
 -------------------------------------------------------------------------------

 -------------------------------------------------------------------------------
 -                                                                             -
 -                                DBM STATISTICS                               -
 -                                                                             -
 -------------------------------------------------------------------------------
    M  x    N  x    K                                          COUNT     PERCENT
 -------------------------------------------------------------------------------

 -------------------------------------------------------------------------------
 -                                                                             -
 -                                GRID STATISTICS                              -
 -                                                                             -
 -------------------------------------------------------------------------------
 LP    KERNEL             BACKEND                              COUNT     PERCENT
 4     collocate ortho    CPU                                  39816      51.42%
 4     integrate ortho    CPU                                  37604      48.56%
 0     collocate general  CPU                                      8       0.01%
 0     integrate general  CPU                                      4       0.01%
 -------------------------------------------------------------------------------

 MEMORY| Estimated peak process memory [MiB]                                 318

 -------------------------------------------------------------------------------
 ----                             MULTIGRID INFO                            ----
 -------------------------------------------------------------------------------
 count for grid        1:          16836          cutoff [a.u.]          500.00
 count for grid        2:           3404          cutoff [a.u.]          166.67
 count for grid        3:           4636          cutoff [a.u.]           55.56
 count for grid        4:            160          cutoff [a.u.]           18.52
 total gridlevel count  :          25036

 -------------------------------------------------------------------------------
 -                                                                             -
 -                         MESSAGE PASSING PERFORMANCE                         -
 -                                                                             -
 -------------------------------------------------------------------------------

 ROUTINE             CALLS      AVE VOLUME [Bytes]
 MP_Group                6
 MP_Bcast           161312                  26868.
 MP_Allreduce        10505                    207.
 MP_Sync                 4
 MP_Alltoall           311                3995684.
 MP_SendRecv           518                 258780.
 MP_ISendRecv          483                 252096.
 MP_Wait            110711
 MP_comm_split           4
 MP_ISend           117644                    625.
 MP_IRecv           187520                    395.
 -------------------------------------------------------------------------------


 -------------------------------------------------------------------------------
 -                                                                             -
 -                           R E F E R E N C E S                               -
 -                                                                             -
 -------------------------------------------------------------------------------
 
 CP2K version 2025.1 (Development Version), the CP2K developers group (2025).
 CP2K is freely available from https://www.cp2k.org/ .
 
 T. D. Kuehne, M. Iannuzzi, M. Del Ben, V. V. Rybkin, P. Seewald, F. Stein, T. 
 Laino, R. Z. Khaliullin, O. Schuett, F. Schiffmann, D. Golze, J. Wilhelm, S. 
 Chulkov, M. H. Bani-Hashemian, V. Weber, U. Borstnik, M. Taillefumier, A. S. 
 Jakobovits, A. Lazzaro, H. Pabst, T. Mueller, R. Schade, M. Guidon, S. 
 Andermatt, N. Holmberg, G. K. Schenter, A. Hehn, A. Bussy, F. Belleflamme, G. 
 Tabacchi, A. Gloess, M. Lass, I. Bethune, C. J. Mundy, C. Plessl, M. Watkins, 
 J. VandeVondele, M. Krack, J. Hutter.
 J. Chem. Phys. 152, 194103 (2020).
 CP2K: An electronic structure and molecular dynamics software package - 
 Quickstep: Efficient and accurate electronic structure calculations.
 https://doi.org/10.1063/5.0007045

 O. Schuett, P. Messmer, J. Hutter, J. VandeVondele.
 Electronic Structure Calculations on Graphics Processing Units, 173-190 (2016).
 GPU-Accelerated Sparse Matrix-Matrix Multiplication for Linear Scaling Density 
 Functional Theory.
 https://doi.org/10.1002/9781118670712.ch8

 J. Hutter, M. Iannuzzi, F. Schiffmann, J. VandeVondele.
 WIREs Comput Mol Sci. 4, 15-25 (2014).
 CP2K: atomistic simulations of condensed matter systems.
 https://doi.org/10.1002/wcms.1159

 U. Borstnik, J. VandeVondele, V. Weber, J. Hutter.
 Parallel Comput. 40, 47-58 (2014).
 Sparse matrix multiplication: The distributed block-compressed sparse row 
 library.
 https://doi.org/10.1016/j.parco.2014.03.012

 J. VandeVondele, J. Hutter.
 J. Chem. Phys. 127, 114105 (2007).
 Gaussian basis sets for accurate calculations on molecular systems in gas and 
 condensed phases.
 https://doi.org/10.1063/1.2770708

 J. VandeVondele, M. Krack, F. Mohamed, M. Parrinello, T. Chassaing, J. Hutter.
 Comput. Phys. Commun. 167, 103-128 (2005).
 QUICKSTEP: Fast and accurate density functional calculations using a mixed 
 Gaussian and plane waves approach.
 https://doi.org/10.1016/j.cpc.2004.12.014

 M. Krack.
 Theor. Chem. Acc. 114, 145-152 (2005).
 Pseudopotentials for H to Kr optimized for gradient-corrected 
 exchange-correlation functionals.
 https://doi.org/10.1007/s00214-005-0655-y

 M. Frigo, S. G. Johnson.
 Proc. IEEE 93, 216-231 (2005).
 The design and implementation of FFTW3.
 https://doi.org/10.1109/JPROC.2004.840301

 C. Hartwigsen, S. Goedecker, J. Hutter.
 Phys. Rev. B 58, 3641-3662 (1998).
 Relativistic separable dual-space Gaussian pseudopotentials from H to Rn.
 https://doi.org/10.1103/PhysRevB.58.3641

 G. Lippert, J. Hutter, M. Parrinello.
 Mol. Phys. 92, 477-487 (1997).
 A hybrid Gaussian and plane wave density functional scheme.
 https://doi.org/10.1080/002689797170220

 S. Goedecker, M. Teter, J. Hutter.
 Phys. Rev. B 54, 1703-1710 (1996).
 Separable dual-space Gaussian pseudopotentials.
 https://doi.org/10.1103/PhysRevB.54.1703

 J. P. Perdew, K. Burke, M. Ernzerhof.
 Phys. Rev. Lett. 77, 3865-3868 (1996).
 Generalized gradient approximation made simple.
 https://doi.org/10.1103/PhysRevLett.77.3865


 -------------------------------------------------------------------------------
 -                                                                             -
 -                                T I M I N G                                  -
 -                                                                             -
 -------------------------------------------------------------------------------
 SUBROUTINE                       CALLS  ASD         SELF TIME        TOTAL TIME
                                MAXIMUM       AVERAGE  MAXIMUM  AVERAGE  MAXIMUM
 CP2K                                 1  1.0    0.009    0.012   21.771   21.771
 qs_energies                          1  2.0    0.004    0.026   20.613   20.625
 scf_env_do_scf                       1  3.0    0.000    0.000   19.913   19.913
 scf_env_do_scf_inner_loop           17  4.0    0.003    0.004   19.913   19.913
 do_general_diag_kp                  18  5.8    0.095    0.100   18.923   18.972
 qs_scf_new_mos_kp                   17  5.0    0.000    0.000   18.371   18.414
 copy_dbcsr_to_fm                 18187  6.9    0.181    0.192    8.484    8.584
 dbcsr_complete_redistribute      26891  8.3    0.857    0.938    7.898    8.154
 dbcsr_desymmetrize_deep          36187  7.4    0.539    0.575    4.243    4.683
 kpoint_density_transform            17  7.0    0.030    0.032    4.182    4.183
 copy_fm_to_dbcsr                  8704  8.0    0.049    0.052    2.651    2.830
 mp_alltoall_i22                  63078  8.8    1.985    2.657    1.985    2.657
 dbcsr_finalize                   66278  8.6    0.305    0.325    2.175    2.321
 cp_fm_start_copy_general         26704  7.3    0.375    0.555    2.252    2.271
 rskp_transform                    9000  6.9    1.373    2.172    1.373    2.172
 mp_alltoall_d11v                189234  9.3    1.692    1.755    1.692    1.755
 mp_cart_sub                      36376  8.9    1.469    1.477    1.469    1.477
 dbcsr_merge_all                  26891 10.3    0.690    0.813    1.217    1.340
 mp_alltoall_i11v                116860  9.0    1.097    1.118    1.097    1.118
 hybrid_alltoall_any              36187  8.4    0.143    0.156    1.067    1.100
 create_qs_kind_set                   1  2.0    0.000    0.000    1.015    1.015
 read_qs_kind                         1  3.0    0.613    0.619    1.015    1.015
 transform_dmat                    4352  8.0    0.622    0.999    0.622    0.999
 mp_allgather_i                   53408  8.3    0.919    0.985    0.919    0.985
 mp_cart_create                   18194  8.9    0.809    0.822    0.809    0.822
 qs_ks_update_qs_env                 17  5.0    0.000    0.000    0.741    0.801
 mp_bcast_iv                     106970  8.3    0.655    0.749    0.655    0.749
 rebuild_ks_matrix                   17  6.0    0.000    0.000    0.656    0.715
 qs_ks_build_kohn_sham_matrix        17  7.0    0.007    0.007    0.655    0.715
 dbcsr_work_create                63078  8.8    0.363    0.379    0.618    0.633
 cp_cfm_geeig                       581  6.8    0.004    0.004    0.553    0.564
 dbcsr_create_new                 97759  8.3    0.425    0.447    0.507    0.530
 parser_read_line                134097  4.0    0.044    0.046    0.459    0.463
 dbcsr_work_destroy_all           63078  9.8    0.296    0.300    0.444    0.448
 tree_to_linear_d                 26891 11.3    0.421    0.436    0.421    0.436
 dbcsr_data_new                  674892  9.7    0.424    0.435    0.424    0.435
 cp_cfm_heevd                       581  7.8    0.001    0.001    0.425    0.434
 cp_cfm_heevd_base                  581  8.8    0.424    0.433    0.424    0.433
 dbcsr_iterator_start            180556  9.0    0.356    0.362    0.415    0.422
 parser_read_line_low               153  5.2    0.048    0.208    0.415    0.421
 fft_wrap_pw1pw2                    311 10.0    0.002    0.002    0.409    0.413
 qs_rho_update_rho_low               18  5.0    0.000    0.000    0.407    0.409
 calculate_rho_elec                  18  6.0    0.013    0.014    0.407    0.409
 broadcast_input_information        153  6.2    0.099    0.103    0.368    0.398
 copy_dbcsr_to_fm_bc              18187  7.9    0.174    0.183    0.387    0.394
 fft_wrap_pw1pw2_500                206 11.3    0.028    0.029    0.375    0.378
 copy_fm_to_dbcsr_bc               8704  9.0    0.108    0.112    0.365    0.373
 dbcsr_data_release              927822 10.2    0.332    0.336    0.332    0.336
 fft3d_ps                           311 12.0    0.147    0.154    0.331    0.335
 sum_up_and_integrate                17  8.0    0.000    0.000    0.270    0.330
 integrate_v_rspace                  17  9.0    0.003    0.005    0.269    0.329
 qs_vxc_create                       17  8.0    0.000    0.000    0.297    0.297
 xc_vxc_pw_create                    17  9.0    0.013    0.013    0.297    0.297
 dbcsr_destroy                    91401  8.2    0.147    0.151    0.276    0.289
 dbcsr_iterator_stop             180556  9.0    0.228    0.230    0.269    0.271
 density_rs2pw                       18  7.0    0.001    0.001    0.226    0.257
 dbcsr_copy                       15249  7.9    0.046    0.049    0.213    0.247
 mp_bcast_im                      53408  8.3    0.194    0.221    0.194    0.221
 gspace_mixing                       16  5.0    0.010    0.011    0.213    0.213
 grid_collocate_task_list            18  7.0    0.166    0.208    0.166    0.208
 quick_finalize                   36187  9.4    0.107    0.110    0.188    0.192
 dbcsr_copy_into_existing          8891  9.9    0.105    0.138    0.157    0.189
 mp_waitall_1                    110711  8.3    0.099    0.187    0.099    0.187
 xc_pw_derive                       102 11.0    0.000    0.000    0.184    0.187
 mp_bcast_i_src                     612  7.2    0.156    0.186    0.156    0.186
 transfer_rs2pw                      74  8.0    0.001    0.001    0.154    0.186
 grid_integrate_task_list            17 10.0    0.121    0.179    0.121    0.179
 broyden_mixing                      16  6.0    0.164    0.168    0.168    0.171
 mp_alltoall_z22v                   311 14.0    0.158    0.166    0.158    0.166
 transfer_rs2pw_500                  20  8.8    0.046    0.050    0.128    0.162
 xc_rho_set_and_dset_create          17 10.0    0.010    0.011    0.156    0.161
 potential_pw2rs                     17 10.0    0.001    0.001    0.145    0.146
 mp_comm_free                     54606  8.9    0.128    0.142    0.128    0.142
 write_kpoints_restart               17  5.0    0.001    0.002    0.130    0.131
 xc_pw_divergence                    17 10.0    0.000    0.000    0.125    0.127
 mp_sendrecv_dv                     518 10.0    0.098    0.126    0.098    0.126
 cp_fm_finish_copy_general        11028  7.7    0.105    0.106    0.117    0.120
 mp_bcast_am_src                    153  7.2    0.099    0.107    0.110    0.117
 x_to_yz                            170 13.2    0.014    0.017    0.101    0.106
 transfer_pw2rs                      69 10.9    0.000    0.000    0.101    0.101
 yz_to_x                            141 12.8    0.009    0.009    0.081    0.086
 evaluate_core_matrix_traces         17  6.0    0.000    0.000    0.085    0.085
 calculate_ptrace_kp                 34  7.0    0.005    0.005    0.085    0.085
 dbcsr_dot                         6359  8.0    0.028    0.031    0.081    0.082
 kpoint_density_matrices             17  7.0    0.007    0.007    0.079    0.080
 transfer_pw2rs_500                  18 11.8    0.040    0.043    0.075    0.076
 parallel_gemm_fm                  2176  8.0    0.002    0.002    0.070    0.072
 dbcsr_sort_indices               73195 10.8    0.068    0.071    0.068    0.071
 cp_cfm_triangular_multiply        1743  7.8    0.069    0.071    0.069    0.071
 parallel_gemm_fm_gemm             2176  9.0    0.002    0.002    0.068    0.070
 dbcsr_set                        52440  8.1    0.048    0.049    0.064    0.068
 cp_fm_gemm                        2176 10.0    0.066    0.068    0.066    0.068
 topology_control                     1  2.0    0.000    0.000    0.064    0.064
 dbcsr_iterator_seek             180556 10.0    0.060    0.062    0.060    0.062
 xc_functional_eval                  17 11.0    0.000    0.000    0.055    0.059
 pbe_lda_eval                        17 12.0    0.054    0.059    0.054    0.059
 merge_index                      26891 11.3    0.051    0.057    0.051    0.057
 dbcsr_reserve_all_blocks          8704 10.0    0.012    0.014    0.052    0.055
 mp_sum_d                          6917  8.5    0.047    0.053    0.047    0.053
 dbcsr_make_index_exist           97759  9.3    0.050    0.053    0.050    0.053
 mp_irecv_iv                     106816  8.3    0.007    0.052    0.007    0.052
 init_scf_run                         1  3.0    0.000    0.000    0.051    0.052
 scf_env_initial_rho_setup            1  4.0    0.000    0.000    0.051    0.052
 self_consistency_check              17  5.0    0.005    0.005    0.049    0.050
 mp_isend_dv                      27296  8.2    0.044    0.048    0.044    0.048
 dbcsr_reserve_blocks             10117 10.3    0.036    0.039    0.045    0.048
 cp_fm_write_unformatted            187  6.0    0.035    0.044    0.035    0.046
 qs_energies_init_hamiltonians        1  3.0    0.000    0.000    0.045    0.045
 read_cell_cif                        2  4.5    0.002    0.006    0.044    0.044
 dbcsr_switch_data_area           36187 10.4    0.033    0.033    0.043    0.044
 cp_sm_mix                         3179  6.0    0.010    0.012    0.040    0.041
 mp_isend_iv                      60232  8.3    0.010    0.039    0.010    0.039
 qs_init_subsys                       1  2.0    0.001    0.002    0.038    0.038
 coordinate_control                   1  3.0    0.001    0.001    0.038    0.038
 coordinate_control_READ_COORDI       1  4.0    0.000    0.000    0.037    0.038
 read_coordinate_cif                  1  5.0    0.002    0.002    0.037    0.038
 mp_sum_dv                          312  3.2    0.019    0.037    0.019    0.037
 cp_fm_cleanup_copy_general       19088  7.0    0.023    0.023    0.035    0.036
 qs_env_setup                         1  3.0    0.000    0.000    0.035    0.036
 qs_env_rebuild_pw_env                2  3.5    0.000    0.000    0.035    0.035
 pw_env_rebuild                       1  5.0    0.000    0.000    0.035    0.035
 pw_grid_setup                        4  6.0    0.000    0.000    0.031    0.031
 pw_grid_setup_internal               4  7.0    0.001    0.001    0.030    0.031
 cp_cfm_triangular_invert           581  7.8    0.026    0.026    0.026    0.026
 pw_scatter_p                       170 12.2    0.026    0.026    0.026    0.026
 mp_irecv_im2                     53408  8.3    0.003    0.026    0.003    0.026
 mp_isendrecv_dv                    483 12.9    0.009    0.025    0.009    0.025
 cp_cfm_cholesky_decompose          581  7.8    0.024    0.025    0.024    0.025
 pw_poisson_solve                    17  8.0    0.000    0.000    0.024    0.024
 build_core_hamiltonian_matrix        1  4.0    0.001    0.001    0.021    0.024
 restraint_control                    1  2.0    0.000    0.000    0.012    0.024
 mp_sum_i                             4  2.8    0.012    0.024    0.012    0.024
 mp_max_d                          3181  7.0    0.022    0.024    0.022    0.024
 dbcsr_get_data_size_used         63078  9.8    0.021    0.023    0.021    0.023
 cp_dbcsr_alloc_block_from_nbl     1413  5.2    0.011    0.016    0.017    0.022
 qs_env_update_s_mstruct              1  4.0    0.000    0.000    0.021    0.022
 fft_wrap_pw1pw2_170                 35 10.5    0.001    0.001    0.021    0.022
 dbcsr_distribution_new           26893  8.6    0.019    0.021    0.019    0.021
 transfer_rs2pw_170                  18  9.0    0.007    0.007    0.018    0.021
 dbcsr_make_dbcsr_index           73195 10.8    0.018    0.020    0.018    0.020
 pw_grid_sort                         4  8.0    0.013    0.014    0.019    0.019
 dbcsr_zero                       52440  9.1    0.017    0.019    0.017    0.019
 kpoint_set_mo_occupation            17  7.0    0.005    0.005    0.015    0.019
 transfer_pw2rs_170                  17 12.0    0.009    0.009    0.019    0.019
 dbcsr_data_copy_aa2              26891 11.3    0.017    0.019    0.017    0.019
 calculate_rho_core                   1  5.0    0.001    0.001    0.017    0.018
 mp_isend_im2                     30116  8.3    0.004    0.018    0.004    0.018
 scf_post_calculation_gpw             1  3.0    0.000    0.000    0.017    0.017
 write_available_results              1  4.0    0.000    0.000    0.017    0.017
 write_mo_free_results                1  5.0    0.001    0.001    0.017    0.017
 mp_irecv_dv                      27296  8.2    0.015    0.017    0.015    0.017
 mixing_init                          1  5.0    0.016    0.017    0.017    0.017
 pw_integral_ab_c1d_c1d_gs           17  9.0    0.015    0.015    0.016    0.016
 mp_sum_dm3                          17  8.0    0.010    0.014    0.010    0.014
 pw_gather_p                        141 11.8    0.013    0.013    0.013    0.013
 grid_free_task_list                  1  2.0    0.010    0.010    0.010    0.010
 cp_cfm_scale_and_add_fm           2324  6.8    0.009    0.009    0.009    0.009
 mixing_allocate                      1  3.0    0.001    0.001    0.007    0.009
 mp_sum_l                           429  2.1    0.007    0.009    0.007    0.009
 pw_copy                            255 10.5    0.007    0.008    0.007    0.008
 calculate_hirshfeld_normalizat       1  6.0    0.001    0.003    0.007    0.007
 hirshfeld_integration                1  6.0    0.001    0.003    0.007    0.007
 pw_derive                          153 11.3    0.007    0.007    0.007    0.007
 fft_wrap_pw1pw2_60                  35 10.5    0.000    0.000    0.007    0.007
 build_overlap_matrix_low             1  5.0    0.003    0.003    0.006    0.007
 sort_shells                          4  9.0    0.006    0.006    0.006    0.006
 cp_cfm_to_cfm_columns              581  7.8    0.006    0.006    0.006    0.006
 mp_maxloc_dv                       881  1.0    0.005    0.006    0.005    0.006
 transfer_rs2pw_60                   18  9.0    0.002    0.002    0.005    0.006
 build_kinetic_matrix_low             1  5.0    0.002    0.002    0.005    0.006
 calculate_first_density_matrix       1  5.0    0.000    0.000    0.004    0.005
 transfer_pw2rs_60                   17 12.0    0.002    0.002    0.005    0.005
 pw_poisson_set                      18  8.8    0.000    0.000    0.005    0.005
 calculate_atomic_block_dm            1  6.0    0.001    0.001    0.004    0.005
 mp_bcast_av                        440  1.0    0.002    0.003    0.004    0.005
 pw_grid_assign                       4  8.0    0.004    0.004    0.005    0.005
 qs_env_rebuild_rho                   1  5.0    0.000    0.000    0.003    0.004
 qs_rho_rebuild                       1  6.0    0.001    0.001    0.003    0.004
 fft_wrap_pw1pw2_20                  35 10.5    0.000    0.000    0.004    0.004
 pw_copy_from_array                 170 12.2    0.004    0.004    0.004    0.004
 cp_cfm_to_fm                       581  6.8    0.004    0.004    0.004    0.004
 cp_fm_create                       440  3.9    0.003    0.004    0.003    0.004
 pw_axpy                            174  9.3    0.003    0.003    0.003    0.003
 mp_max_i                           450  1.6    0.003    0.003    0.003    0.003
 kpoint_initialize_mos                2  2.5    0.000    0.000    0.003    0.003
 init_cube_info                       4  6.0    0.003    0.003    0.003    0.003
 mp_sum_dm                           16  7.0    0.002    0.003    0.002    0.003
 pw_copy_to_array                   141 11.8    0.003    0.003    0.003    0.003
 mp_bcast_i                         441  2.0    0.002    0.003    0.002    0.003
 mp_bcast_iv_src                    153  7.2    0.002    0.003    0.002    0.003
 transfer_rs2pw_20                   18  9.0    0.001    0.001    0.002    0.002
 transfer_pw2rs_20                   17 12.0    0.001    0.001    0.002    0.002
 -------------------------------------------------------------------------------

 The number of warnings for this run is : 1
 
 -------------------------------------------------------------------------------
  **** **** ******  **  PROGRAM ENDED AT                 2025-08-03 17:44:25.589
 ***** ** ***  *** **   PROGRAM RAN ON                              i06r01c04s03
 **    ****   ******    PROGRAM RAN BY                                   di38fab
 ***** **    ** ** **   PROGRAM PROCESS ID                               1220824
  **** **  *******  **  PROGRAM STOPPED IN /hppfs/scratch/04/di38fab/09_GTH/Delt
                                           a_Set/Ne/DZVP-MOLOPT-PBE-GTH/8x8x8
