 DBCSR| CPU Multiplication driver                                           BLAS (U)
 DBCSR| Multrec recursion limit                                              512 (U)
 DBCSR| Multiplication stack size                                           1000 (D)
 DBCSR| Maximum elements for images                                    UNLIMITED (U)
 DBCSR| Multiplicative factor virtual images                                   1 (U)
 DBCSR| Use multiplication densification                                       T (D)
 DBCSR| Multiplication size stacks                                             3 (U)
 DBCSR| Use memory pool for CPU allocation                                     F (U)
 DBCSR| Number of 3D layers                                               SINGLE (U)
 DBCSR| Use MPI memory allocation                                              F (U)
 DBCSR| Use RMA algorithm                                                      F (U)
 DBCSR| Use Communication thread                                               T (U)
 DBCSR| Communication thread load                                             45 (D)
 DBCSR| MPI: My process id                                                     0
 DBCSR| MPI: Number of processes                                               8
 DBCSR| OMP: Current number of threads                                        12
 DBCSR| OMP: Max number of threads                                            12
 DBCSR| Split modifier for TAS multiplication algorithm                  1.0E+00 (U)


  **** **** ******  **  PROGRAM STARTED AT               2025-08-04 22:27:30.276
 ***** ** ***  *** **   PROGRAM STARTED ON                          i01r11c02s01
 **    ****   ******    PROGRAM STARTED BY                               di38fab
 ***** **    ** ** **   PROGRAM PROCESS ID                               1323629
  **** **  *******  **  PROGRAM STARTED IN /hppfs/scratch/04/di38fab/09_GTH/Delt
                                           a_Set/F/aug-DZVP-MOLOPT-GTH-tier-2/8x
                                           8x8

 CP2K| version string:                 CP2K version 2025.1 (Development Version)
 CP2K| source code revision number:                                  git:3130539
 CP2K| cp2kflags: omp libint fftw3 libxc parallel scalapack max_contr=4         
 CP2K| is freely available from                            https://www.cp2k.org/
 CP2K| Program compiled at                         Tue Jun  3 16:14:32 CEST 2025
 CP2K| Program compiled on                                               login01
 CP2K| Program compiled for                                        Supermuc-foss
 CP2K| Data directory path                  /hppfs/work/pn36zo/di38fab/cp2k/data
 CP2K| Input file name                                                    GW.inp

 GLOBAL| Force Environment number                                              1
 GLOBAL| Basis set file name            /hppfs/scratch/04/di38fab/09_GTH/BASIS_A
 GLOBAL| Potential file name            /hppfs/work/pn36zo/di38fab/cp2k/data/GTH
 GLOBAL| MM Potential file name                                     MM_POTENTIAL
 GLOBAL| Coordinate file name                                              F.cif
 GLOBAL| Method name                                                        CP2K
 GLOBAL| Project name                                                       WSe2
 GLOBAL| Run type                                                         ENERGY
 GLOBAL| FFT library                                                       FFTW3
 GLOBAL| Diagonalization library                                       ScaLAPACK
 GLOBAL| Cholesky decomposition library                                ScaLAPACK
 GLOBAL| DGEMM library                                                      BLAS
 GLOBAL| Orthonormality check for eigenvectors                          DISABLED
 GLOBAL| Matrix multiplication library                                 ScaLAPACK
 GLOBAL| All-to-all communication in single precision                          F
 GLOBAL| FFTs using library dependent lengths                                  F
 GLOBAL| Grid backend                                                       AUTO
 GLOBAL| Global print level                                               MEDIUM
 GLOBAL| MPI I/O enabled                                                       T
 GLOBAL| Total number of message passing processes                             8
 GLOBAL| Number of threads for this process                                   12
 GLOBAL| This output is from process                                           0
 GLOBAL| OpenMP stack size per thread (OMP_STACKSIZE)                    default
 GLOBAL| CPU model name             Intel(R) Xeon(R) Platinum 8174 CPU @ 3.10GHz

 MEMORY| system memory details [Kb]
 MEMORY|                        rank 0           min           max       average
 MEMORY| MemTotal             98436664      98436664      98436664      98436664
 MEMORY| MemFree              84594488      84594488      84613280      84603884
 MEMORY| Buffers                     0             0             0             0
 MEMORY| Cached                2393708       2393708       2453224       2423466
 MEMORY| Slab                  1300416       1291976       1300416       1296196
 MEMORY| SReclaimable           279020        270028        279020        274524
 MEMORY| MemLikelyFree        87267216      87267216      87336532      87301874


 *** Fundamental physical constants (SI units) ***

 *** Literature: B. J. Mohr and B. N. Taylor,
 ***             CODATA recommended values of the fundamental physical
 ***             constants: 2006, Web Version 5.1
 ***             http://physics.nist.gov/constants

 Speed of light in vacuum [m/s]                             2.99792458000000E+08
 Magnetic constant or permeability of vacuum [N/A**2]       1.25663706143592E-06
 Electric constant or permittivity of vacuum [F/m]          8.85418781762039E-12
 Planck constant (h) [J*s]                                  6.62606896000000E-34
 Planck constant (h-bar) [J*s]                              1.05457162825177E-34
 Elementary charge [C]                                      1.60217648700000E-19
 Electron mass [kg]                                         9.10938215000000E-31
 Electron g factor [ ]                                     -2.00231930436220E+00
 Proton mass [kg]                                           1.67262163700000E-27
 Fine-structure constant                                    7.29735253760000E-03
 Rydberg constant [1/m]                                     1.09737315685270E+07
 Avogadro constant [1/mol]                                  6.02214179000000E+23
 Boltzmann constant [J/K]                                   1.38065040000000E-23
 Atomic mass unit [kg]                                      1.66053878200000E-27
 Bohr radius [m]                                            5.29177208590000E-11

 *** Conversion factors ***

 [u] -> [a.u.]                                              1.82288848426455E+03
 [Angstrom] -> [Bohr] = [a.u.]                              1.88972613288564E+00
 [a.u.] = [Bohr] -> [Angstrom]                              5.29177208590000E-01
 [a.u.] -> [s]                                              2.41888432650478E-17
 [a.u.] -> [fs]                                             2.41888432650478E-02
 [a.u.] -> [J]                                              4.35974393937059E-18
 [a.u.] -> [N]                                              8.23872205491840E-08
 [a.u.] -> [K]                                              3.15774647902944E+05
 [a.u.] -> [kJ/mol]                                         2.62549961709828E+03
 [a.u.] -> [kcal/mol]                                       6.27509468713739E+02
 [a.u.] -> [Pa]                                             2.94210107994716E+13
 [a.u.] -> [bar]                                            2.94210107994716E+08
 [a.u.] -> [atm]                                            2.90362800883016E+08
 [a.u.] -> [eV]                                             2.72113838565563E+01
 [a.u.] -> [Hz]                                             6.57968392072181E+15
 [a.u.] -> [1/cm] (wave numbers)                            2.19474631370540E+05
 [a.u./Bohr**2] -> [1/cm]                                   5.14048714338585E+03
 

 CELL_TOP| Volume [angstrom^3]:                                       156.187300
 CELL_TOP| Vector a [angstrom     6.163     0.000     0.000   |a| =     6.163100
 CELL_TOP| Vector b [angstrom     0.000     3.685     0.000   |b| =     3.685050
 CELL_TOP| Vector c [angstrom    -0.817     0.000     6.877   |c| =     6.925430
 CELL_TOP| Angle (b,c), alpha [degree]:                                90.000000
 CELL_TOP| Angle (a,c), beta  [degree]:                                96.775380
 CELL_TOP| Angle (a,b), gamma [degree]:                                90.000000
 CELL_TOP| Numerically orthorhombic:                                          NO
 CELL_TOP| Periodicity                                                       XYZ

 CELL_CIF| Volume [angstrom^3]:                                       156.187300
 CELL_CIF| Vector a [angstrom     6.163     0.000     0.000   |a| =     6.163100
 CELL_CIF| Vector b [angstrom     0.000     3.685     0.000   |b| =     3.685050
 CELL_CIF| Vector c [angstrom    -0.817     0.000     6.877   |c| =     6.925430
 CELL_CIF| Angle (b,c), alpha [degree]:                                90.000000
 CELL_CIF| Angle (a,c), beta  [degree]:                                96.775380
 CELL_CIF| Angle (a,b), gamma [degree]:                                90.000000
 CELL_CIF| Numerically orthorhombic:                                          NO
 CELL_CIF| Periodicity                                                       XYZ

 GENERATE|  Preliminary Number of Bonds generated:                             0
 GENERATE|  Achieved consistency in connectivity generation.

 CELL| Volume [angstrom^3]:                                           156.187300
 CELL| Vector a [angstrom]:       6.163     0.000     0.000   |a| =     6.163100
 CELL| Vector b [angstrom]:       0.000     3.685     0.000   |b| =     3.685050
 CELL| Vector c [angstrom]:      -0.817     0.000     6.877   |c| =     6.925430
 CELL| Angle (b,c), alpha [degree]:                                    90.000000
 CELL| Angle (a,c), beta  [degree]:                                    96.775380
 CELL| Angle (a,b), gamma [degree]:                                    90.000000
 CELL| Numerically orthorhombic:                                              NO
 CELL| Periodicity                                                           XYZ

 CELL_REF| Volume [angstrom^3]:                                       156.187300
 CELL_REF| Vector a [angstrom     6.163     0.000     0.000   |a| =     6.163100
 CELL_REF| Vector b [angstrom     0.000     3.685     0.000   |b| =     3.685050
 CELL_REF| Vector c [angstrom    -0.817     0.000     6.877   |c| =     6.925430
 CELL_REF| Angle (b,c), alpha [degree]:                                90.000000
 CELL_REF| Angle (a,c), beta  [degree]:                                96.775380
 CELL_REF| Angle (a,b), gamma [degree]:                                90.000000
 CELL_REF| Numerically orthorhombic:                                          NO
 CELL_REF| Periodicity                                                       XYZ

 *** WARNING in cryssym.F:180 :: Symmetry library SPGLIB not available ***


 *******************************************************************************
                                    Kpoints
 *******************************************************************************
 BRILLOUIN| K-point scheme                                        Monkhorst-Pack
 BRILLOUIN| K-Point grid                                             8    8    8
 BRILLOUIN| Accuracy in Symmetry determination                      0.100000E-05
 BRILLOUIN| K-Point point group symmetrization                               OFF
 BRILLOUIN| Wavefunction type                                            COMPLEX
 BRILLOUIN| List of Kpoints [2 Pi/Bohr]                                      256
 BRILLOUIN| Number           Weight            X              Y              Z
 BRILLOUIN|     1           0.00391       -0.43750       -0.43750       -0.43750
 BRILLOUIN|     2           0.00391       -0.43750       -0.43750       -0.31250
 BRILLOUIN|     3           0.00391       -0.43750       -0.43750       -0.18750
 BRILLOUIN|     4           0.00391       -0.43750       -0.43750       -0.06250
 BRILLOUIN|     5           0.00391       -0.43750       -0.43750        0.06250
 BRILLOUIN|     6           0.00391       -0.43750       -0.43750        0.18750
 BRILLOUIN|     7           0.00391       -0.43750       -0.43750        0.31250
 BRILLOUIN|     8           0.00391       -0.43750       -0.43750        0.43750
 BRILLOUIN|     9           0.00391       -0.43750       -0.31250       -0.43750
 BRILLOUIN|    10           0.00391       -0.43750       -0.31250       -0.31250
 BRILLOUIN|    11           0.00391       -0.43750       -0.31250       -0.18750
 BRILLOUIN|    12           0.00391       -0.43750       -0.31250       -0.06250
 BRILLOUIN|    13           0.00391       -0.43750       -0.31250        0.06250
 BRILLOUIN|    14           0.00391       -0.43750       -0.31250        0.18750
 BRILLOUIN|    15           0.00391       -0.43750       -0.31250        0.31250
 BRILLOUIN|    16           0.00391       -0.43750       -0.31250        0.43750
 BRILLOUIN|    17           0.00391       -0.43750       -0.18750       -0.43750
 BRILLOUIN|    18           0.00391       -0.43750       -0.18750       -0.31250
 BRILLOUIN|    19           0.00391       -0.43750       -0.18750       -0.18750
 BRILLOUIN|    20           0.00391       -0.43750       -0.18750       -0.06250
 BRILLOUIN|    21           0.00391       -0.43750       -0.18750        0.06250
 BRILLOUIN|    22           0.00391       -0.43750       -0.18750        0.18750
 BRILLOUIN|    23           0.00391       -0.43750       -0.18750        0.31250
 BRILLOUIN|    24           0.00391       -0.43750       -0.18750        0.43750
 BRILLOUIN|    25           0.00391       -0.43750       -0.06250       -0.43750
 BRILLOUIN|    26           0.00391       -0.43750       -0.06250       -0.31250
 BRILLOUIN|    27           0.00391       -0.43750       -0.06250       -0.18750
 BRILLOUIN|    28           0.00391       -0.43750       -0.06250       -0.06250
 BRILLOUIN|    29           0.00391       -0.43750       -0.06250        0.06250
 BRILLOUIN|    30           0.00391       -0.43750       -0.06250        0.18750
 BRILLOUIN|    31           0.00391       -0.43750       -0.06250        0.31250
 BRILLOUIN|    32           0.00391       -0.43750       -0.06250        0.43750
 BRILLOUIN|    33           0.00391       -0.43750        0.06250       -0.43750
 BRILLOUIN|    34           0.00391       -0.43750        0.06250       -0.31250
 BRILLOUIN|    35           0.00391       -0.43750        0.06250       -0.18750
 BRILLOUIN|    36           0.00391       -0.43750        0.06250       -0.06250
 BRILLOUIN|    37           0.00391       -0.43750        0.06250        0.06250
 BRILLOUIN|    38           0.00391       -0.43750        0.06250        0.18750
 BRILLOUIN|    39           0.00391       -0.43750        0.06250        0.31250
 BRILLOUIN|    40           0.00391       -0.43750        0.06250        0.43750
 BRILLOUIN|    41           0.00391       -0.43750        0.18750       -0.43750
 BRILLOUIN|    42           0.00391       -0.43750        0.18750       -0.31250
 BRILLOUIN|    43           0.00391       -0.43750        0.18750       -0.18750
 BRILLOUIN|    44           0.00391       -0.43750        0.18750       -0.06250
 BRILLOUIN|    45           0.00391       -0.43750        0.18750        0.06250
 BRILLOUIN|    46           0.00391       -0.43750        0.18750        0.18750
 BRILLOUIN|    47           0.00391       -0.43750        0.18750        0.31250
 BRILLOUIN|    48           0.00391       -0.43750        0.18750        0.43750
 BRILLOUIN|    49           0.00391       -0.43750        0.31250       -0.43750
 BRILLOUIN|    50           0.00391       -0.43750        0.31250       -0.31250
 BRILLOUIN|    51           0.00391       -0.43750        0.31250       -0.18750
 BRILLOUIN|    52           0.00391       -0.43750        0.31250       -0.06250
 BRILLOUIN|    53           0.00391       -0.43750        0.31250        0.06250
 BRILLOUIN|    54           0.00391       -0.43750        0.31250        0.18750
 BRILLOUIN|    55           0.00391       -0.43750        0.31250        0.31250
 BRILLOUIN|    56           0.00391       -0.43750        0.31250        0.43750
 BRILLOUIN|    57           0.00391       -0.43750        0.43750       -0.43750
 BRILLOUIN|    58           0.00391       -0.43750        0.43750       -0.31250
 BRILLOUIN|    59           0.00391       -0.43750        0.43750       -0.18750
 BRILLOUIN|    60           0.00391       -0.43750        0.43750       -0.06250
 BRILLOUIN|    61           0.00391       -0.43750        0.43750        0.06250
 BRILLOUIN|    62           0.00391       -0.43750        0.43750        0.18750
 BRILLOUIN|    63           0.00391       -0.43750        0.43750        0.31250
 BRILLOUIN|    64           0.00391       -0.43750        0.43750        0.43750
 BRILLOUIN|    65           0.00391       -0.31250       -0.43750       -0.43750
 BRILLOUIN|    66           0.00391       -0.31250       -0.43750       -0.31250
 BRILLOUIN|    67           0.00391       -0.31250       -0.43750       -0.18750
 BRILLOUIN|    68           0.00391       -0.31250       -0.43750       -0.06250
 BRILLOUIN|    69           0.00391       -0.31250       -0.43750        0.06250
 BRILLOUIN|    70           0.00391       -0.31250       -0.43750        0.18750
 BRILLOUIN|    71           0.00391       -0.31250       -0.43750        0.31250
 BRILLOUIN|    72           0.00391       -0.31250       -0.43750        0.43750
 BRILLOUIN|    73           0.00391       -0.31250       -0.31250       -0.43750
 BRILLOUIN|    74           0.00391       -0.31250       -0.31250       -0.31250
 BRILLOUIN|    75           0.00391       -0.31250       -0.31250       -0.18750
 BRILLOUIN|    76           0.00391       -0.31250       -0.31250       -0.06250
 BRILLOUIN|    77           0.00391       -0.31250       -0.31250        0.06250
 BRILLOUIN|    78           0.00391       -0.31250       -0.31250        0.18750
 BRILLOUIN|    79           0.00391       -0.31250       -0.31250        0.31250
 BRILLOUIN|    80           0.00391       -0.31250       -0.31250        0.43750
 BRILLOUIN|    81           0.00391       -0.31250       -0.18750       -0.43750
 BRILLOUIN|    82           0.00391       -0.31250       -0.18750       -0.31250
 BRILLOUIN|    83           0.00391       -0.31250       -0.18750       -0.18750
 BRILLOUIN|    84           0.00391       -0.31250       -0.18750       -0.06250
 BRILLOUIN|    85           0.00391       -0.31250       -0.18750        0.06250
 BRILLOUIN|    86           0.00391       -0.31250       -0.18750        0.18750
 BRILLOUIN|    87           0.00391       -0.31250       -0.18750        0.31250
 BRILLOUIN|    88           0.00391       -0.31250       -0.18750        0.43750
 BRILLOUIN|    89           0.00391       -0.31250       -0.06250       -0.43750
 BRILLOUIN|    90           0.00391       -0.31250       -0.06250       -0.31250
 BRILLOUIN|    91           0.00391       -0.31250       -0.06250       -0.18750
 BRILLOUIN|    92           0.00391       -0.31250       -0.06250       -0.06250
 BRILLOUIN|    93           0.00391       -0.31250       -0.06250        0.06250
 BRILLOUIN|    94           0.00391       -0.31250       -0.06250        0.18750
 BRILLOUIN|    95           0.00391       -0.31250       -0.06250        0.31250
 BRILLOUIN|    96           0.00391       -0.31250       -0.06250        0.43750
 BRILLOUIN|    97           0.00391       -0.31250        0.06250       -0.43750
 BRILLOUIN|    98           0.00391       -0.31250        0.06250       -0.31250
 BRILLOUIN|    99           0.00391       -0.31250        0.06250       -0.18750
 BRILLOUIN|   100           0.00391       -0.31250        0.06250       -0.06250
 BRILLOUIN|   101           0.00391       -0.31250        0.06250        0.06250
 BRILLOUIN|   102           0.00391       -0.31250        0.06250        0.18750
 BRILLOUIN|   103           0.00391       -0.31250        0.06250        0.31250
 BRILLOUIN|   104           0.00391       -0.31250        0.06250        0.43750
 BRILLOUIN|   105           0.00391       -0.31250        0.18750       -0.43750
 BRILLOUIN|   106           0.00391       -0.31250        0.18750       -0.31250
 BRILLOUIN|   107           0.00391       -0.31250        0.18750       -0.18750
 BRILLOUIN|   108           0.00391       -0.31250        0.18750       -0.06250
 BRILLOUIN|   109           0.00391       -0.31250        0.18750        0.06250
 BRILLOUIN|   110           0.00391       -0.31250        0.18750        0.18750
 BRILLOUIN|   111           0.00391       -0.31250        0.18750        0.31250
 BRILLOUIN|   112           0.00391       -0.31250        0.18750        0.43750
 BRILLOUIN|   113           0.00391       -0.31250        0.31250       -0.43750
 BRILLOUIN|   114           0.00391       -0.31250        0.31250       -0.31250
 BRILLOUIN|   115           0.00391       -0.31250        0.31250       -0.18750
 BRILLOUIN|   116           0.00391       -0.31250        0.31250       -0.06250
 BRILLOUIN|   117           0.00391       -0.31250        0.31250        0.06250
 BRILLOUIN|   118           0.00391       -0.31250        0.31250        0.18750
 BRILLOUIN|   119           0.00391       -0.31250        0.31250        0.31250
 BRILLOUIN|   120           0.00391       -0.31250        0.31250        0.43750
 BRILLOUIN|   121           0.00391       -0.31250        0.43750       -0.43750
 BRILLOUIN|   122           0.00391       -0.31250        0.43750       -0.31250
 BRILLOUIN|   123           0.00391       -0.31250        0.43750       -0.18750
 BRILLOUIN|   124           0.00391       -0.31250        0.43750       -0.06250
 BRILLOUIN|   125           0.00391       -0.31250        0.43750        0.06250
 BRILLOUIN|   126           0.00391       -0.31250        0.43750        0.18750
 BRILLOUIN|   127           0.00391       -0.31250        0.43750        0.31250
 BRILLOUIN|   128           0.00391       -0.31250        0.43750        0.43750
 BRILLOUIN|   129           0.00391       -0.18750       -0.43750       -0.43750
 BRILLOUIN|   130           0.00391       -0.18750       -0.43750       -0.31250
 BRILLOUIN|   131           0.00391       -0.18750       -0.43750       -0.18750
 BRILLOUIN|   132           0.00391       -0.18750       -0.43750       -0.06250
 BRILLOUIN|   133           0.00391       -0.18750       -0.43750        0.06250
 BRILLOUIN|   134           0.00391       -0.18750       -0.43750        0.18750
 BRILLOUIN|   135           0.00391       -0.18750       -0.43750        0.31250
 BRILLOUIN|   136           0.00391       -0.18750       -0.43750        0.43750
 BRILLOUIN|   137           0.00391       -0.18750       -0.31250       -0.43750
 BRILLOUIN|   138           0.00391       -0.18750       -0.31250       -0.31250
 BRILLOUIN|   139           0.00391       -0.18750       -0.31250       -0.18750
 BRILLOUIN|   140           0.00391       -0.18750       -0.31250       -0.06250
 BRILLOUIN|   141           0.00391       -0.18750       -0.31250        0.06250
 BRILLOUIN|   142           0.00391       -0.18750       -0.31250        0.18750
 BRILLOUIN|   143           0.00391       -0.18750       -0.31250        0.31250
 BRILLOUIN|   144           0.00391       -0.18750       -0.31250        0.43750
 BRILLOUIN|   145           0.00391       -0.18750       -0.18750       -0.43750
 BRILLOUIN|   146           0.00391       -0.18750       -0.18750       -0.31250
 BRILLOUIN|   147           0.00391       -0.18750       -0.18750       -0.18750
 BRILLOUIN|   148           0.00391       -0.18750       -0.18750       -0.06250
 BRILLOUIN|   149           0.00391       -0.18750       -0.18750        0.06250
 BRILLOUIN|   150           0.00391       -0.18750       -0.18750        0.18750
 BRILLOUIN|   151           0.00391       -0.18750       -0.18750        0.31250
 BRILLOUIN|   152           0.00391       -0.18750       -0.18750        0.43750
 BRILLOUIN|   153           0.00391       -0.18750       -0.06250       -0.43750
 BRILLOUIN|   154           0.00391       -0.18750       -0.06250       -0.31250
 BRILLOUIN|   155           0.00391       -0.18750       -0.06250       -0.18750
 BRILLOUIN|   156           0.00391       -0.18750       -0.06250       -0.06250
 BRILLOUIN|   157           0.00391       -0.18750       -0.06250        0.06250
 BRILLOUIN|   158           0.00391       -0.18750       -0.06250        0.18750
 BRILLOUIN|   159           0.00391       -0.18750       -0.06250        0.31250
 BRILLOUIN|   160           0.00391       -0.18750       -0.06250        0.43750
 BRILLOUIN|   161           0.00391       -0.18750        0.06250       -0.43750
 BRILLOUIN|   162           0.00391       -0.18750        0.06250       -0.31250
 BRILLOUIN|   163           0.00391       -0.18750        0.06250       -0.18750
 BRILLOUIN|   164           0.00391       -0.18750        0.06250       -0.06250
 BRILLOUIN|   165           0.00391       -0.18750        0.06250        0.06250
 BRILLOUIN|   166           0.00391       -0.18750        0.06250        0.18750
 BRILLOUIN|   167           0.00391       -0.18750        0.06250        0.31250
 BRILLOUIN|   168           0.00391       -0.18750        0.06250        0.43750
 BRILLOUIN|   169           0.00391       -0.18750        0.18750       -0.43750
 BRILLOUIN|   170           0.00391       -0.18750        0.18750       -0.31250
 BRILLOUIN|   171           0.00391       -0.18750        0.18750       -0.18750
 BRILLOUIN|   172           0.00391       -0.18750        0.18750       -0.06250
 BRILLOUIN|   173           0.00391       -0.18750        0.18750        0.06250
 BRILLOUIN|   174           0.00391       -0.18750        0.18750        0.18750
 BRILLOUIN|   175           0.00391       -0.18750        0.18750        0.31250
 BRILLOUIN|   176           0.00391       -0.18750        0.18750        0.43750
 BRILLOUIN|   177           0.00391       -0.18750        0.31250       -0.43750
 BRILLOUIN|   178           0.00391       -0.18750        0.31250       -0.31250
 BRILLOUIN|   179           0.00391       -0.18750        0.31250       -0.18750
 BRILLOUIN|   180           0.00391       -0.18750        0.31250       -0.06250
 BRILLOUIN|   181           0.00391       -0.18750        0.31250        0.06250
 BRILLOUIN|   182           0.00391       -0.18750        0.31250        0.18750
 BRILLOUIN|   183           0.00391       -0.18750        0.31250        0.31250
 BRILLOUIN|   184           0.00391       -0.18750        0.31250        0.43750
 BRILLOUIN|   185           0.00391       -0.18750        0.43750       -0.43750
 BRILLOUIN|   186           0.00391       -0.18750        0.43750       -0.31250
 BRILLOUIN|   187           0.00391       -0.18750        0.43750       -0.18750
 BRILLOUIN|   188           0.00391       -0.18750        0.43750       -0.06250
 BRILLOUIN|   189           0.00391       -0.18750        0.43750        0.06250
 BRILLOUIN|   190           0.00391       -0.18750        0.43750        0.18750
 BRILLOUIN|   191           0.00391       -0.18750        0.43750        0.31250
 BRILLOUIN|   192           0.00391       -0.18750        0.43750        0.43750
 BRILLOUIN|   193           0.00391       -0.06250       -0.43750       -0.43750
 BRILLOUIN|   194           0.00391       -0.06250       -0.43750       -0.31250
 BRILLOUIN|   195           0.00391       -0.06250       -0.43750       -0.18750
 BRILLOUIN|   196           0.00391       -0.06250       -0.43750       -0.06250
 BRILLOUIN|   197           0.00391       -0.06250       -0.43750        0.06250
 BRILLOUIN|   198           0.00391       -0.06250       -0.43750        0.18750
 BRILLOUIN|   199           0.00391       -0.06250       -0.43750        0.31250
 BRILLOUIN|   200           0.00391       -0.06250       -0.43750        0.43750
 BRILLOUIN|   201           0.00391       -0.06250       -0.31250       -0.43750
 BRILLOUIN|   202           0.00391       -0.06250       -0.31250       -0.31250
 BRILLOUIN|   203           0.00391       -0.06250       -0.31250       -0.18750
 BRILLOUIN|   204           0.00391       -0.06250       -0.31250       -0.06250
 BRILLOUIN|   205           0.00391       -0.06250       -0.31250        0.06250
 BRILLOUIN|   206           0.00391       -0.06250       -0.31250        0.18750
 BRILLOUIN|   207           0.00391       -0.06250       -0.31250        0.31250
 BRILLOUIN|   208           0.00391       -0.06250       -0.31250        0.43750
 BRILLOUIN|   209           0.00391       -0.06250       -0.18750       -0.43750
 BRILLOUIN|   210           0.00391       -0.06250       -0.18750       -0.31250
 BRILLOUIN|   211           0.00391       -0.06250       -0.18750       -0.18750
 BRILLOUIN|   212           0.00391       -0.06250       -0.18750       -0.06250
 BRILLOUIN|   213           0.00391       -0.06250       -0.18750        0.06250
 BRILLOUIN|   214           0.00391       -0.06250       -0.18750        0.18750
 BRILLOUIN|   215           0.00391       -0.06250       -0.18750        0.31250
 BRILLOUIN|   216           0.00391       -0.06250       -0.18750        0.43750
 BRILLOUIN|   217           0.00391       -0.06250       -0.06250       -0.43750
 BRILLOUIN|   218           0.00391       -0.06250       -0.06250       -0.31250
 BRILLOUIN|   219           0.00391       -0.06250       -0.06250       -0.18750
 BRILLOUIN|   220           0.00391       -0.06250       -0.06250       -0.06250
 BRILLOUIN|   221           0.00391       -0.06250       -0.06250        0.06250
 BRILLOUIN|   222           0.00391       -0.06250       -0.06250        0.18750
 BRILLOUIN|   223           0.00391       -0.06250       -0.06250        0.31250
 BRILLOUIN|   224           0.00391       -0.06250       -0.06250        0.43750
 BRILLOUIN|   225           0.00391       -0.06250        0.06250       -0.43750
 BRILLOUIN|   226           0.00391       -0.06250        0.06250       -0.31250
 BRILLOUIN|   227           0.00391       -0.06250        0.06250       -0.18750
 BRILLOUIN|   228           0.00391       -0.06250        0.06250       -0.06250
 BRILLOUIN|   229           0.00391       -0.06250        0.06250        0.06250
 BRILLOUIN|   230           0.00391       -0.06250        0.06250        0.18750
 BRILLOUIN|   231           0.00391       -0.06250        0.06250        0.31250
 BRILLOUIN|   232           0.00391       -0.06250        0.06250        0.43750
 BRILLOUIN|   233           0.00391       -0.06250        0.18750       -0.43750
 BRILLOUIN|   234           0.00391       -0.06250        0.18750       -0.31250
 BRILLOUIN|   235           0.00391       -0.06250        0.18750       -0.18750
 BRILLOUIN|   236           0.00391       -0.06250        0.18750       -0.06250
 BRILLOUIN|   237           0.00391       -0.06250        0.18750        0.06250
 BRILLOUIN|   238           0.00391       -0.06250        0.18750        0.18750
 BRILLOUIN|   239           0.00391       -0.06250        0.18750        0.31250
 BRILLOUIN|   240           0.00391       -0.06250        0.18750        0.43750
 BRILLOUIN|   241           0.00391       -0.06250        0.31250       -0.43750
 BRILLOUIN|   242           0.00391       -0.06250        0.31250       -0.31250
 BRILLOUIN|   243           0.00391       -0.06250        0.31250       -0.18750
 BRILLOUIN|   244           0.00391       -0.06250        0.31250       -0.06250
 BRILLOUIN|   245           0.00391       -0.06250        0.31250        0.06250
 BRILLOUIN|   246           0.00391       -0.06250        0.31250        0.18750
 BRILLOUIN|   247           0.00391       -0.06250        0.31250        0.31250
 BRILLOUIN|   248           0.00391       -0.06250        0.31250        0.43750
 BRILLOUIN|   249           0.00391       -0.06250        0.43750       -0.43750
 BRILLOUIN|   250           0.00391       -0.06250        0.43750       -0.31250
 BRILLOUIN|   251           0.00391       -0.06250        0.43750       -0.18750
 BRILLOUIN|   252           0.00391       -0.06250        0.43750       -0.06250
 BRILLOUIN|   253           0.00391       -0.06250        0.43750        0.06250
 BRILLOUIN|   254           0.00391       -0.06250        0.43750        0.18750
 BRILLOUIN|   255           0.00391       -0.06250        0.43750        0.31250
 BRILLOUIN|   256           0.00391       -0.06250        0.43750        0.43750
 *******************************************************************************

 *******************************************************************************
 *******************************************************************************
 **                                                                           **
 **     #####                         ##              ##                      **
 **    ##   ##            ##          ##              ##                      **
 **   ##     ##                       ##            ######                    **
 **   ##     ##  ##   ##  ##   #####  ##  ##   ####   ##    #####    #####    **
 **   ##     ##  ##   ##  ##  ##      ## ##   ##      ##   ##   ##  ##   ##   **
 **   ##  ## ##  ##   ##  ##  ##      ####     ###    ##   ######   ######    **
 **    ##  ###   ##   ##  ##  ##      ## ##      ##   ##   ##       ##        **
 **     #######   #####   ##   #####  ##  ##  ####    ##    #####   ##        **
 **           ##                                                    ##        **
 **                                                                           **
 **                                                ... make the atoms dance   **
 **                                                                           **
 **            Copyright (C) by CP2K developers group (2000-2025)             **
 **                      J. Chem. Phys. 152, 194103 (2020)                    **
 **                                                                           **
 *******************************************************************************

 DFT| Spin restricted Kohn-Sham (RKS) calculation                            RKS
 DFT| Multiplicity                                                             1
 DFT| Number of spin states                                                    1
 DFT| Charge                                                                   0
 DFT| Self-interaction correction (SIC)                                       NO
 DFT| Cutoffs: density                                              1.000000E-10
 DFT|          gradient                                             1.000000E-10
 DFT|          tau                                                  1.000000E-10
 DFT|          cutoff_smoothing_range                               0.000000E+00
 DFT| XC density smoothing                                                  NONE
 DFT| XC derivatives                                                          PW

 FUNCTIONAL| PBE:
 FUNCTIONAL| J.P.Perdew, K.Burke, M.Ernzerhof, Phys. Rev. Letter, vol. 77, n 18,
 FUNCTIONAL|  pp. 3865-3868, (1996) {spin unpolarized}                          


 QS| Method:                                                                 GPW
 QS| Density plane wave grid type                        NON-SPHERICAL FULLSPACE
 QS| Number of grid levels:                                                    4
 QS| Density cutoff [a.u.]:                                                500.0
 QS| Multi grid cutoff [a.u.]: 1) grid level                               500.0
 QS|                           2) grid level                               166.7
 QS|                           3) grid level                                55.6
 QS|                           4) grid level                                18.5
 QS| Grid level progression factor:                                          3.0
 QS| Relative density cutoff [a.u.]:                                        50.0
 QS| Interaction thresholds: eps_pgf_orb:                                1.0E-16
 QS|                         eps_filter_matrix:                          0.0E+00
 QS|                         eps_core_charge:                            1.0E-18
 QS|                         eps_rho_gspace:                             1.0E-16
 QS|                         eps_rho_rspace:                             1.0E-16
 QS|                         eps_gvg_rspace:                             1.0E-08
 QS|                         eps_ppl:                                    1.0E-02
 QS|                         eps_ppnl:                                   1.0E-10


 ATOMIC KIND INFORMATION

  1. Atomic kind: F                                     Number of atoms:       8

     Orbital Basis Set                                aug-DZVP-MOLOPT-GTH-tier-2

       Number of orbital shell sets:                                           1
       Number of orbital shells:                                               9
       Number of primitive Cartesian functions:                                7
       Number of Cartesian basis functions:                                   34
       Number of spherical basis functions:                                   29
       Norm type:                                                              2

       Normalised Cartesian orbitals:

                        Set   Shell   Orbital            Exponent    Coefficient

                          1       1    2s                0.048130       0.000145
                                                         0.157659       0.012715
                                                         0.396230       0.147372
                                                         0.963986       0.349414
                                                         2.411456       0.244970
                                                         6.156801      -0.368899
                                                        15.025673      -0.376933

                          1       2    3s                0.048130      -0.023206
                                                         0.157659       0.219094
                                                         0.396230       0.144424
                                                         0.963986      -0.882439
                                                         2.411456      -0.201528
                                                         6.156801       0.616780
                                                        15.025673       0.933261

                          1       3    4s                0.048130       0.048199
                                                         0.157659       0.064341
                                                         0.396230       0.010899
                                                         0.963986       0.021631
                                                         2.411456       0.000000
                                                         6.156801       0.000000
                                                        15.025673       0.000000

                          1       4    3px               0.048130       0.000282
                                                         0.157659       0.019710
                                                         0.396230       0.135050
                                                         0.963986       0.488223
                                                         2.411456       1.216351
                                                         6.156801       1.920741
                                                        15.025673       1.819117
                          1       4    3py               0.048130       0.000282
                                                         0.157659       0.019710
                                                         0.396230       0.135050
                                                         0.963986       0.488223
                                                         2.411456       1.216351
                                                         6.156801       1.920741
                                                        15.025673       1.819117
                          1       4    3pz               0.048130       0.000282
                                                         0.157659       0.019710
                                                         0.396230       0.135050
                                                         0.963986       0.488223
                                                         2.411456       1.216351
                                                         6.156801       1.920741
                                                        15.025673       1.819117

                          1       5    4px               0.048130       0.002429
                                                         0.157659       0.085113
                                                         0.396230       0.170866
                                                         0.963986      -0.918345
                                                         2.411456      -0.953450
                                                         6.156801      -2.417014
                                                        15.025673      -1.689942
                          1       5    4py               0.048130       0.002429
                                                         0.157659       0.085113
                                                         0.396230       0.170866
                                                         0.963986      -0.918345
                                                         2.411456      -0.953450
                                                         6.156801      -2.417014
                                                        15.025673      -1.689942
                          1       5    4pz               0.048130       0.002429
                                                         0.157659       0.085113
                                                         0.396230       0.170866
                                                         0.963986      -0.918345
                                                         2.411456      -0.953450
                                                         6.156801      -2.417014
                                                        15.025673      -1.689942

                          1       6    5px               0.048130       0.000246
                                                         0.157659       0.023230
                                                         0.396230       0.209872
                                                         0.963986       0.640292
                                                         2.411456       0.000000
                                                         6.156801       0.000000
                                                        15.025673       0.000000
                          1       6    5py               0.048130       0.000246
                                                         0.157659       0.023230
                                                         0.396230       0.209872
                                                         0.963986       0.640292
                                                         2.411456       0.000000
                                                         6.156801       0.000000
                                                        15.025673       0.000000
                          1       6    5pz               0.048130       0.000246
                                                         0.157659       0.023230
                                                         0.396230       0.209872
                                                         0.963986       0.640292
                                                         2.411456       0.000000
                                                         6.156801       0.000000
                                                        15.025673       0.000000

                          1       7    4dx2              0.048130      -0.000057
                                                         0.157659       0.005683
                                                         0.396230       0.093353
                                                         0.963986       0.990964
                                                         2.411456       0.905639
                                                         6.156801       1.881685
                                                        15.025673       0.944374
                          1       7    4dxy              0.048130      -0.000100
                                                         0.157659       0.009842
                                                         0.396230       0.161692
                                                         0.963986       1.716400
                                                         2.411456       1.568613
                                                         6.156801       3.259175
                                                        15.025673       1.635703
                          1       7    4dxz              0.048130      -0.000100
                                                         0.157659       0.009842
                                                         0.396230       0.161692
                                                         0.963986       1.716400
                                                         2.411456       1.568613
                                                         6.156801       3.259175
                                                        15.025673       1.635703
                          1       7    4dy2              0.048130      -0.000057
                                                         0.157659       0.005683
                                                         0.396230       0.093353
                                                         0.963986       0.990964
                                                         2.411456       0.905639
                                                         6.156801       1.881685
                                                        15.025673       0.944374
                          1       7    4dyz              0.048130      -0.000100
                                                         0.157659       0.009842
                                                         0.396230       0.161692
                                                         0.963986       1.716400
                                                         2.411456       1.568613
                                                         6.156801       3.259175
                                                        15.025673       1.635703
                          1       7    4dz2              0.048130      -0.000057
                                                         0.157659       0.005683
                                                         0.396230       0.093353
                                                         0.963986       0.990964
                                                         2.411456       0.905639
                                                         6.156801       1.881685
                                                        15.025673       0.944374

                          1       8    5dx2              0.048130      -0.001335
                                                         0.157659       0.026636
                                                         0.396230       0.135735
                                                         0.963986       0.626554
                                                         2.411456       0.000000
                                                         6.156801       0.000000
                                                        15.025673       0.000000
                          1       8    5dxy              0.048130      -0.002313
                                                         0.157659       0.046135
                                                         0.396230       0.235100
                                                         0.963986       1.085224
                                                         2.411456       0.000000
                                                         6.156801       0.000000
                                                        15.025673       0.000000
                          1       8    5dxz              0.048130      -0.002313
                                                         0.157659       0.046135
                                                         0.396230       0.235100
                                                         0.963986       1.085224
                                                         2.411456       0.000000
                                                         6.156801       0.000000
                                                        15.025673       0.000000
                          1       8    5dy2              0.048130      -0.001335
                                                         0.157659       0.026636
                                                         0.396230       0.135735
                                                         0.963986       0.626554
                                                         2.411456       0.000000
                                                         6.156801       0.000000
                                                        15.025673       0.000000
                          1       8    5dyz              0.048130      -0.002313
                                                         0.157659       0.046135
                                                         0.396230       0.235100
                                                         0.963986       1.085224
                                                         2.411456       0.000000
                                                         6.156801       0.000000
                                                        15.025673       0.000000
                          1       8    5dz2              0.048130      -0.001335
                                                         0.157659       0.026636
                                                         0.396230       0.135735
                                                         0.963986       0.626554
                                                         2.411456       0.000000
                                                         6.156801       0.000000
                                                        15.025673       0.000000

                          1       9    5fx3              0.048130      -0.000579
                                                         0.157659       0.009682
                                                         0.396230       0.076855
                                                         0.963986       0.575533
                                                         2.411456       0.000000
                                                         6.156801       0.000000
                                                        15.025673       0.000000
                          1       9    5fx2y             0.048130      -0.001295
                                                         0.157659       0.021650
                                                         0.396230       0.171852
                                                         0.963986       1.286932
                                                         2.411456       0.000000
                                                         6.156801       0.000000
                                                        15.025673       0.000000
                          1       9    5fx2z             0.048130      -0.001295
                                                         0.157659       0.021650
                                                         0.396230       0.171852
                                                         0.963986       1.286932
                                                         2.411456       0.000000
                                                         6.156801       0.000000
                                                        15.025673       0.000000
                          1       9    5fxy2             0.048130      -0.001295
                                                         0.157659       0.021650
                                                         0.396230       0.171852
                                                         0.963986       1.286932
                                                         2.411456       0.000000
                                                         6.156801       0.000000
                                                        15.025673       0.000000
                          1       9    5fxyz             0.048130      -0.002243
                                                         0.157659       0.037498
                                                         0.396230       0.297657
                                                         0.963986       2.229031
                                                         2.411456       0.000000
                                                         6.156801       0.000000
                                                        15.025673       0.000000
                          1       9    5fxz2             0.048130      -0.001295
                                                         0.157659       0.021650
                                                         0.396230       0.171852
                                                         0.963986       1.286932
                                                         2.411456       0.000000
                                                         6.156801       0.000000
                                                        15.025673       0.000000
                          1       9    5fy3              0.048130      -0.000579
                                                         0.157659       0.009682
                                                         0.396230       0.076855
                                                         0.963986       0.575533
                                                         2.411456       0.000000
                                                         6.156801       0.000000
                                                        15.025673       0.000000
                          1       9    5fy2z             0.048130      -0.001295
                                                         0.157659       0.021650
                                                         0.396230       0.171852
                                                         0.963986       1.286932
                                                         2.411456       0.000000
                                                         6.156801       0.000000
                                                        15.025673       0.000000
                          1       9    5fyz2             0.048130      -0.001295
                                                         0.157659       0.021650
                                                         0.396230       0.171852
                                                         0.963986       1.286932
                                                         2.411456       0.000000
                                                         6.156801       0.000000
                                                        15.025673       0.000000
                          1       9    5fz3              0.048130      -0.000579
                                                         0.157659       0.009682
                                                         0.396230       0.076855
                                                         0.963986       0.575533
                                                         2.411456       0.000000
                                                         6.156801       0.000000
                                                        15.025673       0.000000

       Atomic covalent radius [Angstrom]:                                  0.720

       Atomic van der Waals radius [Angstrom]:                             1.470

     GTH Potential information for                                       GTH-PBE

       Description:                       Goedecker-Teter-Hutter pseudopotential
                                           Goedecker et al., PRB 54, 1703 (1996)
                                          Hartwigsen et al., PRB 58, 3641 (1998)
                                                      Krack, TCA 114, 145 (2005)

       Gaussian exponent of the core charge distribution:              10.823746
       Electronic configuration (s p d ...):                               2   5

       Parameters of the local part of the GTH pseudopotential:

                          rloc        C1          C2          C3          C4
                        0.214930  -21.573028    3.199776

       Parameters of the non-local part of the GTH (SOC) pseudopotential:

                   l      r(l)      h(i,j,l)
                                    k(i,j,l)
                   0    0.194684   23.743540
                   1    0.186156    0.000000
                                    0.012614


 MOLECULE KIND INFORMATION


 All atoms are their own molecule, skipping detailed information


 TOTAL NUMBERS AND MAXIMUM NUMBERS

  Total number of            - Atomic kinds:                                   1
                             - Atoms:                                          8
                             - Shell sets:                                     8
                             - Shells:                                        72
                             - Primitive Cartesian functions:                 56
                             - Cartesian basis functions:                    272
                             - Spherical basis functions:                    232

  Maximum angular momentum of- Orbital basis functions:                        3
                             - Local part of the GTH pseudopotential:          2
                             - Non-local part of the GTH pseudopotential:      1


 MODULE QUICKSTEP: ATOMIC COORDINATES IN ANGSTROM

   Atom Kind Element         X             Y             Z       Z(eff)     Mass
      1    1 F     9      1.494682      1.217172      0.647338   7.0000  18.9984
      2    1 F     9      3.851374      2.467878      6.229727   7.0000  18.9984
      3    1 F     9      4.259896      1.217172      2.791194   7.0000  18.9984
      4    1 F     9      1.086161      2.467878      4.085871   7.0000  18.9984
      5    1 F     9      4.576232      3.059697      0.647338   7.0000  18.9984
      6    1 F     9      0.769824      0.625353      6.229727   7.0000  18.9984
      7    1 F     9      1.178346      3.059697      2.791194   7.0000  18.9984
      8    1 F     9      4.167711      0.625353      4.085871   7.0000  18.9984



 SCF PARAMETERS         Density guess:                                    ATOMIC
                        --------------------------------------------------------
                        max_scf:                                             500
                        max_scf_history:                                       0
                        max_diis:                                              4
                        --------------------------------------------------------
                        eps_scf:                                        1.00E-09
                        eps_scf_history:                                0.00E+00
                        eps_diis:                                       1.00E-01
                        eps_eigval:                                     1.00E-05
                        --------------------------------------------------------
                        level_shift [a.u.]:                             0.000000
                        added MOs                                       204    0
                        --------------------------------------------------------
                        Mixing method:                            BROYDEN_MIXING
                                                charge density mixing in g-space
                        --------------------------------------------------------
                        No outer SCF

 PW_GRID| Information for grid number                                          1
 PW_GRID| Grid distributed over                                     8 processors
 PW_GRID| Real space group dimensions                                     8    1
 PW_GRID| the grid is blocked:                                                NO
 PW_GRID| Cutoff [a.u.]                                                    500.0
 PW_GRID| spherical cutoff:                                                   NO
 PW_GRID|   Bounds   1            -60      59                Points:         120
 PW_GRID|   Bounds   2            -36      35                Points:          72
 PW_GRID|   Bounds   3            -67      67                Points:         135
 PW_GRID| Volume element (a.u.^3)  0.9036E-03     Volume (a.u.^3)      1054.0042
 PW_GRID| Grid span                                                    FULLSPACE
 PW_GRID|   Distribution                         Average         Max         Min
 PW_GRID|   G-Vectors                           145800.0      145800      145800
 PW_GRID|   G-Rays                                1215.0        1215        1215
 PW_GRID|   Real Space Points                   145800.0      145800      145800

 PW_GRID| Information for grid number                                          2
 PW_GRID| Number of the reference grid                                         1
 PW_GRID| Grid distributed over                                     8 processors
 PW_GRID| Real space group dimensions                                     8    1
 PW_GRID| the grid is blocked:                                                NO
 PW_GRID| Cutoff [a.u.]                                                    166.7
 PW_GRID| spherical cutoff:                                                   NO
 PW_GRID|   Bounds   1            -36      35                Points:          72
 PW_GRID|   Bounds   2            -22      22                Points:          45
 PW_GRID|   Bounds   3            -40      39                Points:          80
 PW_GRID| Volume element (a.u.^3)  0.4066E-02     Volume (a.u.^3)      1054.0042
 PW_GRID| Grid span                                                    FULLSPACE
 PW_GRID|   Distribution                         Average         Max         Min
 PW_GRID|   G-Vectors                            32400.0       32688       32040
 PW_GRID|   G-Rays                                 450.0         454         445
 PW_GRID|   Real Space Points                    32400.0       32400       32400

 PW_GRID| Information for grid number                                          3
 PW_GRID| Number of the reference grid                                         1
 PW_GRID| Grid distributed over                                     8 processors
 PW_GRID| Real space group dimensions                                     8    1
 PW_GRID| the grid is blocked:                                                NO
 PW_GRID| Cutoff [a.u.]                                                     55.6
 PW_GRID| spherical cutoff:                                                   NO
 PW_GRID|   Bounds   1            -20      19                Points:          40
 PW_GRID|   Bounds   2            -12      11                Points:          24
 PW_GRID|   Bounds   3            -22      22                Points:          45
 PW_GRID| Volume element (a.u.^3)  0.2440E-01     Volume (a.u.^3)      1054.0042
 PW_GRID| Grid span                                                    FULLSPACE
 PW_GRID|   Distribution                         Average         Max         Min
 PW_GRID|   G-Vectors                             5400.0        5560        5280
 PW_GRID|   G-Rays                                 135.0         139         132
 PW_GRID|   Real Space Points                     5400.0        5400        5400

 PW_GRID| Information for grid number                                          4
 PW_GRID| Number of the reference grid                                         1
 PW_GRID| Grid distributed over                                     8 processors
 PW_GRID| Real space group dimensions                                     8    1
 PW_GRID| the grid is blocked:                                                NO
 PW_GRID| Cutoff [a.u.]                                                     18.5
 PW_GRID| spherical cutoff:                                                   NO
 PW_GRID|   Bounds   1            -12      11                Points:          24
 PW_GRID|   Bounds   2             -7       7                Points:          15
 PW_GRID|   Bounds   3            -12      12                Points:          25
 PW_GRID| Volume element (a.u.^3)  0.1171         Volume (a.u.^3)      1054.0042
 PW_GRID| Grid span                                                    FULLSPACE
 PW_GRID|   Distribution                         Average         Max         Min
 PW_GRID|   G-Vectors                             1125.0        1152        1080
 PW_GRID|   G-Rays                                  46.9          48          45
 PW_GRID|   Real Space Points                     1125.0        1125        1125

 POISSON| Solver                                                        PERIODIC
 POISSON| Periodicity                                                        XYZ

 RS_GRID| Information for grid number                                          1
 RS_GRID|   Bounds   1            -60      59                Points:         120
 RS_GRID|   Bounds   2            -36      35                Points:          72
 RS_GRID|   Bounds   3            -67      67                Points:         135
 RS_GRID| Real space fully replicated
 RS_GRID| Group size                                                           1

 RS_GRID| Information for grid number                                          2
 RS_GRID|   Bounds   1            -36      35                Points:          72
 RS_GRID|   Bounds   2            -22      22                Points:          45
 RS_GRID|   Bounds   3            -40      39                Points:          80
 RS_GRID| Real space fully replicated
 RS_GRID| Group size                                                           1

 RS_GRID| Information for grid number                                          3
 RS_GRID|   Bounds   1            -20      19                Points:          40
 RS_GRID|   Bounds   2            -12      11                Points:          24
 RS_GRID|   Bounds   3            -22      22                Points:          45
 RS_GRID| Real space fully replicated
 RS_GRID| Group size                                                           1

 RS_GRID| Information for grid number                                          4
 RS_GRID|   Bounds   1            -12      11                Points:          24
 RS_GRID|   Bounds   2             -7       7                Points:          15
 RS_GRID|   Bounds   3            -12      12                Points:          25
 RS_GRID| Real space fully replicated
 RS_GRID| Group size                                                           1

 Number of electrons:                                                         56
 Number of occupied orbitals:                                                 28
 Number of molecular orbitals:                                               232

 Number of orbital functions:                                                232
 Number of independent orbital functions:                                    232

 Extrapolation method: initial_guess

 Atomic guess: The first density matrix is obtained in terms of atomic orbitals
               and electronic configurations assigned to each atomic kind

 Guess for atomic kind: F

 Electronic structure
    Total number of core electrons                                          2.00
    Total number of valence electrons                                       7.00
    Total number of electrons                                               9.00
    Multiplicity                                                   not specified
    S   [  2.00] 2.00
    P      5.00


 *******************************************************************************
                  Iteration          Convergence                     Energy [au]
 *******************************************************************************
                          1         1.29623                     -23.766137558508
                          2         1.20933                     -23.752859654868
                          3        0.899404E-01                 -23.939544162568
                          4        0.328188E-02                 -23.940486959085
                          5        0.508573E-04                 -23.940488292033
                          6        0.162428E-05                 -23.940488292325
                          7        0.415452E-07                 -23.940488292325

 Energy components [Hartree]           Total Energy ::          -23.940488292325
                                        Band Energy ::           -4.157700374172
                                     Kinetic Energy ::           18.797109771309
                                   Potential Energy ::          -42.737598063634
                                      Virial (-V/T) ::            2.273626029937
                                        Core Energy ::          -40.725785866869
                                          XC Energy ::           -4.362365759096
                                     Coulomb Energy ::           21.147663333640
                       Total Pseudopotential Energy ::          -59.557247721538
                       Local Pseudopotential Energy ::          -61.258397535981
                    Nonlocal Pseudopotential Energy ::            1.701149814443
                                        Confinement ::            0.343520833596

 Orbital energies  State     L     Occupation   Energy[a.u.]          Energy[eV]

                       1     0          2.000      -1.085642          -29.541823

                       1     1          5.000      -0.397283          -10.810627


 Total Electron Density at R=0:                                         0.000137
 Re-scaling the density matrix to get the right number of electrons
                  # Electrons              Trace(P)               Scaling factor
                           56                56.000                        1.000


 SCF WAVEFUNCTION OPTIMIZATION

  Step     Update method      Time    Convergence         Total energy    Change
  ------------------------------------------------------------------------------
     1 NoMix/Diag. 0.50E-01   13.6     2.03544894      -193.5749409977 -1.94E+02
     2 Broy./Diag. 0.50E-01   13.9     0.00121453      -191.7425078439  1.83E+00
     3 Broy./Diag. 0.50E-01   14.0     0.02508181      -193.0345046692 -1.29E+00
     4 Broy./Diag. 0.50E-01   14.1     0.00051395      -194.3657225094 -1.33E+00
     5 Broy./Diag. 0.50E-01   13.9     0.00929268      -193.7034074072  6.62E-01
     6 Broy./Diag. 0.50E-01   14.0     0.00008115      -193.1419271524  5.61E-01
     7 Broy./Diag. 0.50E-01   14.0     0.00114312      -193.3018755126 -1.60E-01
     8 Broy./Diag. 0.50E-01   14.0     0.00003246      -193.4009884713 -9.91E-02
     9 Broy./Diag. 0.50E-01   14.0     0.00082756      -193.3713056700  2.97E-02
    10 Broy./Diag. 0.50E-01   14.0     0.00002073      -193.3279202449  4.34E-02
    11 Broy./Diag. 0.50E-01   14.0     0.00025680      -193.3327936679 -4.87E-03
    12 Broy./Diag. 0.50E-01   14.0     0.00000381      -193.3314637177  1.33E-03
    13 Broy./Diag. 0.50E-01   14.0     0.00007220      -193.3312769577  1.87E-04
    14 Broy./Diag. 0.50E-01   14.0     0.00000089      -193.3310374677  2.39E-04
    15 Broy./Diag. 0.50E-01   13.9     0.00001750      -193.3309885086  4.90E-05
    16 Broy./Diag. 0.50E-01   13.9     0.00000625      -193.3311134324 -1.25E-04
    17 Broy./Diag. 0.50E-01   14.0     0.00000056      -193.3311299291 -1.65E-05
    18 Broy./Diag. 0.50E-01   14.0     0.00000219      -193.3310400846  8.98E-05
    19 Broy./Diag. 0.50E-01   14.1     0.00000067      -193.3310515381 -1.15E-05
    20 Broy./Diag. 0.50E-01   14.0     0.00000096      -193.3310747393 -2.32E-05
    21 Broy./Diag. 0.50E-01   14.0     0.00000158      -193.3312590385 -1.84E-04
    22 Broy./Diag. 0.50E-01   14.0     0.00000038      -193.3314248206 -1.66E-04
    23 Broy./Diag. 0.50E-01   14.1     0.00000079      -193.3314325599 -7.74E-06
    24 Broy./Diag. 0.50E-01   14.0     0.00000071      -193.3313621394  7.04E-05
    25 Broy./Diag. 0.50E-01   14.0     0.00000056      -193.3312960112  6.61E-05
    26 Broy./Diag. 0.50E-01   14.0     0.00000010      -193.3312673776  2.86E-05
    27 Broy./Diag. 0.50E-01   14.0     0.00000012      -193.3312591297  8.25E-06
    28 Broy./Diag. 0.50E-01   14.0     0.00000019      -193.3312520293  7.10E-06
    29 Broy./Diag. 0.50E-01   14.0     0.00000009      -193.3312458797  6.15E-06
    30 Broy./Diag. 0.50E-01   14.0     0.00000010      -193.3312401140  5.77E-06
    31 Broy./Diag. 0.50E-01   14.1     0.00000006      -193.3312366754  3.44E-06
    32 Broy./Diag. 0.50E-01   14.0     0.00000004      -193.3312358100  8.65E-07
    33 Broy./Diag. 0.50E-01   14.0     0.00000006      -193.3312397410 -3.93E-06
    34 Broy./Diag. 0.50E-01   14.0     0.00000003      -193.3312449061 -5.17E-06
    35 Broy./Diag. 0.50E-01   14.0     0.00000002      -193.3312474791 -2.57E-06
    36 Broy./Diag. 0.50E-01   14.0     0.00000003      -193.3312482082 -7.29E-07
    37 Broy./Diag. 0.50E-01   14.1     0.00000004      -193.3312472510  9.57E-07
    38 Broy./Diag. 0.50E-01   14.0     0.00000003      -193.3312458071  1.44E-06
    39 Broy./Diag. 0.50E-01   14.0     3.7969E-09      -193.3312450369  7.70E-07
    40 Broy./Diag. 0.50E-01   14.0     0.00000001      -193.3312448565  1.80E-07
    41 Broy./Diag. 0.50E-01   14.0     8.1648E-09      -193.3312442426  6.14E-07
    42 Broy./Diag. 0.50E-01   14.0     0.00000001      -193.3312437402  5.02E-07
    43 Broy./Diag. 0.50E-01   14.0     3.1424E-09      -193.3312432275  5.13E-07
    44 Broy./Diag. 0.50E-01   14.0     6.1780E-09      -193.3312426951  5.32E-07
    45 Broy./Diag. 0.50E-01   14.0     1.7005E-09      -193.3312423911  3.04E-07
    46 Broy./Diag. 0.50E-01   14.1     2.8732E-09      -193.3312425836 -1.93E-07
    47 Broy./Diag. 0.50E-01   14.0     6.8246E-09      -193.3312430784 -4.95E-07
    48 Broy./Diag. 0.50E-01   14.0     1.1421E-09      -193.3312434651 -3.87E-07
    49 Broy./Diag. 0.50E-01   14.0     1.0158E-09      -193.3312435575 -9.24E-08
    50 Broy./Diag. 0.50E-01   14.0     4.5928E-09      -193.3312436469 -8.94E-08
    51 Broy./Diag. 0.50E-01   14.1     6.3843E-10      -193.3312437263 -7.94E-08

  *** SCF run converged in    51 steps ***


  Electronic density on regular grids:        -56.0000000000       -0.0000000000
  Core density on regular grids:               56.0000000000       -0.0000000000
  Total charge density on r-space grids:       -0.0000000000
  Total charge density g-space grids:          -0.0000000000

  Overlap energy of the core charge distribution:               0.00000000000000
  Self energy of the core charge distribution:               -514.49946177890274
  Core Hamiltonian energy:                                    143.08399803965349
  Hartree energy:                                             214.68380256117797
  Exchange-correlation energy:                                -36.59958254819118

  Total energy:                                              -193.33124372626247

 !-----------------------------------------------------------------------------!
                     Mulliken Population Analysis

 #  Atom  Element  Kind  Atomic population                           Net charge
       1     F        1          7.000001                             -0.000001
       2     F        1          7.000001                             -0.000001
       3     F        1          6.999999                              0.000001
       4     F        1          6.999999                              0.000001
       5     F        1          7.000001                             -0.000001
       6     F        1          7.000001                             -0.000001
       7     F        1          6.999999                              0.000001
       8     F        1          6.999999                              0.000001
 # Total charge                             56.000000                  0.000000

 !-----------------------------------------------------------------------------!

 !-----------------------------------------------------------------------------!
                           Hirshfeld Charges

  #Atom  Element  Kind  Ref Charge     Population                    Net charge
      1       F      1       7.000          7.000                         0.000
      2       F      1       7.000          7.000                         0.000
      3       F      1       7.000          7.000                        -0.000
      4       F      1       7.000          7.000                        -0.000
      5       F      1       7.000          7.000                         0.000
      6       F      1       7.000          7.000                         0.000
      7       F      1       7.000          7.000                        -0.000
      8       F      1       7.000          7.000                        -0.000

  Total Charge                                                            0.000
 !-----------------------------------------------------------------------------!

 KPOINTS| Band Structure Calculation
 KPOINTS| Number of k-point sets                                               1
 KPOINTS| Number of added MOs/bands                                           -1
 KPOINTS| Number of k-points in set    1                                     148
 KPOINTS| In units of b-vector [2pi/Bohr]
 KPOINTS| Special point     1 not specifi     0.000000     0.000000     0.000000
 KPOINTS| Special point     2 not specifi     0.340639     0.340639     0.000000
 KPOINTS| Special point     3 not specifi    -0.500000     0.500000     0.000000
 KPOINTS| Special point     4 not specifi     0.000000     0.000000     0.000000
 KPOINTS| Time for k-point line                                            5.691

 ENERGY| Total FORCE_EVAL ( QS ) energy [hartree]           -193.331243726262471

[...]
 -                                                                             -
 -                                DBM STATISTICS                               -
 -                                                                             -
 -------------------------------------------------------------------------------
    M  x    N  x    K                                          COUNT     PERCENT
 -------------------------------------------------------------------------------

 -------------------------------------------------------------------------------
 -                                                                             -
 -                                GRID STATISTICS                              -
 -                                                                             -
 -------------------------------------------------------------------------------
 LP    KERNEL             BACKEND                              COUNT     PERCENT
 6     collocate general  CPU                                4845360      50.49%
 6     integrate general  CPU                                4752180      49.51%
 0     collocate general  CPU                                     16       0.00%
 0     integrate general  CPU                                      8       0.00%
 -------------------------------------------------------------------------------

 MEMORY| Estimated peak process memory [MiB]                                 935

 -------------------------------------------------------------------------------
 ----                             MULTIGRID INFO                            ----
 -------------------------------------------------------------------------------
 count for grid        1:          92688          cutoff [a.u.]          500.00
 count for grid        2:          46868          cutoff [a.u.]          166.67
 count for grid        3:          54048          cutoff [a.u.]           55.56
 count for grid        4:          67904          cutoff [a.u.]           18.52
 total gridlevel count  :         261508

 -------------------------------------------------------------------------------
 -                                                                             -
 -                         MESSAGE PASSING PERFORMANCE                         -
 -                                                                             -
 -------------------------------------------------------------------------------

 ROUTINE             CALLS      AVE VOLUME [Bytes]
 MP_Group                6
 MP_Bcast           473773                    580.
 MP_Allreduce       171478                    154.
 MP_Sync                 4
 MP_Alltoall           923                6487016.
 MP_SendRecv          1470                 377040.
 MP_ISendRecv         1435                 373338.
 MP_Wait            327087
 MP_comm_split           4
 MP_ISend           346124                  12285.
 MP_IRecv           553088                   7697.
 -------------------------------------------------------------------------------


 -------------------------------------------------------------------------------
 -                                                                             -
 -                           R E F E R E N C E S                               -
 -                                                                             -
 -------------------------------------------------------------------------------
 
 CP2K version 2025.1 (Development Version), the CP2K developers group (2025).
 CP2K is freely available from https://www.cp2k.org/ .
 
 T. D. Kuehne, M. Iannuzzi, M. Del Ben, V. V. Rybkin, P. Seewald, F. Stein, T. 
 Laino, R. Z. Khaliullin, O. Schuett, F. Schiffmann, D. Golze, J. Wilhelm, S. 
 Chulkov, M. H. Bani-Hashemian, V. Weber, U. Borstnik, M. Taillefumier, A. S. 
 Jakobovits, A. Lazzaro, H. Pabst, T. Mueller, R. Schade, M. Guidon, S. 
 Andermatt, N. Holmberg, G. K. Schenter, A. Hehn, A. Bussy, F. Belleflamme, G. 
 Tabacchi, A. Gloess, M. Lass, I. Bethune, C. J. Mundy, C. Plessl, M. Watkins, 
 J. VandeVondele, M. Krack, J. Hutter.
 J. Chem. Phys. 152, 194103 (2020).
 CP2K: An electronic structure and molecular dynamics software package - 
 Quickstep: Efficient and accurate electronic structure calculations.
 https://doi.org/10.1063/5.0007045

 O. Schuett, P. Messmer, J. Hutter, J. VandeVondele.
 Electronic Structure Calculations on Graphics Processing Units, 173-190 (2016).
 GPU-Accelerated Sparse Matrix-Matrix Multiplication for Linear Scaling Density 
 Functional Theory.
 https://doi.org/10.1002/9781118670712.ch8

 J. Hutter, M. Iannuzzi, F. Schiffmann, J. VandeVondele.
 WIREs Comput Mol Sci. 4, 15-25 (2014).
 CP2K: atomistic simulations of condensed matter systems.
 https://doi.org/10.1002/wcms.1159

 U. Borstnik, J. VandeVondele, V. Weber, J. Hutter.
 Parallel Comput. 40, 47-58 (2014).
 Sparse matrix multiplication: The distributed block-compressed sparse row 
 library.
 https://doi.org/10.1016/j.parco.2014.03.012

 J. VandeVondele, J. Hutter.
 J. Chem. Phys. 127, 114105 (2007).
 Gaussian basis sets for accurate calculations on molecular systems in gas and 
 condensed phases.
 https://doi.org/10.1063/1.2770708

 J. VandeVondele, M. Krack, F. Mohamed, M. Parrinello, T. Chassaing, J. Hutter.
 Comput. Phys. Commun. 167, 103-128 (2005).
 QUICKSTEP: Fast and accurate density functional calculations using a mixed 
 Gaussian and plane waves approach.
 https://doi.org/10.1016/j.cpc.2004.12.014

 M. Krack.
 Theor. Chem. Acc. 114, 145-152 (2005).
 Pseudopotentials for H to Kr optimized for gradient-corrected 
 exchange-correlation functionals.
 https://doi.org/10.1007/s00214-005-0655-y

 M. Frigo, S. G. Johnson.
 Proc. IEEE 93, 216-231 (2005).
 The design and implementation of FFTW3.
 https://doi.org/10.1109/JPROC.2004.840301

 C. Hartwigsen, S. Goedecker, J. Hutter.
 Phys. Rev. B 58, 3641-3662 (1998).
 Relativistic separable dual-space Gaussian pseudopotentials from H to Rn.
 https://doi.org/10.1103/PhysRevB.58.3641

 G. Lippert, J. Hutter, M. Parrinello.
 Mol. Phys. 92, 477-487 (1997).
 A hybrid Gaussian and plane wave density functional scheme.
 https://doi.org/10.1080/002689797170220

 S. Goedecker, M. Teter, J. Hutter.
 Phys. Rev. B 54, 1703-1710 (1996).
 Separable dual-space Gaussian pseudopotentials.
 https://doi.org/10.1103/PhysRevB.54.1703

 J. P. Perdew, K. Burke, M. Ernzerhof.
 Phys. Rev. Lett. 77, 3865-3868 (1996).
 Generalized gradient approximation made simple.
 https://doi.org/10.1103/PhysRevLett.77.3865


 -------------------------------------------------------------------------------
 -                                                                             -
 -                                T I M I N G                                  -
 -                                                                             -
 -------------------------------------------------------------------------------
 SUBROUTINE                       CALLS  ASD         SELF TIME        TOTAL TIME
                                MAXIMUM       AVERAGE  MAXIMUM  AVERAGE  MAXIMUM
 CP2K                                 1  1.0    0.014    0.018  728.749  728.749
 qs_energies                          1  2.0    0.016    0.097  728.462  728.508
 scf_env_do_scf                       1  3.0    0.000    0.000  719.710  719.710
 scf_env_do_scf_inner_loop           51  4.0    0.054    0.055  719.710  719.710
 do_general_diag_kp                  52  5.9    0.385    0.416  643.027  654.682
 qs_scf_new_mos_kp                   51  5.0    0.001    0.001  637.485  649.168
 rskp_transform                   26408  7.0  302.780  339.692  302.780  339.692
 mp_alltoall_i22                 191232  8.8   66.222  221.657   66.222  221.657
 kpoint_density_transform            51  7.0    0.170    0.188  188.916  189.032
 dbcsr_desymmetrize_deep         108968  7.5    3.048    3.207   61.846  171.039
 transform_dmat                   13056  8.0  142.428  159.892  142.428  159.892
 dbcsr_complete_redistribute      82264  8.3    5.676    6.108   50.508   96.934
 copy_fm_to_dbcsr                 26112  8.0    0.181    0.187   28.781   74.768
 qs_ks_update_qs_env                 51  5.0    0.000    0.001   41.038   46.942
 rebuild_ks_matrix                   51  6.0    0.000    0.000   38.583   44.486
 qs_ks_build_kohn_sham_matrix        51  7.0    0.099    0.101   38.582   44.486
 sum_up_and_integrate                51  8.0    0.001    0.001   36.301   42.236
 integrate_v_rspace                  51  9.0    0.263    0.426   36.298   42.233
 grid_integrate_task_list            51 10.0   35.323   41.066   35.323   41.066
 cp_cfm_geeig                      1669  6.9    0.021    0.025   39.319   40.009
 copy_dbcsr_to_fm                 56152  6.9    0.672    0.696   35.971   36.842
 qs_rho_update_rho_low               52  5.0    0.000    0.000   33.668   33.692
 calculate_rho_elec                  52  6.0    0.127    0.145   33.668   33.692
 grid_collocate_task_list            52  7.0   28.237   32.558   28.237   32.558
 cp_fm_start_copy_general         78928  7.3    5.356    5.877   28.632   28.761
 cp_cfm_heevd                      1669  7.9    0.003    0.003   28.064   28.625
 cp_cfm_heevd_base                 1669  8.9   28.061   28.622   28.061   28.622
 mp_allgather_i                  157856  8.3   19.847   20.206   19.847   20.206
 transfer_rs2pw                     210  8.0    0.003    0.003    5.047   14.746
 density_rs2pw                       52  7.0    0.002    0.003    5.299   14.722
 transfer_rs2pw_500                  54  8.9    0.214    0.238    4.877   14.600
 mp_sendrecv_dv                    1470 10.0    4.778   14.452    4.778   14.452
 mp_alltoall_d11v                573696  9.4   12.578   13.600   12.578   13.600
 dbcsr_finalize                  209640  8.6    1.032    1.084    7.765    8.139
 hybrid_alltoall_any             108968  8.5    0.485    0.560    7.025    7.783
 cp_cfm_triangular_multiply        5007  7.9    7.672    7.753    7.672    7.753
 kpoint_density_matrices             51  7.0    0.098    0.103    5.425    5.529
 cp_fm_finish_copy_general        32788  7.8    5.345    5.413    5.434    5.496
 parallel_gemm_fm                  6528  8.0    0.009    0.009    5.159    5.252
 parallel_gemm_fm_gemm             6528  9.0    0.008    0.009    5.151    5.244
 cp_fm_gemm                        6528 10.0    5.142    5.235    5.142    5.235
 mp_alltoall_i11v                355760  9.0    4.134    4.888    4.134    4.888
 mp_cart_sub                     112306  8.9    4.789    4.818    4.789    4.818
 dbcsr_merge_all                  82264 10.3    2.147    2.426    4.453    4.810
 write_kpoints_restart               51  5.0    0.013    0.019    4.649    4.651
 mp_cart_create                   56159  8.9    3.107    3.179    3.107    3.179
 cp_fm_write_unformatted           3336  6.0    0.988    2.168    1.324    2.496
 evaluate_core_matrix_traces         51  6.0    0.000    0.000    2.455    2.455
 calculate_ptrace_kp                102  7.0    0.086    0.091    2.455    2.455
 dbcsr_dot                       113425  8.0    1.319    1.415    2.400    2.453
 mp_bcast_iv                     315735  8.3    1.995    2.272    1.995    2.272
 dbcsr_copy                      140648  7.0    0.796    0.830    1.969    2.114
 dbcsr_create_new                395065  8.1    1.651    1.699    1.992    2.047
 dbcsr_work_create               191232  8.8    1.212    1.244    1.961    2.040
 fft_wrap_pw1pw2                    923 10.0    0.010    0.012    2.001    2.036
 fft_wrap_pw1pw2_500                614 11.3    0.149    0.155    1.856    1.889
 copy_dbcsr_to_fm_bc              56152  7.9    1.099    1.132    1.769    1.822
 self_consistency_check              51  5.0    0.084    0.091    1.626    1.806
 cp_cfm_cholesky_decompose         1669  7.9    1.675    1.698    1.675    1.698
 cp_cfm_triangular_invert          1669  7.9    1.680    1.697    1.680    1.697
 qs_energies_init_hamiltonians        1  3.0    0.000    0.000    1.694    1.694
 copy_fm_to_dbcsr_bc              26112  9.0    0.465    0.483    1.542    1.632
 fft3d_ps                           923 12.0    0.704    0.721    1.587    1.627
 dbcsr_iterator_start            690427  8.9    1.285    1.339    1.519    1.603
 dbcsr_work_destroy_all          191232  9.8    0.915    0.930    1.523    1.561
 cp_dbcsr_alloc_block_from_nbl     8092  5.1    1.144    1.311    1.362    1.548
 cp_sm_mix                        56712  6.0    0.626    0.682    1.258    1.510
 tree_to_linear_d                 82264 11.3    1.417    1.451    1.417    1.451
 kpoint_set_mo_occupation            51  7.0    0.187    0.188    0.963    1.422
 qs_vxc_create                       51  8.0    0.001    0.001    1.399    1.404
 xc_vxc_pw_create                    51  9.0    0.058    0.058    1.398    1.403
 build_core_hamiltonian_matrix        1  4.0    0.004    0.004    1.242    1.394
 dbcsr_data_new                 2061482  9.7    1.288    1.361    1.288    1.361
 gspace_mixing                       50  5.0    0.052    0.052    1.331    1.331
 dbcsr_data_release             2969845 10.1    1.270    1.295    1.270    1.295
 mp_sum_dm3                          51  8.0    0.776    1.236    0.776    1.236
 mp_sum_d                        114255  9.0    0.806    1.210    0.806    1.210
 broyden_mixing                      50  6.0    1.072    1.093    1.106    1.114
 mp_send_dv                        3336  7.0    0.294    1.112    0.294    1.112
 dbcsr_copy_into_existing         27224  9.8    0.810    0.919    0.973    1.083
 dbcsr_destroy                   281641  8.2    0.505    0.513    0.980    1.031
 dbcsr_set                       255381  7.7    0.265    0.273    0.925    0.994
 dbcsr_iterator_stop             690427  8.9    0.803    0.825    0.953    0.974
 mp_max_d                         56714  7.0    0.499    0.911    0.499    0.911
 xc_pw_derive                       306 11.0    0.001    0.001    0.894    0.897
 mp_alltoall_z22v                   923 14.0    0.763    0.820    0.763    0.820
 init_scf_run                         1  3.0    0.000    0.000    0.724    0.776
 scf_env_initial_rho_setup            1  4.0    0.000    0.000    0.724    0.776
 xc_rho_set_and_dset_create          51 10.0    0.029    0.029    0.764    0.771
 mp_waitall_1                    327087  8.3    0.453    0.745    0.453    0.745
 potential_pw2rs                     51 10.0    0.004    0.004    0.711    0.741
 dbcsr_zero                      255381  8.7    0.660    0.726    0.660    0.726
 quick_finalize                  108968  9.5    0.383    0.390    0.669    0.686
 mp_bcast_im                     157856  8.3    0.600    0.682    0.600    0.682
 mp_isend_dv                      79520  8.3    0.579    0.644    0.579    0.644
 dbcsr_data_copy_aa2              82264 11.3    0.505    0.620    0.505    0.620
 qs_env_update_s_mstruct              1  4.0    0.000    0.000    0.413    0.613
 cp_cfm_scale_and_add_fm           6676  6.9    0.555    0.576    0.555    0.576
 xc_pw_divergence                    51 10.0    0.001    0.001    0.569    0.572
 mp_comm_free                    168499  8.9    0.498    0.561    0.498    0.561
 dbcsr_reserve_blocks             34204  9.8    0.494    0.521    0.530    0.558
 x_to_yz                            510 13.2    0.072    0.074    0.503    0.530
 transfer_pw2rs                     205 11.0    0.001    0.002    0.479    0.479
 calculate_rho_core                   1  5.0    0.001    0.002    0.174    0.448
 mixing_allocate                      1  3.0    0.007    0.007    0.402    0.433
 yz_to_x                            413 12.8    0.040    0.042    0.372    0.415
 dbcsr_reserve_all_blocks         26112 10.0    0.051    0.055    0.366    0.400
 transfer_pw2rs_500                  52 11.9    0.179    0.183    0.348    0.362
 dbcsr_sort_indices              225436 10.8    0.333    0.350    0.333    0.350
 build_kinetic_matrix_low             1  5.0    0.058    0.078    0.253    0.330
 mp_recv_dv                       10008  7.0    0.041    0.328    0.041    0.328
 build_core_ppl                       1  5.0    0.251    0.316    0.251    0.316
 cp_cfm_to_fm                      1669  6.9    0.291    0.298    0.291    0.298
 build_overlap_matrix_low             1  5.0    0.058    0.078    0.246    0.284
 build_core_ppnl                      1  5.0    0.254    0.271    0.254    0.271
 dbcsr_iterator_seek             690427  9.9    0.234    0.264    0.234    0.264
 xc_functional_eval                  51 11.0    0.000    0.001    0.254    0.259
 pbe_lda_eval                        51 12.0    0.254    0.258    0.254    0.258
 dbcsr_make_index_exist          395065  9.1    0.223    0.237    0.223    0.237
 cp_cfm_to_cfm_columns             1669  7.9    0.207    0.218    0.207    0.218
 qs_env_rebuild_rho                   1  5.0    0.000    0.000    0.196    0.216
 qs_rho_rebuild                       1  6.0    0.003    0.003    0.196    0.216
 merge_index                      82264 11.3    0.169    0.176    0.169    0.176
 mp_irecv_iv                     315712  8.3    0.022    0.173    0.022    0.173
 cp_fm_to_fm_matrix                3264  8.0    0.166    0.172    0.166    0.172
 mp_sum_dv                          346  3.6    0.081    0.168    0.081    0.168
 transfer_rs2pw_170                  52  9.0    0.042    0.044    0.133    0.167
 pw_scatter_p                       510 12.2    0.138    0.140    0.138    0.140
 mp_isendrecv_dv                   1435 13.0    0.050    0.138    0.050    0.138
 dbcsr_switch_data_area          108968 10.5    0.102    0.107    0.133    0.138
 cp_fm_cleanup_copy_general       56080  7.0    0.090    0.090    0.133    0.134
 mp_isend_iv                     177736  8.3    0.034    0.123    0.034    0.123
 pw_poisson_solve                    51  8.0    0.001    0.001    0.121    0.123
 transfer_pw2rs_170                  51 12.0    0.045    0.048    0.099    0.113
 calculate_ecore_overlap              1  4.0    0.000    0.000    0.025    0.099
 fft_wrap_pw1pw2_170                103 10.5    0.007    0.008    0.093    0.097
 dbcsr_get_data_size_used        191232  9.8    0.089    0.094    0.089    0.094
 calculate_first_density_matrix       1  5.0    0.001    0.001    0.041    0.093
 restraint_control                    1  2.0    0.000    0.000    0.046    0.092
 mp_sum_i                             4  2.8    0.046    0.092    0.046    0.092
 dbcsr_distribution_new           82266  8.6    0.082    0.090    0.082    0.090
 calculate_atomic_block_dm            1  6.0    0.001    0.001    0.035    0.087
 mp_irecv_im2                    157856  8.3    0.010    0.081    0.010    0.081
 pw_integral_ab_c1d_c1d_gs           51  9.0    0.075    0.076    0.078    0.079
 qs_scf_ensure_work_matrices          1  3.0    0.000    0.000    0.021    0.078
 mp_sum_iv                           24  5.3    0.021    0.078    0.021    0.078
 parser_read_line                  4393  4.1    0.001    0.002    0.076    0.078
 parser_read_line_low                22  6.3    0.007    0.028    0.075    0.077
 cp_fm_create                       474  4.2    0.071    0.074    0.071    0.074
 -------------------------------------------------------------------------------

 The number of warnings for this run is : 1
 
 -------------------------------------------------------------------------------
  **** **** ******  **  PROGRAM ENDED AT                 2025-08-04 22:39:39.342
 ***** ** ***  *** **   PROGRAM RAN ON                              i01r11c02s01
 **    ****   ******    PROGRAM RAN BY                                   di38fab
 ***** **    ** ** **   PROGRAM PROCESS ID                               1323629
  **** **  *******  **  PROGRAM STOPPED IN /hppfs/scratch/04/di38fab/09_GTH/Delt
                                           a_Set/F/aug-DZVP-MOLOPT-GTH-tier-2/8x
                                           8x8
