Ta                                      
   1.00000000000000     
     3.321690    0.000000    0.000000
     0.000000    3.321690    0.000000
     0.000000    0.000000    3.321690
   Ta
     2
Direct
  0.000000  0.000000  0.000000
  0.500000  0.500000  0.500000
 
   28   28   28
  158.47      156.54      149.84      136.47      115.67      89.436      62.277      39.229      23.389      14.746    
  10.875      9.0701      8.2801      7.9943      7.9302      7.9943      8.2801      9.0701      10.875      14.746    
  23.389      39.229      62.277      89.436      115.67      136.47      149.84      156.54      156.54      154.52    
  147.56      133.95      113.11      87.126      60.491      38.081      22.803      14.526      10.810      9.0580    
  8.2894      8.0095      7.9462      8.0095      8.2894      9.0580      10.810      14.526      22.803      38.081    
  60.491      87.126      113.11      133.95      147.56      154.52      149.84      147.56      140.02      125.95    
  105.24      80.236      55.292      34.809      21.168      13.923      10.623      9.0240      8.3162      8.0532    
  7.9922      8.0532      8.3162      9.0240      10.623      13.923      21.168      34.809      55.292      80.236    
  105.24      125.95      140.02      147.56      136.47      133.95      125.95      111.79      92.014      69.183    
  47.287      29.965      18.842      13.084      10.344      8.9742      8.3570      8.1191      8.0615      8.1191    
  8.3570      8.9742      10.344      13.084      18.842      29.965      47.287      69.183      92.014      111.79    
  125.95      133.95      115.67      113.11      105.24      92.014      74.505      55.286      37.717      24.462    
  16.328      12.168      10.014      8.9158      8.4046      8.1961      8.1424      8.1961      8.4046      8.9158    
  10.014      12.168      16.328      24.462      37.717      55.286      74.505      92.014      105.24      113.11    
  89.436      87.126      80.236      69.183      55.286      40.822      28.296      19.353      14.092      11.264    
  9.6803      8.8536      8.4479      8.2685      8.2187      8.2685      8.4479      8.8536      9.6803      11.264    
  14.092      19.353      28.296      40.822      55.286      69.183      80.236      87.126      62.277      60.491    
  55.292      47.287      37.717      28.296      20.608      15.407      12.327      10.457      9.3780      8.7879    
  8.4737      8.3197      8.2734      8.3197      8.4737      8.7879      9.3780      10.457      12.327      15.407    
  20.608      28.296      37.717      47.287      55.292      60.491      39.229      38.081      34.809      29.965    
  24.462      19.353      15.407      12.749      10.959      9.8121      9.1230      8.7143      8.4706      8.3367    
  8.2933      8.3367      8.4706      8.7143      9.1230      9.8121      10.959      12.749      15.407      19.353    
  24.462      29.965      34.809      38.081      23.389      22.803      21.168      18.842      16.328      14.092    
  12.327      10.959      9.9824      9.3341      8.9111      8.6268      8.4326      8.3140      8.2734      8.3140    
  8.4326      8.6268      8.9111      9.3341      9.9824      10.959      12.327      14.092      16.328      18.842    
  21.168      22.803      14.746      14.526      13.923      13.084      12.168      11.264      10.457      9.8121    
  9.3341      8.9875      8.7271      8.5215      8.3616      8.2560      8.2187      8.2560      8.3616      8.5215    
  8.7271      8.9875      9.3341      9.8121      10.457      11.264      12.168      13.084      13.923      14.526    
  10.875      10.810      10.623      10.344      10.014      9.6803      9.3780      9.1230      8.9111      8.7271    
  8.5580      8.4012      8.2674      8.1754      8.1424      8.1754      8.2674      8.4012      8.5580      8.7271    
  8.9111      9.1230      9.3780      9.6803      10.014      10.344      10.623      10.810      9.0701      9.0580    
  9.0240      8.9742      8.9158      8.8536      8.7879      8.7143      8.6268      8.5215      8.4012      8.2768    
  8.1662      8.0892      8.0615      8.0892      8.1662      8.2768      8.4012      8.5215      8.6268      8.7143    
  8.7879      8.8536      8.9158      8.9742      9.0240      9.0580      8.2801      8.2894      8.3162      8.3570    
  8.4046      8.4479      8.4737      8.4706      8.4326      8.3616      8.2674      8.1662      8.0761      8.0142    
  7.9922      8.0142      8.0761      8.1662      8.2674      8.3616      8.4326      8.4706      8.4737      8.4479    
  8.4046      8.3570      8.3162      8.2894      7.9943      8.0095      8.0532      8.1191      8.1961      8.2685    
  8.3197      8.3367      8.3140      8.2560      8.1754      8.0892      8.0142      7.9639      7.9462      7.9639    
  8.0142      8.0892      8.1754      8.2560      8.3140      8.3367      8.3197      8.2685      8.1961      8.1191    
  8.0532      8.0095      7.9302      7.9462      7.9922      8.0615      8.1424      8.2187      8.2734      8.2933    
  8.2734      8.2187      8.1424      8.0615      7.9922      7.9462      7.9302      7.9462      7.9922      8.0615    
  8.1424      8.2187      8.2734      8.2933      8.2734      8.2187      8.1424      8.0615      7.9922      7.9462    
  7.9943      8.0095      8.0532      8.1191      8.1961      8.2685      8.3197      8.3367      8.3140      8.2560    
  8.1754      8.0892      8.0142      7.9639      7.9462      7.9639      8.0142      8.0892      8.1754      8.2560    
  8.3140      8.3367      8.3197      8.2685      8.1961      8.1191      8.0532      8.0095      8.2801      8.2894    
  8.3162      8.3570      8.4046      8.4479      8.4737      8.4706      8.4326      8.3616      8.2674      8.1662    
  8.0761      8.0142      7.9922      8.0142      8.0761      8.1662      8.2674      8.3616      8.4326      8.4706    
  8.4737      8.4479      8.4046      8.3570      8.3162      8.2894      9.0701      9.0580      9.0240      8.9742    
  8.9158      8.8536      8.7879      8.7143      8.6268      8.5215      8.4012      8.2768      8.1662      8.0892    
  8.0615      8.0892      8.1662      8.2768      8.4012      8.5215      8.6268      8.7143      8.7879      8.8536    
  8.9158      8.9742      9.0240      9.0580      10.875      10.810      10.623      10.344      10.014      9.6803    
  9.3780      9.1230      8.9111      8.7271      8.5580      8.4012      8.2674      8.1754      8.1424      8.1754    
  8.2674      8.4012      8.5580      8.7271      8.9111      9.1230      9.3780      9.6803      10.014      10.344    
  10.623      10.810      14.746      14.526      13.923      13.084      12.168      11.264      10.457      9.8121    
  9.3341      8.9875      8.7271      8.5215      8.3616      8.2560      8.2187      8.2560      8.3616      8.5215    
  8.7271      8.9875      9.3341      9.8121      10.457      11.264      12.168      13.084      13.923      14.526    
  23.389      22.803      21.168      18.842      16.328      14.092      12.327      10.959      9.9824      9.3341    
  8.9111      8.6268      8.4326      8.3140      8.2734      8.3140      8.4326      8.6268      8.9111      9.3341    
  9.9824      10.959      12.327      14.092      16.328      18.842      21.168      22.803      39.229      38.081    
  34.809      29.965      24.462      19.353      15.407      12.749      10.959      9.8121      9.1230      8.7143    
  8.4706      8.3367      8.2933      8.3367      8.4706      8.7143      9.1230      9.8121      10.959      12.749    
  15.407      19.353      24.462      29.965      34.809      38.081      62.277      60.491      55.292      47.287    
  37.717      28.296      20.608      15.407      12.327      10.457      9.3780      8.7879      8.4737      8.3197    
  8.2734      8.3197      8.4737      8.7879      9.3780      10.457      12.327      15.407      20.608      28.296    
  37.717      47.287      55.292      60.491      89.436      87.126      80.236      69.183      55.286      40.822    
  28.296      19.353      14.092      11.264      9.6803      8.8536      8.4479      8.2685      8.2187      8.2685    
  8.4479      8.8536      9.6803      11.264      14.092      19.353      28.296      40.822      55.286      69.183    
  80.236      87.126      115.67      113.11      105.24      92.014      74.505      55.286      37.717      24.462    
  16.328      12.168      10.014      8.9158      8.4046      8.1961      8.1424      8.1961      8.4046      8.9158    
  10.014      12.168      16.328      24.462      37.717      55.286      74.505      92.014      105.24      113.11    
  136.47      133.95      125.95      111.79      92.014      69.183      47.287      29.965      18.842      13.084    
  10.344      8.9742      8.3570      8.1191      8.0615      8.1191      8.3570      8.9742      10.344      13.084    
  18.842      29.965      47.287      69.183      92.014      111.79      125.95      133.95      149.84      147.56    
  140.02      125.95      105.24      80.236      55.292      34.809      21.168      13.923      10.623      9.0240    
  8.3162      8.0532      7.9922      8.0532      8.3162      9.0240      10.623      13.923      21.168      34.809    
  55.292      80.236      105.24      125.95      140.02      147.56      156.54      154.52      147.56      133.95    
  113.11      87.126      60.491      38.081      22.803      14.526      10.810      9.0580      8.2894      8.0095    
  7.9462      8.0095      8.2894      9.0580      10.810      14.526      22.803      38.081      60.491      87.126    
  113.11      133.95      147.56      154.52      156.54      154.52      147.56      133.95      113.11      87.126    
  60.491      38.081      22.803      14.526      10.810      9.0580      8.2894      8.0095      7.9462      8.0095    
  8.2894      9.0580      10.810      14.526      22.803      38.081      60.491      87.126      113.11      133.95    
  147.56      154.52      154.52      152.39      145.21      131.39      110.53      84.835      58.739      36.966    
  22.240      14.318      10.748      9.0482      8.3004      8.0264      7.9639      8.0264      8.3004      9.0482    
  10.748      14.318      22.240      36.966      58.739      84.835      110.53      131.39      145.21      152.39    
  147.56      145.21      137.50      123.30      102.67      78.027      53.652      33.797      20.675      13.749    
  10.572      9.0207      8.3321      8.0745      8.0142      8.0745      8.3321      9.0207      10.572      13.749    
  20.675      33.797      53.652      78.027      102.67      123.30      137.50      145.21      133.95      131.39    
  123.30      109.14      89.567      67.167      45.855      29.122      18.455      12.954      10.308      8.9802    
  8.3794      8.1461      8.0892      8.1461      8.3794      8.9802      10.308      12.954      18.455      29.122    
  45.855      67.167      89.567      109.14      123.30      131.39      113.11      110.53      102.67      89.567    
  72.353      53.603      36.585      23.838      16.063      12.082      9.9968      8.9318      8.4335      8.2286    
  8.1754      8.2286      8.4335      8.9318      9.9968      12.082      16.063      23.838      36.585      53.603    
  72.353      89.567      102.67      110.53      87.126      84.835      78.027      67.167      53.603      39.579    
  27.515      18.957      13.939      11.214      9.6814      8.8788      8.4824      8.3055      8.2560      8.3055    
  8.4824      8.8788      9.6814      11.214      13.939      18.957      27.515      39.579      53.603      67.167    
  78.027      84.835      60.491      58.739      53.652      45.855      36.585      27.515      20.157      15.200    
  12.248      10.440      9.3951      8.8207      8.5125      8.3601      8.3140      8.3601      8.5125      8.8207    
  9.3951      10.440      12.248      15.200      20.157      27.515      36.585      45.855      53.652      58.739    
  38.081      36.966      33.797      29.122      23.838      18.957      15.200      12.658      10.929      9.8209    
  9.1524      8.7530      8.5129      8.3799      8.3367      8.3799      8.5129      8.7530      9.1524      9.8209    
  10.929      12.658      15.200      18.957      23.838      29.122      33.797      36.966      22.803      22.240    
  20.675      18.455      16.063      13.939      12.248      10.929      9.9877      9.3607      8.9489      8.6699    
  8.4780      8.3601      8.3197      8.3601      8.4780      8.6699      8.9489      9.3607      9.9877      10.929    
  12.248      13.939      16.063      18.455      20.675      22.240      14.526      14.318      13.749      12.954    
  12.082      11.214      10.440      9.8209      9.3607      9.0249      8.7705      8.5682      8.4101      8.3055    
  8.2685      8.3055      8.4101      8.5682      8.7705      9.0249      9.3607      9.8209      10.440      11.214    
  12.082      12.954      13.749      14.318      10.810      10.748      10.572      10.308      9.9968      9.6814    
  9.3951      9.1524      8.9489      8.7705      8.6051      8.4510      8.3193      8.2286      8.1961      8.2286    
  8.3193      8.4510      8.6051      8.7705      8.9489      9.1524      9.3951      9.6814      9.9968      10.308    
  10.572      10.748      9.0580      9.0482      9.0207      8.9802      8.9318      8.8788      8.8207      8.7530    
  8.6699      8.5682      8.4510      8.3295      8.2214      8.1461      8.1191      8.1461      8.2214      8.3295    
  8.4510      8.5682      8.6699      8.7530      8.8207      8.8788      8.9318      8.9802      9.0207      9.0482    
  8.2894      8.3004      8.3321      8.3794      8.4335      8.4824      8.5125      8.5129      8.4780      8.4101    
  8.3193      8.2214      8.1343      8.0745      8.0532      8.0745      8.1343      8.2214      8.3193      8.4101    
  8.4780      8.5129      8.5125      8.4824      8.4335      8.3794      8.3321      8.3004      8.0095      8.0264    
  8.0745      8.1461      8.2286      8.3055      8.3601      8.3799      8.3601      8.3055      8.2286      8.1461    
  8.0745      8.0264      8.0095      8.0264      8.0745      8.1461      8.2286      8.3055      8.3601      8.3799    
  8.3601      8.3055      8.2286      8.1461      8.0745      8.0264      7.9462      7.9639      8.0142      8.0892    
  8.1754      8.2560      8.3140      8.3367      8.3197      8.2685      8.1961      8.1191      8.0532      8.0095    
  7.9943      8.0095      8.0532      8.1191      8.1961      8.2685      8.3197      8.3367      8.3140      8.2560    
  8.1754      8.0892      8.0142      7.9639      8.0095      8.0264      8.0745      8.1461      8.2286      8.3055    
  8.3601      8.3799      8.3601      8.3055      8.2286      8.1461      8.0745      8.0264      8.0095      8.0264    
  8.0745      8.1461      8.2286      8.3055      8.3601      8.3799      8.3601      8.3055      8.2286      8.1461    
  8.0745      8.0264      8.2894      8.3004      8.3321      8.3794      8.4335      8.4824      8.5125      8.5129    
  8.4780      8.4101      8.3193      8.2214      8.1343      8.0745      8.0532      8.0745      8.1343      8.2214    
  8.3193      8.4101      8.4780      8.5129      8.5125      8.4824      8.4335      8.3794      8.3321      8.3004    
  9.0580      9.0482      9.0207      8.9802      8.9318      8.8788      8.8207      8.7530      8.6699      8.5682    
  8.4510      8.3295      8.2214      8.1461      8.1191      8.1461      8.2214      8.3295      8.4510      8.5682    
  8.6699      8.7530      8.8207      8.8788      8.9318      8.9802      9.0207      9.0482      10.810      10.748    
  10.572      10.308      9.9968      9.6814      9.3951      9.1524      8.9489      8.7705      8.6051      8.4510    
  8.3193      8.2286      8.1961      8.2286      8.3193      8.4510      8.6051      8.7705      8.9489      9.1524    
  9.3951      9.6814      9.9968      10.308      10.572      10.748      14.526      14.318      13.749      12.954    
  12.082      11.214      10.440      9.8209      9.3607      9.0249      8.7705      8.5682      8.4101      8.3055    
  8.2685      8.3055      8.4101      8.5682      8.7705      9.0249      9.3607      9.8209      10.440      11.214    
  12.082      12.954      13.749      14.318      22.803      22.240      20.675      18.455      16.063      13.939    
  12.248      10.929      9.9877      9.3607      8.9489      8.6699      8.4780      8.3601      8.3197      8.3601    
  8.4780      8.6699      8.9489      9.3607      9.9877      10.929      12.248      13.939      16.063      18.455    
  20.675      22.240      38.081      36.966      33.797      29.122      23.838      18.957      15.200      12.658    
  10.929      9.8209      9.1524      8.7530      8.5129      8.3799      8.3367      8.3799      8.5129      8.7530    
  9.1524      9.8209      10.929      12.658      15.200      18.957      23.838      29.122      33.797      36.966    
  60.491      58.739      53.652      45.855      36.585      27.515      20.157      15.200      12.248      10.440    
  9.3951      8.8207      8.5125      8.3601      8.3140      8.3601      8.5125      8.8207      9.3951      10.440    
  12.248      15.200      20.157      27.515      36.585      45.855      53.652      58.739      87.126      84.835    
  78.027      67.167      53.603      39.579      27.515      18.957      13.939      11.214      9.6814      8.8788    
  8.4824      8.3055      8.2560      8.3055      8.4824      8.8788      9.6814      11.214      13.939      18.957    
  27.515      39.579      53.603      67.167      78.027      84.835      113.11      110.53      102.67      89.567    
  72.353      53.603      36.585      23.838      16.063      12.082      9.9968      8.9318      8.4335      8.2286    
  8.1754      8.2286      8.4335      8.9318      9.9968      12.082      16.063      23.838      36.585      53.603    
  72.353      89.567      102.67      110.53      133.95      131.39      123.30      109.14      89.567      67.167    
  45.855      29.122      18.455      12.954      10.308      8.9802      8.3794      8.1461      8.0892      8.1461    
  8.3794      8.9802      10.308      12.954      18.455      29.122      45.855      67.167      89.567      109.14    
  123.30      131.39      147.56      145.21      137.50      123.30      102.67      78.027      53.652      33.797    
  20.675      13.749      10.572      9.0207      8.3321      8.0745      8.0142      8.0745      8.3321      9.0207    
  10.572      13.749      20.675      33.797      53.652      78.027      102.67      123.30      137.50      145.21    
  154.52      152.39      145.21      131.39      110.53      84.835      58.739      36.966      22.240      14.318    
  10.748      9.0482      8.3004      8.0264      7.9639      8.0264      8.3004      9.0482      10.748      14.318    
  22.240      36.966      58.739      84.835      110.53      131.39      145.21      152.39      149.84      147.56    
  140.02      125.95      105.24      80.236      55.292      34.809      21.168      13.923      10.623      9.0240    
  8.3162      8.0532      7.9922      8.0532      8.3162      9.0240      10.623      13.923      21.168      34.809    
  55.292      80.236      105.24      125.95      140.02      147.56      147.56      145.21      137.50      123.30    
  102.67      78.027      53.652      33.797      20.675      13.749      10.572      9.0207      8.3321      8.0745    
  8.0142      8.0745      8.3321      9.0207      10.572      13.749      20.675      33.797      53.652      78.027    
  102.67      123.30      137.50      145.21      140.02      137.50      129.44      115.10      94.940      71.522    
  48.924      30.936      19.311      13.269      10.425      9.0113      8.3768      8.1343      8.0761      8.1343    
  8.3768      9.0113      10.425      13.269      19.311      30.936      48.924      71.522      94.940      115.10    
  129.44      137.50      125.95      123.30      115.10      101.13      82.311      61.307      41.770      26.762    
  17.390      12.596      10.206      8.9961      8.4417      8.2214      8.1662      8.2214      8.4417      8.9961    
  10.206      12.596      17.390      26.762      41.770      61.307      82.311      101.13      115.10      123.30    
  105.24      102.67      94.940      82.311      66.082      48.778      33.397      22.108      15.339      11.838    
  9.9471      8.9758      8.5141      8.3193      8.2674      8.3193      8.5141      8.9758      9.9471      11.838    
  15.339      22.108      33.397      48.778      66.082      82.311      94.940      102.67      80.236      78.027    
  71.522      61.307      48.778      36.068      25.343      17.870      13.516      11.073      9.6841      8.9497    
  8.5796      8.4101      8.3616      8.4101      8.5796      8.9497      9.6841      11.073      13.516      17.870    
  25.343      36.068      48.778      61.307      71.522      78.027      55.292      53.652      48.924      41.770    
  33.397      25.343      18.920      14.634      12.022      10.392      9.4444      8.9155      8.6252      8.4780    
  8.4326      8.4780      8.6252      8.9155      9.4444      10.392      12.022      14.634      18.920      25.343    
  33.397      41.770      48.924      53.652      34.809      33.797      30.936      26.762      22.108      17.870    
  14.634      12.398      10.846      9.8482      9.2396      8.8693      8.6415      8.5129      8.4706      8.5129    
  8.6415      8.8693      9.2396      9.8482      10.846      12.398      14.634      17.870      22.108      26.762    
  30.936      33.797      21.168      20.675      19.311      17.390      15.339      13.516      12.022      10.846    
  10.006      9.4416      9.0660      8.8067      8.6252      8.5125      8.4737      8.5125      8.6252      8.8067    
  9.0660      9.4416      10.006      10.846      12.022      13.516      15.339      17.390      19.311      20.675    
  13.923      13.749      13.269      12.596      11.838      11.073      10.392      9.8482      9.4416      9.1420    
  8.9117      8.7260      8.5796      8.4824      8.4479      8.4824      8.5796      8.7260      8.9117      9.1420    
  9.4416      9.8482      10.392      11.073      11.838      12.596      13.269      13.749      10.623      10.572    
  10.425      10.206      9.9471      9.6841      9.4444      9.2396      9.0660      8.9117      8.7668      8.6308    
  8.5141      8.4335      8.4046      8.4335      8.5141      8.6308      8.7668      8.9117      9.0660      9.2396    
  9.4444      9.6841      9.9471      10.206      10.425      10.572      9.0240      9.0207      9.0113      8.9961    
  8.9758      8.9497      8.9155      8.8693      8.8067      8.7260      8.6308      8.5310      8.4417      8.3794    
  8.3570      8.3794      8.4417      8.5310      8.6308      8.7260      8.8067      8.8693      8.9155      8.9497    
  8.9758      8.9961      9.0113      9.0207      8.3162      8.3321      8.3768      8.4417      8.5141      8.5796    
  8.6252      8.6415      8.6252      8.5796      8.5141      8.4417      8.3768      8.3321      8.3162      8.3321    
  8.3768      8.4417      8.5141      8.5796      8.6252      8.6415      8.6252      8.5796      8.5141      8.4417    
  8.3768      8.3321      8.0532      8.0745      8.1343      8.2214      8.3193      8.4101      8.4780      8.5129    
  8.5125      8.4824      8.4335      8.3794      8.3321      8.3004      8.2894      8.3004      8.3321      8.3794    
  8.4335      8.4824      8.5125      8.5129      8.4780      8.4101      8.3193      8.2214      8.1343      8.0745    
  7.9922      8.0142      8.0761      8.1662      8.2674      8.3616      8.4326      8.4706      8.4737      8.4479    
  8.4046      8.3570      8.3162      8.2894      8.2801      8.2894      8.3162      8.3570      8.4046      8.4479    
  8.4737      8.4706      8.4326      8.3616      8.2674      8.1662      8.0761      8.0142      8.0532      8.0745    
  8.1343      8.2214      8.3193      8.4101      8.4780      8.5129      8.5125      8.4824      8.4335      8.3794    
  8.3321      8.3004      8.2894      8.3004      8.3321      8.3794      8.4335      8.4824      8.5125      8.5129    
  8.4780      8.4101      8.3193      8.2214      8.1343      8.0745      8.3162      8.3321      8.3768      8.4417    
  8.5141      8.5796      8.6252      8.6415      8.6252      8.5796      8.5141      8.4417      8.3768      8.3321    
  8.3162      8.3321      8.3768      8.4417      8.5141      8.5796      8.6252      8.6415      8.6252      8.5796    
  8.5141      8.4417      8.3768      8.3321      9.0240      9.0207      9.0113      8.9961      8.9758      8.9497    
  8.9155      8.8693      8.8067      8.7260      8.6308      8.5310      8.4417      8.3794      8.3570      8.3794    
  8.4417      8.5310      8.6308      8.7260      8.8067      8.8693      8.9155      8.9497      8.9758      8.9961    
  9.0113      9.0207      10.623      10.572      10.425      10.206      9.9471      9.6841      9.4444      9.2396    
  9.0660      8.9117      8.7668      8.6308      8.5141      8.4335      8.4046      8.4335      8.5141      8.6308    
  8.7668      8.9117      9.0660      9.2396      9.4444      9.6841      9.9471      10.206      10.425      10.572    
  13.923      13.749      13.269      12.596      11.838      11.073      10.392      9.8482      9.4416      9.1420    
  8.9117      8.7260      8.5796      8.4824      8.4479      8.4824      8.5796      8.7260      8.9117      9.1420    
  9.4416      9.8482      10.392      11.073      11.838      12.596      13.269      13.749      21.168      20.675    
  19.311      17.390      15.339      13.516      12.022      10.846      10.006      9.4416      9.0660      8.8067    
  8.6252      8.5125      8.4737      8.5125      8.6252      8.8067      9.0660      9.4416      10.006      10.846    
  12.022      13.516      15.339      17.390      19.311      20.675      34.809      33.797      30.936      26.762    
  22.108      17.870      14.634      12.398      10.846      9.8482      9.2396      8.8693      8.6415      8.5129    
  8.4706      8.5129      8.6415      8.8693      9.2396      9.8482      10.846      12.398      14.634      17.870    
  22.108      26.762      30.936      33.797      55.292      53.652      48.924      41.770      33.397      25.343    
  18.920      14.634      12.022      10.392      9.4444      8.9155      8.6252      8.4780      8.4326      8.4780    
  8.6252      8.9155      9.4444      10.392      12.022      14.634      18.920      25.343      33.397      41.770    
  48.924      53.652      80.236      78.027      71.522      61.307      48.778      36.068      25.343      17.870    
  13.516      11.073      9.6841      8.9497      8.5796      8.4101      8.3616      8.4101      8.5796      8.9497    
  9.6841      11.073      13.516      17.870      25.343      36.068      48.778      61.307      71.522      78.027    
  105.24      102.67      94.940      82.311      66.082      48.778      33.397      22.108      15.339      11.838    
  9.9471      8.9758      8.5141      8.3193      8.2674      8.3193      8.5141      8.9758      9.9471      11.838    
  15.339      22.108      33.397      48.778      66.082      82.311      94.940      102.67      125.95      123.30    
  115.10      101.13      82.311      61.307      41.770      26.762      17.390      12.596      10.206      8.9961    
  8.4417      8.2214      8.1662      8.2214      8.4417      8.9961      10.206      12.596      17.390      26.762    
  41.770      61.307      82.311      101.13      115.10      123.30      140.02      137.50      129.44      115.10    
  94.940      71.522      48.924      30.936      19.311      13.269      10.425      9.0113      8.3768      8.1343    
  8.0761      8.1343      8.3768      9.0113      10.425      13.269      19.311      30.936      48.924      71.522    
  94.940      115.10      129.44      137.50      147.56      145.21      137.50      123.30      102.67      78.027    
  53.652      33.797      20.675      13.749      10.572      9.0207      8.3321      8.0745      8.0142      8.0745    
  8.3321      9.0207      10.572      13.749      20.675      33.797      53.652      78.027      102.67      123.30    
  137.50      145.21      136.47      133.95      125.95      111.79      92.014      69.183      47.287      29.965    
  18.842      13.084      10.344      8.9742      8.3570      8.1191      8.0615      8.1191      8.3570      8.9742    
  10.344      13.084      18.842      29.965      47.287      69.183      92.014      111.79      125.95      133.95    
  133.95      131.39      123.30      109.14      89.567      67.167      45.855      29.122      18.455      12.954    
  10.308      8.9802      8.3794      8.1461      8.0892      8.1461      8.3794      8.9802      10.308      12.954    
  18.455      29.122      45.855      67.167      89.567      109.14      123.30      131.39      125.95      123.30    
  115.10      101.13      82.311      61.307      41.770      26.762      17.390      12.596      10.206      8.9961    
  8.4417      8.2214      8.1662      8.2214      8.4417      8.9961      10.206      12.596      17.390      26.762    
  41.770      61.307      82.311      101.13      115.10      123.30      111.79      109.14      101.13      87.918    
  70.774      52.303      35.701      23.373      15.908      12.079      10.053      9.0174      8.5310      8.3295    