Ta                                      
   1.00000000000000     
     3.321690    0.000000    0.000000
     0.000000    3.321690    0.000000
     0.000000    0.000000    3.321690
   Ta
     2
Direct
  0.000000  0.000000  0.000000
  0.500000  0.500000  0.500000
 
   28   28   28
 0.15846831055E+03 0.15654490977E+03 0.14983971587E+03 0.13646931077E+03 0.11567436916E+03
 0.89436111587E+02 0.62276913323E+02 0.39229238415E+02 0.23388652095E+02 0.14745731634E+02
 0.10874986100E+02 0.90701265250E+01 0.82800993979E+01 0.79942897919E+01 0.79302241505E+01
 0.79942897919E+01 0.82800993979E+01 0.90701265250E+01 0.10874986100E+02 0.14745731634E+02
 0.23388652095E+02 0.39229238415E+02 0.62276913323E+02 0.89436111587E+02 0.11567436916E+03
 0.13646931077E+03 0.14983971587E+03 0.15654490977E+03 0.15654490977E+03 0.15451730528E+03
 0.14756075703E+03 0.13395030449E+03 0.11310892257E+03 0.87125966831E+02 0.60491221558E+02
 0.38080797782E+02 0.22802539946E+02 0.14525976332E+02 0.10809513534E+02 0.90579849319E+01
 0.82893518147E+01 0.80094910793E+01 0.79462331322E+01 0.80094910388E+01 0.82893516994E+01
 0.90579846944E+01 0.10809513149E+02 0.14525975832E+02 0.22802539420E+02 0.38080797319E+02
 0.60491221159E+02 0.87125966364E+02 0.11310892185E+03 0.13395030347E+03 0.14756075595E+03
 0.15451730457E+03 0.14983971587E+03 0.14756075703E+03 0.14002411537E+03 0.12594609390E+03
 0.10523565827E+03 0.80236103352E+02 0.55292162329E+02 0.34809113909E+02 0.21168317641E+02
 0.13923352506E+02 0.10622900254E+02 0.90239626198E+01 0.83161528719E+01 0.80531793907E+01
 0.79922079963E+01 0.80531793169E+01 0.83161526662E+01 0.90239622033E+01 0.10622899588E+02
 0.13923351647E+02 0.21168316740E+02 0.34809113121E+02 0.55292161670E+02 0.80236102620E+02
 0.10523565718E+03 0.12594609236E+03 0.14002411373E+03 0.14756075595E+03 0.13646931077E+03
 0.13395030449E+03 0.12594609390E+03 0.11179051767E+03 0.92013551095E+02 0.69183224876E+02
 0.47287025834E+02 0.29964841970E+02 0.18841884455E+02 0.13083676764E+02 0.10343601962E+02
 0.89742034134E+01 0.83569899217E+01 0.81191152857E+01 0.80615248667E+01 0.81191151901E+01
 0.83569896647E+01 0.89742029091E+01 0.10343601175E+02 0.13083675765E+02 0.18841883419E+02
 0.29964841077E+02 0.47287025115E+02 0.69183224140E+02 0.92013550052E+02 0.11179051622E+03
 0.12594609236E+03 0.13395030347E+03 0.11567436916E+03 0.11310892257E+03 0.10523565827E+03
 0.92013551096E+02 0.74504687017E+02 0.55286284899E+02 0.37716583216E+02 0.24461966738E+02
 0.16327966907E+02 0.12167934543E+02 0.10014077158E+02 0.89158261480E+01 0.84046108226E+01
 0.81960506174E+01 0.81423852384E+01 0.81960505108E+01 0.84046105512E+01 0.89158256408E+01
 0.10014076397E+02 0.12167933608E+02 0.16327965961E+02 0.24461965939E+02 0.37716582594E+02
 0.55286284310E+02 0.74504686240E+02 0.92013550050E+02 0.10523565717E+03 0.11310892184E+03
 0.89436111587E+02 0.87125966833E+02 0.80236103354E+02 0.69183224877E+02 0.55286284900E+02
 0.40821686211E+02 0.28295715657E+02 0.19352711465E+02 0.14092239440E+02 0.11264117046E+02
 0.96803013023E+01 0.88536374550E+01 0.84478805925E+01 0.82684794506E+01 0.82187103759E+01
 0.82684793391E+01 0.84478803273E+01 0.88536369913E+01 0.96803006458E+01 0.11264116280E+02
 0.14092238697E+02 0.19352710850E+02 0.28295715170E+02 0.40821685740E+02 0.55286284308E+02
 0.69183224138E+02 0.80236102618E+02 0.87125966363E+02 0.62276913323E+02 0.60491221559E+02
 0.55292162331E+02 0.47287025835E+02 0.37716583217E+02 0.28295715658E+02 0.20607835698E+02
 0.15407188720E+02 0.12327198237E+02 0.10457133951E+02 0.93780377144E+01 0.87878830335E+01
 0.84737012285E+01 0.83197353830E+01 0.82734244063E+01 0.83197352673E+01 0.84737009713E+01
 0.87878826152E+01 0.93780371610E+01 0.10457133344E+02 0.12327197675E+02 0.15407188248E+02
 0.20607835271E+02 0.28295715170E+02 0.37716582593E+02 0.47287025113E+02 0.55292161668E+02
 0.60491221158E+02 0.39229238415E+02 0.38080797783E+02 0.34809113910E+02 0.29964841971E+02
 0.24461966739E+02 0.19352711465E+02 0.15407188720E+02 0.12749458371E+02 0.10958789197E+02
 0.98120965923E+01 0.91230466939E+01 0.87143013708E+01 0.84706160347E+01 0.83366852313E+01
 0.82933226829E+01 0.83366851115E+01 0.84706157800E+01 0.87143009767E+01 0.91230461961E+01
 0.98120960663E+01 0.10958788714E+02 0.12749457934E+02 0.15407188248E+02 0.19352710849E+02
 0.24461965937E+02 0.29964841075E+02 0.34809113120E+02 0.38080797318E+02 0.23388652095E+02
 0.22802539946E+02 0.21168317641E+02 0.18841884454E+02 0.16327966906E+02 0.14092239440E+02
 0.12327198237E+02 0.10958789198E+02 0.99824204071E+01 0.93340846585E+01 0.89110822363E+01
 0.86267584736E+01 0.84326194386E+01 0.83140041881E+01 0.82734244064E+01 0.83140040701E+01
 0.84326191899E+01 0.86267580923E+01 0.89110817564E+01 0.93340841456E+01 0.99824199146E+01
 0.10958788714E+02 0.12327197675E+02 0.14092238697E+02 0.16327965960E+02 0.18841883419E+02
 0.21168316740E+02 0.22802539419E+02 0.14745731634E+02 0.14525976331E+02 0.13923352505E+02
 0.13083676763E+02 0.12167934542E+02 0.11264117046E+02 0.10457133951E+02 0.98120965923E+01
 0.93340846586E+01 0.89875297655E+01 0.87271422270E+01 0.85215009564E+01 0.83615867228E+01
 0.82560333422E+01 0.82187103760E+01 0.82560332390E+01 0.83615864997E+01 0.85215006047E+01
 0.87271417706E+01 0.89875292581E+01 0.93340841456E+01 0.98120960663E+01 0.10457133344E+02
 0.11264116281E+02 0.12167933608E+02 0.13083675766E+02 0.13923351647E+02 0.14525975832E+02
 0.10874986100E+02 0.10809513533E+02 0.10622900253E+02 0.10343601961E+02 0.10014077157E+02
 0.96803013015E+01 0.93780377142E+01 0.91230466940E+01 0.89110822365E+01 0.87271422271E+01
 0.85579705459E+01 0.84011929874E+01 0.82674485896E+01 0.81754035214E+01 0.81423852385E+01
 0.81754034470E+01 0.82674484187E+01 0.84011927009E+01 0.85579701540E+01 0.87271417705E+01
 0.89110817564E+01 0.91230461963E+01 0.93780371613E+01 0.96803006464E+01 0.10014076398E+02
 0.10343601176E+02 0.10622899589E+02 0.10809513150E+02 0.90701265250E+01 0.90579849313E+01
 0.90239626188E+01 0.89742034122E+01 0.89158261470E+01 0.88536374543E+01 0.87878830333E+01
 0.87143013709E+01 0.86267584738E+01 0.85215009566E+01 0.84011929876E+01 0.82768063380E+01
 0.81661531256E+01 0.80891676542E+01 0.80615248668E+01 0.80891676146E+01 0.81661530217E+01
 0.82768061436E+01 0.84011927008E+01 0.85215006045E+01 0.86267580922E+01 0.87143009768E+01
 0.87878826156E+01 0.88536369919E+01 0.89158256416E+01 0.89742029100E+01 0.90239622041E+01
 0.90579846949E+01 0.82800993979E+01 0.82893518143E+01 0.83161528713E+01 0.83569899210E+01
 0.84046108220E+01 0.84478805921E+01 0.84737012284E+01 0.84706160348E+01 0.84326194388E+01
 0.83615867230E+01 0.82674485897E+01 0.81661531257E+01 0.80761266938E+01 0.80142351461E+01
 0.79922079964E+01 0.80142351342E+01 0.80761266485E+01 0.81661530216E+01 0.82674484185E+01
 0.83615864995E+01 0.84326191897E+01 0.84706157800E+01 0.84737009716E+01 0.84478803277E+01
 0.84046105518E+01 0.83569896653E+01 0.83161526667E+01 0.82893516997E+01 0.79942897919E+01
 0.80094910791E+01 0.80531793905E+01 0.81191152855E+01 0.81960506172E+01 0.82684794505E+01
 0.83197353830E+01 0.83366852314E+01 0.83140041881E+01 0.82560333423E+01 0.81754035214E+01
 0.80891676542E+01 0.80142351461E+01 0.79638976702E+01 0.79462331322E+01 0.79638976704E+01
 0.80142351342E+01 0.80891676145E+01 0.81754034468E+01 0.82560332387E+01 0.83140040699E+01
 0.83366851115E+01 0.83197352675E+01 0.82684793394E+01 0.81960505111E+01 0.81191151904E+01
 0.80531793172E+01 0.80094910390E+01 0.79302241505E+01 0.79462331322E+01 0.79922079964E+01
 0.80615248668E+01 0.81423852385E+01 0.82187103760E+01 0.82734244064E+01 0.82933226829E+01
 0.82734244063E+01 0.82187103759E+01 0.81423852384E+01 0.80615248667E+01 0.79922079963E+01
 0.79462331322E+01 0.79302241505E+01 0.79462331322E+01 0.79922079963E+01 0.80615248667E+01
 0.81423852384E+01 0.82187103759E+01 0.82734244063E+01 0.82933226829E+01 0.82734244064E+01
 0.82187103760E+01 0.81423852385E+01 0.80615248668E+01 0.79922079964E+01 0.79462331322E+01
 0.79942897919E+01 0.80094910390E+01 0.80531793172E+01 0.81191151904E+01 0.81960505111E+01
 0.82684793394E+01 0.83197352675E+01 0.83366851115E+01 0.83140040699E+01 0.82560332387E+01
 0.81754034468E+01 0.80891676145E+01 0.80142351342E+01 0.79638976704E+01 0.79462331322E+01
 0.79638976702E+01 0.80142351461E+01 0.80891676542E+01 0.81754035214E+01 0.82560333423E+01
 0.83140041881E+01 0.83366852314E+01 0.83197353830E+01 0.82684794505E+01 0.81960506172E+01
 0.81191152855E+01 0.80531793905E+01 0.80094910791E+01 0.82800993979E+01 0.82893516997E+01
 0.83161526667E+01 0.83569896653E+01 0.84046105518E+01 0.84478803277E+01 0.84737009716E+01
 0.84706157800E+01 0.84326191897E+01 0.83615864995E+01 0.82674484185E+01 0.81661530216E+01
 0.80761266485E+01 0.80142351342E+01 0.79922079964E+01 0.80142351461E+01 0.80761266938E+01
 0.81661531257E+01 0.82674485897E+01 0.83615867230E+01 0.84326194388E+01 0.84706160348E+01
 0.84737012284E+01 0.84478805921E+01 0.84046108220E+01 0.83569899210E+01 0.83161528713E+01
 0.82893518143E+01 0.90701265250E+01 0.90579846949E+01 0.90239622041E+01 0.89742029100E+01
 0.89158256416E+01 0.88536369919E+01 0.87878826156E+01 0.87143009768E+01 0.86267580922E+01
 0.85215006045E+01 0.84011927008E+01 0.82768061436E+01 0.81661530217E+01 0.80891676146E+01
 0.80615248668E+01 0.80891676542E+01 0.81661531256E+01 0.82768063380E+01 0.84011929876E+01
 0.85215009566E+01 0.86267584738E+01 0.87143013709E+01 0.87878830333E+01 0.88536374543E+01
 0.89158261470E+01 0.89742034122E+01 0.90239626188E+01 0.90579849313E+01 0.10874986100E+02
 0.10809513150E+02 0.10622899589E+02 0.10343601176E+02 0.10014076398E+02 0.96803006464E+01
 0.93780371613E+01 0.91230461963E+01 0.89110817564E+01 0.87271417705E+01 0.85579701540E+01
 0.84011927009E+01 0.82674484187E+01 0.81754034470E+01 0.81423852385E+01 0.81754035214E+01
 0.82674485896E+01 0.84011929874E+01 0.85579705459E+01 0.87271422271E+01 0.89110822365E+01
 0.91230466940E+01 0.93780377142E+01 0.96803013015E+01 0.10014077157E+02 0.10343601961E+02
 0.10622900253E+02 0.10809513533E+02 0.14745731634E+02 0.14525975832E+02 0.13923351647E+02
 0.13083675766E+02 0.12167933608E+02 0.11264116281E+02 0.10457133344E+02 0.98120960663E+01
 0.93340841456E+01 0.89875292581E+01 0.87271417706E+01 0.85215006047E+01 0.83615864997E+01
 0.82560332390E+01 0.82187103760E+01 0.82560333422E+01 0.83615867228E+01 0.85215009564E+01
 0.87271422270E+01 0.89875297655E+01 0.93340846586E+01 0.98120965923E+01 0.10457133951E+02
 0.11264117046E+02 0.12167934542E+02 0.13083676763E+02 0.13923352505E+02 0.14525976331E+02
 0.23388652095E+02 0.22802539419E+02 0.21168316740E+02 0.18841883419E+02 0.16327965960E+02
 0.14092238697E+02 0.12327197675E+02 0.10958788714E+02 0.99824199146E+01 0.93340841456E+01
 0.89110817564E+01 0.86267580923E+01 0.84326191899E+01 0.83140040701E+01 0.82734244064E+01
 0.83140041881E+01 0.84326194386E+01 0.86267584736E+01 0.89110822363E+01 0.93340846585E+01
 0.99824204071E+01 0.10958789198E+02 0.12327198237E+02 0.14092239440E+02 0.16327966906E+02
 0.18841884454E+02 0.21168317641E+02 0.22802539946E+02 0.39229238415E+02 0.38080797318E+02
 0.34809113120E+02 0.29964841075E+02 0.24461965937E+02 0.19352710849E+02 0.15407188248E+02
 0.12749457934E+02 0.10958788714E+02 0.98120960663E+01 0.91230461961E+01 0.87143009767E+01
 0.84706157800E+01 0.83366851115E+01 0.82933226829E+01 0.83366852313E+01 0.84706160347E+01
 0.87143013708E+01 0.91230466939E+01 0.98120965923E+01 0.10958789197E+02 0.12749458371E+02
 0.15407188720E+02 0.19352711465E+02 0.24461966739E+02 0.29964841971E+02 0.34809113910E+02
 0.38080797783E+02 0.62276913323E+02 0.60491221158E+02 0.55292161668E+02 0.47287025113E+02
 0.37716582593E+02 0.28295715170E+02 0.20607835271E+02 0.15407188248E+02 0.12327197675E+02
 0.10457133344E+02 0.93780371610E+01 0.87878826152E+01 0.84737009713E+01 0.83197352673E+01
 0.82734244063E+01 0.83197353830E+01 0.84737012285E+01 0.87878830335E+01 0.93780377144E+01
 0.10457133951E+02 0.12327198237E+02 0.15407188720E+02 0.20607835698E+02 0.28295715658E+02
 0.37716583217E+02 0.47287025835E+02 0.55292162331E+02 0.60491221559E+02 0.89436111587E+02
 0.87125966363E+02 0.80236102618E+02 0.69183224138E+02 0.55286284308E+02 0.40821685740E+02
 0.28295715170E+02 0.19352710850E+02 0.14092238697E+02 0.11264116280E+02 0.96803006458E+01
 0.88536369913E+01 0.84478803273E+01 0.82684793391E+01 0.82187103759E+01 0.82684794506E+01
 0.84478805925E+01 0.88536374550E+01 0.96803013023E+01 0.11264117046E+02 0.14092239440E+02
 0.19352711465E+02 0.28295715657E+02 0.40821686211E+02 0.55286284900E+02 0.69183224877E+02
 0.80236103354E+02 0.87125966833E+02 0.11567436916E+03 0.11310892184E+03 0.10523565717E+03
 0.92013550050E+02 0.74504686240E+02 0.55286284310E+02 0.37716582594E+02 0.24461965939E+02
 0.16327965961E+02 0.12167933608E+02 0.10014076397E+02 0.89158256408E+01 0.84046105512E+01
 0.81960505108E+01 0.81423852384E+01 0.81960506174E+01 0.84046108226E+01 0.89158261480E+01
 0.10014077158E+02 0.12167934543E+02 0.16327966907E+02 0.24461966738E+02 0.37716583216E+02
 0.55286284899E+02 0.74504687017E+02 0.92013551096E+02 0.10523565827E+03 0.11310892257E+03
 0.13646931077E+03 0.13395030347E+03 0.12594609236E+03 0.11179051622E+03 0.92013550052E+02
 0.69183224140E+02 0.47287025115E+02 0.29964841077E+02 0.18841883419E+02 0.13083675765E+02
 0.10343601175E+02 0.89742029091E+01 0.83569896647E+01 0.81191151901E+01 0.80615248667E+01
 0.81191152857E+01 0.83569899217E+01 0.89742034134E+01 0.10343601962E+02 0.13083676764E+02
 0.18841884455E+02 0.29964841970E+02 0.47287025834E+02 0.69183224876E+02 0.92013551095E+02
 0.11179051767E+03 0.12594609390E+03 0.13395030449E+03 0.14983971587E+03 0.14756075595E+03
 0.14002411373E+03 0.12594609236E+03 0.10523565718E+03 0.80236102620E+02 0.55292161670E+02
 0.34809113121E+02 0.21168316740E+02 0.13923351647E+02 0.10622899588E+02 0.90239622033E+01
 0.83161526662E+01 0.80531793169E+01 0.79922079963E+01 0.80531793907E+01 0.83161528719E+01
 0.90239626198E+01 0.10622900254E+02 0.13923352506E+02 0.21168317641E+02 0.34809113909E+02
 0.55292162329E+02 0.80236103352E+02 0.10523565827E+03 0.12594609390E+03 0.14002411537E+03
 0.14756075703E+03 0.15654490977E+03 0.15451730457E+03 0.14756075595E+03 0.13395030347E+03
 0.11310892185E+03 0.87125966364E+02 0.60491221159E+02 0.38080797319E+02 0.22802539420E+02
 0.14525975832E+02 0.10809513149E+02 0.90579846944E+01 0.82893516994E+01 0.80094910388E+01
 0.79462331322E+01 0.80094910793E+01 0.82893518147E+01 0.90579849319E+01 0.10809513534E+02
 0.14525976332E+02 0.22802539946E+02 0.38080797782E+02 0.60491221558E+02 0.87125966831E+02
 0.11310892257E+03 0.13395030449E+03 0.14756075703E+03 0.15451730528E+03 0.15654490977E+03
 0.15451730528E+03 0.14756075703E+03 0.13395030449E+03 0.11310892257E+03 0.87125966833E+02
 0.60491221559E+02 0.38080797783E+02 0.22802539946E+02 0.14525976331E+02 0.10809513533E+02
 0.90579849313E+01 0.82893518143E+01 0.80094910791E+01 0.79462331322E+01 0.80094910390E+01
 0.82893516997E+01 0.90579846949E+01 0.10809513150E+02 0.14525975832E+02 0.22802539419E+02
 0.38080797318E+02 0.60491221158E+02 0.87125966363E+02 0.11310892184E+03 0.13395030347E+03
 0.14756075595E+03 0.15451730457E+03 0.15451730528E+03 0.15239267881E+03 0.14520575390E+03
 0.13138694623E+03 0.11053417859E+03 0.84835018615E+02 0.58739259103E+02 0.36965880016E+02
 0.22240308481E+02 0.14318200528E+02 0.10747708471E+02 0.90482220850E+01 0.83004228504E+01
 0.80263643930E+01 0.79638976702E+01 0.80263643196E+01 0.83004226369E+01 0.90482216403E+01
 0.10747707747E+02 0.14318199580E+02 0.22240307464E+02 0.36965879087E+02 0.58739258251E+02
 0.84835017584E+02 0.11053417705E+03 0.13138694412E+03 0.14520575170E+03 0.15239267738E+03
 0.14756075703E+03 0.14520575390E+03 0.13749880321E+03 0.12330022469E+03 0.10267143048E+03
 0.78026574846E+02 0.53652072188E+02 0.33796597435E+02 0.20675486454E+02 0.13748604459E+02
 0.10571558177E+02 0.90207400558E+01 0.83320889994E+01 0.80744699698E+01 0.80142351461E+01
 0.80744698751E+01 0.83320887229E+01 0.90207394806E+01 0.10571557244E+02 0.13748603236E+02
 0.20675485130E+02 0.33796596193E+02 0.53652071006E+02 0.78026573419E+02 0.10267142841E+03
 0.12330022195E+03 0.13749880041E+03 0.14520575208E+03 0.13395030449E+03 0.13138694623E+03
 0.12330022469E+03 0.10914496123E+03 0.89566821786E+02 0.67167029071E+02 0.45855023840E+02
 0.29122032795E+02 0.18454808762E+02 0.12954168458E+02 0.10307925776E+02 0.89801580514E+01
 0.83793944026E+01 0.81461239615E+01 0.80891676542E+01 0.81461238574E+01 0.83793941037E+01
 0.89801574404E+01 0.10307924801E+02 0.12954167194E+02 0.18454807393E+02 0.29122031490E+02
 0.45855022575E+02 0.67167027566E+02 0.89566819699E+02 0.10914495855E+03 0.12330022200E+03
 0.13138694450E+03 0.11310892257E+03 0.11053417859E+03 0.10267143048E+03 0.89566821787E+02
 0.72352942639E+02 0.53602721027E+02 0.36585258203E+02 0.23837791702E+02 0.16063328205E+02
 0.12082024119E+02 0.99968159772E+01 0.89317612081E+01 0.84335347174E+01 0.82285836505E+01
 0.81754035214E+01 0.82285835447E+01 0.84335344265E+01 0.89317606363E+01 0.99968150944E+01
 0.12082023005E+02 0.16063327019E+02 0.23837790569E+02 0.36585257091E+02 0.53602719720E+02
 0.72352940897E+02 0.89566819632E+02 0.10267142837E+03 0.11053417726E+03 0.87125966831E+02
 0.84835018615E+02 0.78026574847E+02 0.67167029072E+02 0.53602721028E+02 0.39578671777E+02
 0.27515008521E+02 0.18956609337E+02 0.13938677789E+02 0.11214243098E+02 0.96814118291E+01
 0.88788292310E+01 0.84823642754E+01 0.83054855866E+01 0.82560333423E+01 0.83054854801E+01
 0.84823640031E+01 0.88788287288E+01 0.96814110947E+01 0.11214242216E+02 0.13938676885E+02
 0.18956608484E+02 0.27515007664E+02 0.39578670754E+02 0.53602719697E+02 0.67167027492E+02
 0.78026573353E+02 0.84835017690E+02 0.60491221558E+02 0.58739259103E+02 0.53652072189E+02
 0.45855023841E+02 0.36585258204E+02 0.27515008521E+02 0.20157234346E+02 0.15200373164E+02
 0.12247623814E+02 0.10440108802E+02 0.93951126610E+01 0.88207334329E+01 0.85125316391E+01
 0.83601352387E+01 0.83140041881E+01 0.83601351275E+01 0.85125313780E+01 0.88207329874E+01
 0.93951120513E+01 0.10440108112E+02 0.12247623142E+02 0.15200372538E+02 0.20157233686E+02
 0.27515007688E+02 0.36585257122E+02 0.45855022602E+02 0.53652071062E+02 0.58739258425E+02
 0.38080797782E+02 0.36965880016E+02 0.33796597436E+02 0.29122032796E+02 0.23837791703E+02
 0.18956609337E+02 0.15200373164E+02 0.12657759633E+02 0.10929073014E+02 0.98209273450E+01
 0.91523853963E+01 0.87530266608E+01 0.85128928024E+01 0.83799209263E+01 0.83366852314E+01
 0.83799208071E+01 0.85128925402E+01 0.87530262405E+01 0.91523848488E+01 0.98209267485E+01
 0.10929072444E+02 0.12657759092E+02 0.15200372560E+02 0.18956608545E+02 0.23837790679E+02
 0.29122031654E+02 0.33796596427E+02 0.36965879421E+02 0.22802539946E+02 0.22240308481E+02
 0.20675486454E+02 0.18454808761E+02 0.16063328205E+02 0.13938677789E+02 0.12247623814E+02
 0.10929073015E+02 0.99877460595E+01 0.93606510124E+01 0.89489242470E+01 0.86699032751E+01
 0.84779684653E+01 0.83601352386E+01 0.83197353830E+01 0.83601351146E+01 0.84779682002E+01
 0.86699028612E+01 0.89489237149E+01 0.93606504291E+01 0.99877454842E+01 0.10929072442E+02
 0.12247623161E+02 0.13938676954E+02 0.16063327163E+02 0.18454807632E+02 0.20675485474E+02
 0.22240307909E+02 0.14525976332E+02 0.14318200528E+02 0.13748604458E+02 0.12954168458E+02
 0.12082024118E+02 0.11214243098E+02 0.10440108802E+02 0.98209273452E+01 0.93606510126E+01
 0.90248965923E+01 0.87705434165E+01 0.85681702073E+01 0.84100666377E+01 0.83054855865E+01
 0.82684794505E+01 0.83054854682E+01 0.84100663845E+01 0.85681698099E+01 0.87705428986E+01
 0.90248960077E+01 0.93606504093E+01 0.98209267213E+01 0.10440108098E+02 0.11214242244E+02
 0.12082023109E+02 0.12954167403E+02 0.13748603561E+02 0.14318200010E+02 0.10809513534E+02
 0.10747708471E+02 0.10571558176E+02 0.10307925775E+02 0.99968159762E+01 0.96814118285E+01
 0.93951126609E+01 0.91523853965E+01 0.89489242473E+01 0.87705434167E+01 0.86050726916E+01
 0.84509791052E+01 0.83192717489E+01 0.82285836503E+01 0.81960506172E+01 0.82285835497E+01
 0.83192715294E+01 0.84509787534E+01 0.86050722220E+01 0.87705428710E+01 0.89489236651E+01
 0.91523847833E+01 0.93951119838E+01 0.96814110507E+01 0.99968151083E+01 0.10307924906E+02
 0.10571557457E+02 0.10747708060E+02 0.90579849319E+01 0.90482220850E+01 0.90207400553E+01
 0.89801580505E+01 0.89317612073E+01 0.88788292304E+01 0.88207334327E+01 0.87530266609E+01
 0.86699032754E+01 0.85681702076E+01 0.84509791054E+01 0.83294902597E+01 0.82213532258E+01
 0.81461239612E+01 0.81191152855E+01 0.81461238839E+01 0.82213530536E+01 0.83294899775E+01
 0.84509787209E+01 0.85681697511E+01 0.86699027798E+01 0.87530261387E+01 0.88207328735E+01
 0.88788286229E+01 0.89317605688E+01 0.89801574420E+01 0.90207395692E+01 0.90482218135E+01
 0.82893518147E+01 0.83004228504E+01 0.83320889991E+01 0.83793944021E+01 0.84335347168E+01
 0.84823642750E+01 0.85125316389E+01 0.85128928024E+01 0.84779684655E+01 0.84100666380E+01
 0.83192717491E+01 0.82213532259E+01 0.81343029665E+01 0.80744699697E+01 0.80531793905E+01
 0.80744699115E+01 0.81343028380E+01 0.82213530163E+01 0.83192714632E+01 0.84100662971E+01
 0.84779680947E+01 0.85128924173E+01 0.85125312437E+01 0.84823638738E+01 0.84335343269E+01
 0.83793940566E+01 0.83320887386E+01 0.83004227102E+01 0.80094910793E+01 0.80263643930E+01
 0.80744699697E+01 0.81461239612E+01 0.82285836503E+01 0.83054855865E+01 0.83601352386E+01
 0.83799209263E+01 0.83601352387E+01 0.83054855866E+01 0.82285836505E+01 0.81461239615E+01
 0.80744699698E+01 0.80263643930E+01 0.80094910791E+01 0.80263643455E+01 0.80744698716E+01
 0.81461238120E+01 0.82285834566E+01 0.83054853621E+01 0.83601349982E+01 0.83799206814E+01
 0.83601349985E+01 0.83054853625E+01 0.82285834571E+01 0.81461238124E+01 0.80744698720E+01
 0.80263643458E+01 0.79462331322E+01 0.79638976702E+01 0.80142351461E+01 0.80891676542E+01
 0.81754035214E+01 0.82560333422E+01 0.83140041881E+01 0.83366852313E+01 0.83197353830E+01
 0.82684794506E+01 0.81960506174E+01 0.81191152857E+01 0.80531793907E+01 0.80094910793E+01
 0.79942897919E+01 0.80094910388E+01 0.80531793169E+01 0.81191151901E+01 0.81960505108E+01
 0.82684793391E+01 0.83197352673E+01 0.83366851115E+01 0.83140040701E+01 0.82560332390E+01
 0.81754034470E+01 0.80891676146E+01 0.80142351342E+01 0.79638976704E+01 0.80094910388E+01
 0.80263643196E+01 0.80744698752E+01 0.81461238575E+01 0.82285835449E+01 0.83054854803E+01
 0.83601351275E+01 0.83799208072E+01 0.83601351146E+01 0.83054854683E+01 0.82285835498E+01
 0.81461238842E+01 0.80744699118E+01 0.80263643458E+01 0.80094910390E+01 0.80263643196E+01
 0.80744698751E+01 0.81461238574E+01 0.82285835447E+01 0.83054854801E+01 0.83601351275E+01
 0.83799208071E+01 0.83601351146E+01 0.83054854682E+01 0.82285835497E+01 0.81461238839E+01
 0.80744699115E+01 0.80263643455E+01 0.82893516994E+01 0.83004226369E+01 0.83320887231E+01
 0.83793941040E+01 0.84335344269E+01 0.84823640034E+01 0.85125313782E+01 0.85128925404E+01
 0.84779682004E+01 0.84100663847E+01 0.83192715297E+01 0.82213530540E+01 0.81343028384E+01
 0.80744698720E+01 0.80531793172E+01 0.80744698752E+01 0.81343028644E+01 0.82213531253E+01
 0.83192716516E+01 0.84100665380E+01 0.84779683534E+01 0.85128926706E+01 0.85125314866E+01
 0.84823641089E+01 0.84335345472E+01 0.83793942371E+01 0.83320888436E+01 0.83004227096E+01
 0.90579846944E+01 0.90482216403E+01 0.90207394809E+01 0.89801574409E+01 0.89317606369E+01
 0.88788287294E+01 0.88207329879E+01 0.87530262410E+01 0.86699028617E+01 0.85681698103E+01
 0.84509787539E+01 0.83294899781E+01 0.82213530169E+01 0.81461238124E+01 0.81191151904E+01
 0.81461238575E+01 0.82213531253E+01 0.83294901661E+01 0.84509790133E+01 0.85681701057E+01
 0.86699031515E+01 0.87530265061E+01 0.88207332438E+01 0.88788290092E+01 0.89317609584E+01
 0.89801577804E+01 0.90207397747E+01 0.90482218125E+01 0.10809513149E+02 0.10747707747E+02
 0.10571557244E+02 0.10307924802E+02 0.99968150950E+01 0.96814110954E+01 0.93951120519E+01
 0.91523848495E+01 0.89489237156E+01 0.87705428992E+01 0.86050722228E+01 0.84509787216E+01
 0.83192714639E+01 0.82285834571E+01 0.81960505111E+01 0.82285835449E+01 0.83192716516E+01
 0.84509790133E+01 0.86050725939E+01 0.87705433001E+01 0.89489241020E+01 0.91523852177E+01
 0.93951124454E+01 0.96814115714E+01 0.99968156707E+01 0.10307925419E+02 0.10571557779E+02
 0.10747708059E+02 0.14525975832E+02 0.14318199580E+02 0.13748603236E+02 0.12954167195E+02
 0.12082023006E+02 0.11214242216E+02 0.10440108113E+02 0.98209267492E+01 0.93606504298E+01
 0.90248960085E+01 0.87705428718E+01 0.85681697519E+01 0.84100662977E+01 0.83054853625E+01
 0.82684793394E+01 0.83054854803E+01 0.84100665379E+01 0.85681701057E+01 0.87705433000E+01
 0.90248964507E+01 0.93606508427E+01 0.98209271475E+01 0.10440108572E+02 0.11214242820E+02
 0.12082023773E+02 0.12954168035E+02 0.13748603969E+02 0.14318200009E+02 0.22802539420E+02
 0.22240307464E+02 0.20675485130E+02 0.18454807392E+02 0.16063327018E+02 0.13938676885E+02
 0.12247623142E+02 0.10929072445E+02 0.99877454848E+01 0.93606504100E+01 0.89489236657E+01
 0.86699027804E+01 0.84779680951E+01 0.83601349985E+01 0.83197352675E+01 0.83601351275E+01
 0.84779683534E+01 0.86699031515E+01 0.89489241020E+01 0.93606508428E+01 0.99877458671E+01
 0.10929072798E+02 0.12247623556E+02 0.13938677463E+02 0.16063327787E+02 0.18454808253E+02
 0.20675485888E+02 0.22240307909E+02 0.38080797319E+02 0.36965879087E+02 0.33796596192E+02
 0.29122031488E+02 0.23837790567E+02 0.18956608483E+02 0.15200372537E+02 0.12657759092E+02
 0.10929072443E+02 0.98209267217E+01 0.91523847836E+01 0.87530261389E+01 0.85128924173E+01
 0.83799206814E+01 0.83366851115E+01 0.83799208072E+01 0.85128926707E+01 0.87530265062E+01
 0.91523852178E+01 0.98209271476E+01 0.10929072798E+02 0.12657759377E+02 0.15200372828E+02
 0.18956608881E+02 0.23837791117E+02 0.29122032123E+02 0.33796596759E+02 0.36965879422E+02
 0.60491221159E+02 0.58739258251E+02 0.53652071005E+02 0.45855022572E+02 0.36585257089E+02
 0.27515007663E+02 0.20157233685E+02 0.15200372560E+02 0.12247623162E+02 0.10440108098E+02
 0.93951119837E+01 0.88207328733E+01 0.85125312433E+01 0.83601349982E+01 0.83140040699E+01
 0.83601351146E+01 0.85125314868E+01 0.88207332442E+01 0.93951124459E+01 0.10440108572E+02
 0.12247623557E+02 0.15200372828E+02 0.20157233857E+02 0.27515007827E+02 0.36585257318E+02
 0.45855022866E+02 0.53652071290E+02 0.58739258427E+02 0.87125966364E+02 0.84835017584E+02
 0.78026573417E+02 0.67167027564E+02 0.53602719718E+02 0.39578670752E+02 0.27515007688E+02
 0.18956608545E+02 0.13938676954E+02 0.11214242243E+02 0.96814110502E+01 0.88788286222E+01
 0.84823638732E+01 0.83054853621E+01 0.82560332387E+01 0.83054854683E+01 0.84823641093E+01
 0.88788290100E+01 0.96814115724E+01 0.11214242821E+02 0.13938677464E+02 0.18956608881E+02
 0.27515007827E+02 0.39578670770E+02 0.53602719732E+02 0.67167027649E+02 0.78026573557E+02
 0.84835017693E+02 0.11310892185E+03 0.11053417705E+03 0.10267142841E+03 0.89566819698E+02
 0.72352940896E+02 0.53602719697E+02 0.36585257123E+02 0.23837790680E+02 0.16063327163E+02
 0.12082023109E+02 0.99968151073E+01 0.89317605678E+01 0.84335343261E+01 0.82285834566E+01
 0.81754034468E+01 0.82285835498E+01 0.84335345478E+01 0.89317609596E+01 0.99968156722E+01
 0.12082023774E+02 0.16063327787E+02 0.23837791117E+02 0.36585257317E+02 0.53602719731E+02
 0.72352940939E+02 0.89566819871E+02 0.10267142869E+03 0.11053417726E+03 0.13395030347E+03
 0.13138694412E+03 0.12330022195E+03 0.10914495855E+03 0.89566819633E+02 0.67167027493E+02
 0.45855022603E+02 0.29122031655E+02 0.18454807632E+02 0.12954167402E+02 0.10307924904E+02
 0.89801574408E+01 0.83793940557E+01 0.81461238120E+01 0.80891676145E+01 0.81461238842E+01
 0.83793942379E+01 0.89801577818E+01 0.10307925420E+02 0.12954168036E+02 0.18454808254E+02
 0.29122032123E+02 0.45855022865E+02 0.67167027647E+02 0.89566819870E+02 0.10914495898E+03
 0.12330022249E+03 0.13138694451E+03 0.14756075595E+03 0.14520575170E+03 0.13749880041E+03
 0.12330022200E+03 0.10267142837E+03 0.78026573356E+02 0.53652071065E+02 0.33796596428E+02
 0.20675485474E+02 0.13748603560E+02 0.10571557455E+02 0.90207395680E+01 0.83320887379E+01
 0.80744698716E+01 0.80142351342E+01 0.80744699118E+01 0.83320888444E+01 0.90207397761E+01
 0.10571557780E+02 0.13748603970E+02 0.20675485888E+02 0.33796596758E+02 0.53652071288E+02
 0.78026573554E+02 0.10267142868E+03 0.12330022249E+03 0.13749880097E+03 0.14520575208E+03
 0.15451730457E+03 0.15239267738E+03 0.14520575208E+03 0.13138694451E+03 0.11053417726E+03
 0.84835017693E+02 0.58739258427E+02 0.36965879422E+02 0.22240307909E+02 0.14318200009E+02
 0.10747708059E+02 0.90482218125E+01 0.83004227096E+01 0.80263643455E+01 0.79638976704E+01
 0.80263643458E+01 0.83004227102E+01 0.90482218135E+01 0.10747708060E+02 0.14318200010E+02
 0.22240307909E+02 0.36965879421E+02 0.58739258425E+02 0.84835017690E+02 0.11053417726E+03
 0.13138694450E+03 0.14520575208E+03 0.15239267738E+03 0.14983971587E+03 0.14756075703E+03
 0.14002411537E+03 0.12594609390E+03 0.10523565827E+03 0.80236103354E+02 0.55292162331E+02
 0.34809113910E+02 0.21168317641E+02 0.13923352505E+02 0.10622900253E+02 0.90239626188E+01
 0.83161528713E+01 0.80531793905E+01 0.79922079964E+01 0.80531793172E+01 0.83161526667E+01
 0.90239622041E+01 0.10622899589E+02 0.13923351647E+02 0.21168316740E+02 0.34809113120E+02
 0.55292161668E+02 0.80236102618E+02 0.10523565717E+03 0.12594609236E+03 0.14002411373E+03
 0.14756075595E+03 0.14756075703E+03 0.14520575390E+03 0.13749880321E+03 0.12330022469E+03
 0.10267143048E+03 0.78026574847E+02 0.53652072189E+02 0.33796597436E+02 0.20675486454E+02
 0.13748604458E+02 0.10571558176E+02 0.90207400553E+01 0.83320889991E+01 0.80744699697E+01
 0.80142351461E+01 0.80744698752E+01 0.83320887231E+01 0.90207394809E+01 0.10571557244E+02
 0.13748603236E+02 0.20675485130E+02 0.33796596192E+02 0.53652071005E+02 0.78026573417E+02
 0.10267142841E+03 0.12330022195E+03 0.13749880041E+03 0.14520575208E+03 0.14002411537E+03
 0.13749880321E+03 0.12944088168E+03 0.11510218627E+03 0.94940435042E+02 0.71521699713E+02