   2   2   0   0
  0.1832514E+02  0.3321690E-09  0.3321690E-09  0.3321690E-09  0.5000000E-15
  1.000000000000000E-004
  CAR 
 Ta                                      
     26.84436747    -36.64696546  301      5.32579541      1.00000000
    -36.647  0.0000E+00  0.0000E+00
    -36.435  0.0000E+00  0.0000E+00
    -36.224  0.0000E+00  0.0000E+00
    -36.012  0.0000E+00  0.0000E+00
    -35.800  0.0000E+00  0.0000E+00
    -35.589  0.0000E+00  0.0000E+00
    -35.377  0.0000E+00  0.0000E+00
    -35.166  0.0000E+00  0.0000E+00
    -34.954  0.0000E+00  0.0000E+00
    -34.742  0.0000E+00  0.0000E+00
    -34.531  0.0000E+00  0.0000E+00
    -34.319  0.0000E+00  0.0000E+00
    -34.107  0.0000E+00  0.0000E+00
    -33.896  0.2955E-05  0.6255E-06
    -33.684  0.1547E+01  0.3275E+00
    -33.472  0.1433E+02  0.3359E+01
    -33.261  0.2972E+01  0.3988E+01
    -33.049  0.5473E-01  0.4000E+01
    -32.837  0.0000E+00  0.4000E+01
    -32.626  0.0000E+00  0.4000E+01
    -32.414  0.0000E+00  0.4000E+01
    -32.203  0.0000E+00  0.4000E+01
    -31.991  0.0000E+00  0.4000E+01
    -31.779  0.0000E+00  0.4000E+01
    -31.568  0.0000E+00  0.4000E+01
    -31.356  0.0000E+00  0.4000E+01
    -31.144  0.0000E+00  0.4000E+01
    -30.933  0.0000E+00  0.4000E+01
    -30.721  0.0000E+00  0.4000E+01
    -30.509  0.0000E+00  0.4000E+01
    -30.298  0.0000E+00  0.4000E+01
    -30.086  0.0000E+00  0.4000E+01
    -29.875  0.0000E+00  0.4000E+01
    -29.663  0.0000E+00  0.4000E+01
    -29.451  0.0000E+00  0.4000E+01
    -29.240  0.0000E+00  0.4000E+01
    -29.028  0.0000E+00  0.4000E+01
    -28.816  0.0000E+00  0.4000E+01
    -28.605  0.0000E+00  0.4000E+01
    -28.393  0.0000E+00  0.4000E+01
    -28.181  0.0000E+00  0.4000E+01
    -27.970  0.0000E+00  0.4000E+01
    -27.758  0.0000E+00  0.4000E+01
    -27.547  0.0000E+00  0.4000E+01
    -27.335  0.0000E+00  0.4000E+01
    -27.123  0.0000E+00  0.4000E+01
    -26.912  0.0000E+00  0.4000E+01
    -26.700  0.0000E+00  0.4000E+01
    -26.488  0.1308E-13  0.4000E+01
    -26.277  0.1076E+00  0.4023E+01
    -26.065  0.1195E+02  0.6552E+01
    -25.853  0.5540E+01  0.7724E+01
    -25.642  0.5784E+01  0.8948E+01
    -25.430  0.9713E+01  0.1100E+02
    -25.219  0.4608E+01  0.1198E+02
    -25.007  0.9891E-01  0.1200E+02
    -24.795  0.0000E+00  0.1200E+02
    -24.584  0.0000E+00  0.1200E+02
    -24.372  0.0000E+00  0.1200E+02
    -24.160  0.0000E+00  0.1200E+02
    -23.949  0.0000E+00  0.1200E+02
    -23.737  0.0000E+00  0.1200E+02
    -23.525  0.0000E+00  0.1200E+02
    -23.314  0.0000E+00  0.1200E+02
    -23.102  0.0000E+00  0.1200E+02
    -22.891  0.0000E+00  0.1200E+02
    -22.679  0.0000E+00  0.1200E+02
    -22.467  0.0000E+00  0.1200E+02
    -22.256  0.0000E+00  0.1200E+02
    -22.044  0.0000E+00  0.1200E+02
    -21.832  0.0000E+00  0.1200E+02
    -21.621  0.0000E+00  0.1200E+02
    -21.409  0.0000E+00  0.1200E+02
    -21.197  0.0000E+00  0.1200E+02
    -20.986  0.0000E+00  0.1200E+02
    -20.774  0.0000E+00  0.1200E+02
    -20.562  0.0000E+00  0.1200E+02
    -20.351  0.0000E+00  0.1200E+02
    -20.139  0.0000E+00  0.1200E+02
    -19.928  0.0000E+00  0.1200E+02
    -19.716  0.0000E+00  0.1200E+02
    -19.504  0.0000E+00  0.1200E+02
    -19.293  0.0000E+00  0.1200E+02
    -19.081  0.0000E+00  0.1200E+02
    -18.869  0.0000E+00  0.1200E+02
    -18.658  0.0000E+00  0.1200E+02
    -18.446  0.0000E+00  0.1200E+02
    -18.234  0.0000E+00  0.1200E+02
    -18.023  0.0000E+00  0.1200E+02
    -17.811  0.0000E+00  0.1200E+02
    -17.600  0.0000E+00  0.1200E+02
    -17.388  0.0000E+00  0.1200E+02
    -17.176  0.0000E+00  0.1200E+02
    -16.965  0.0000E+00  0.1200E+02
    -16.753  0.0000E+00  0.1200E+02
    -16.541  0.0000E+00  0.1200E+02
    -16.330  0.0000E+00  0.1200E+02
    -16.118  0.0000E+00  0.1200E+02
    -15.906  0.0000E+00  0.1200E+02
    -15.695  0.0000E+00  0.1200E+02
    -15.483  0.0000E+00  0.1200E+02
    -15.272  0.0000E+00  0.1200E+02
    -15.060  0.0000E+00  0.1200E+02
    -14.848  0.0000E+00  0.1200E+02
    -14.637  0.0000E+00  0.1200E+02
    -14.425  0.0000E+00  0.1200E+02
    -14.213  0.0000E+00  0.1200E+02
    -14.002  0.0000E+00  0.1200E+02
    -13.790  0.0000E+00  0.1200E+02
    -13.578  0.0000E+00  0.1200E+02
    -13.367  0.0000E+00  0.1200E+02
    -13.155  0.0000E+00  0.1200E+02
    -12.944  0.0000E+00  0.1200E+02
    -12.732  0.0000E+00  0.1200E+02
    -12.520  0.0000E+00  0.1200E+02
    -12.309  0.0000E+00  0.1200E+02
    -12.097  0.0000E+00  0.1200E+02
    -11.885  0.0000E+00  0.1200E+02
    -11.674  0.0000E+00  0.1200E+02
    -11.462  0.0000E+00  0.1200E+02
    -11.250  0.0000E+00  0.1200E+02
    -11.039  0.0000E+00  0.1200E+02
    -10.827  0.0000E+00  0.1200E+02
    -10.616  0.0000E+00  0.1200E+02
    -10.404  0.0000E+00  0.1200E+02
    -10.192  0.0000E+00  0.1200E+02
     -9.981  0.0000E+00  0.1200E+02
     -9.769  0.0000E+00  0.1200E+02
     -9.557  0.0000E+00  0.1200E+02
     -9.346  0.0000E+00  0.1200E+02
     -9.134  0.0000E+00  0.1200E+02
     -8.922  0.0000E+00  0.1200E+02
     -8.711  0.0000E+00  0.1200E+02
     -8.499  0.0000E+00  0.1200E+02
     -8.288  0.0000E+00  0.1200E+02
     -8.076  0.0000E+00  0.1200E+02
     -7.864  0.0000E+00  0.1200E+02
     -7.653  0.0000E+00  0.1200E+02
     -7.441  0.0000E+00  0.1200E+02
     -7.229  0.0000E+00  0.1200E+02
     -7.018  0.0000E+00  0.1200E+02
     -6.806  0.0000E+00  0.1200E+02
     -6.594  0.0000E+00  0.1200E+02
     -6.383  0.0000E+00  0.1200E+02
     -6.171  0.0000E+00  0.1200E+02
     -5.959  0.0000E+00  0.1200E+02
     -5.748  0.0000E+00  0.1200E+02
     -5.536  0.0000E+00  0.1200E+02
     -5.325  0.0000E+00  0.1200E+02
     -5.113  0.0000E+00  0.1200E+02
     -4.901  0.0000E+00  0.1200E+02
     -4.690  0.0000E+00  0.1200E+02
     -4.478  0.0000E+00  0.1200E+02
     -4.266  0.0000E+00  0.1200E+02
     -4.055  0.0000E+00  0.1200E+02
     -3.843  0.0000E+00  0.1200E+02
     -3.631  0.0000E+00  0.1200E+02
     -3.420  0.0000E+00  0.1200E+02
     -3.208  0.0000E+00  0.1200E+02
     -2.997  0.0000E+00  0.1200E+02
     -2.785  0.3947E-17  0.1200E+02
     -2.573  0.1265E-03  0.1200E+02
     -2.362  0.1694E-01  0.1200E+02
     -2.150  0.8110E-01  0.1202E+02
     -1.938  0.5368E-01  0.1203E+02
     -1.727  0.1362E+00  0.1206E+02
     -1.515  0.1547E+00  0.1209E+02
     -1.303  0.6250E-01  0.1211E+02
     -1.092  0.2054E+00  0.1215E+02
     -0.880  0.2256E+00  0.1220E+02
     -0.669  0.1790E+00  0.1224E+02
     -0.457  0.2574E+00  0.1229E+02
     -0.245  0.1310E+00  0.1232E+02
     -0.034  0.4863E+00  0.1242E+02
      0.178  0.3335E+00  0.1249E+02
      0.390  0.3014E+00  0.1256E+02
      0.601  0.4212E+00  0.1264E+02
      0.813  0.3262E+00  0.1271E+02
      1.025  0.1150E+01  0.1296E+02
      1.236  0.1105E+01  0.1319E+02
      1.448  0.1004E+01  0.1340E+02
      1.659  0.1319E+01  0.1368E+02
      1.871  0.1731E+01  0.1405E+02
      2.083  0.1283E+01  0.1432E+02
      2.294  0.1540E+01  0.1465E+02
      2.506  0.2784E+01  0.1524E+02
      2.718  0.2031E+01  0.1567E+02
      2.929  0.1221E+01  0.1592E+02
      3.141  0.1614E+01  0.1627E+02
      3.353  0.4375E+00  0.1636E+02
      3.564  0.7007E+00  0.1651E+02
      3.776  0.1217E+01  0.1676E+02
      3.987  0.4331E+01  0.1768E+02
      4.199  0.3787E+01  0.1848E+02
      4.411  0.2747E+01  0.1906E+02
      4.622  0.2778E+01  0.1965E+02
      4.834  0.2701E+01  0.2022E+02
      5.046  0.3721E+01  0.2101E+02
      5.257  0.3596E+01  0.2177E+02
      5.469  0.2764E+01  0.2236E+02
      5.681  0.2378E+01  0.2286E+02
      5.892  0.1491E+01  0.2318E+02
      6.104  0.1017E+01  0.2339E+02
      6.316  0.7067E+00  0.2354E+02
      6.527  0.7574E+00  0.2370E+02
      6.739  0.4921E+00  0.2380E+02
      6.950  0.4589E+00  0.2390E+02
      7.162  0.1043E+01  0.2412E+02
      7.374  0.9754E+00  0.2433E+02
      7.585  0.1256E+01  0.2459E+02
      7.797  0.1455E+01  0.2490E+02
      8.009  0.1737E+01  0.2527E+02
      8.220  0.1582E+01  0.2560E+02
      8.432  0.1393E+01  0.2590E+02
      8.644  0.2903E+01  0.2651E+02
      8.855  0.1375E+01  0.2680E+02
      9.067  0.2813E+01  0.2740E+02
      9.278  0.2235E+01  0.2787E+02
      9.490  0.2067E+01  0.2831E+02
      9.702  0.2557E+01  0.2885E+02
      9.913  0.2305E+01  0.2934E+02
     10.125  0.5157E+01  0.3043E+02
     10.337  0.4964E+01  0.3148E+02
     10.548  0.3005E+01  0.3212E+02
     10.760  0.1742E+01  0.3249E+02
     10.972  0.1150E+01  0.3273E+02
     11.183  0.4959E+00  0.3283E+02
     11.395  0.1339E+01  0.3312E+02
     11.606  0.9827E+00  0.3333E+02
     11.818  0.1141E+01  0.3357E+02
     12.030  0.4384E+00  0.3366E+02
     12.241  0.5664E+00  0.3378E+02
     12.453  0.6184E+00  0.3391E+02
     12.665  0.1313E+01  0.3419E+02
     12.876  0.8622E+00  0.3437E+02
     13.088  0.6591E+00  0.3451E+02
     13.300  0.7770E+00  0.3468E+02
     13.511  0.7892E+00  0.3484E+02
     13.723  0.9272E+00  0.3504E+02
     13.934  0.1122E+01  0.3528E+02
     14.146  0.3270E+00  0.3534E+02
     14.358  0.7175E+00  0.3550E+02
     14.569  0.8492E+00  0.3568E+02
     14.781  0.1230E+01  0.3594E+02
     14.993  0.4804E+00  0.3604E+02
     15.204  0.3484E+00  0.3611E+02
     15.416  0.8173E+00  0.3629E+02
     15.628  0.8940E+00  0.3647E+02
     15.839  0.1299E+01  0.3675E+02
     16.051  0.9991E+00  0.3696E+02
     16.262  0.6048E+00  0.3709E+02
     16.474  0.1182E+01  0.3734E+02
     16.686  0.1287E+01  0.3761E+02
     16.897  0.7588E+00  0.3777E+02
     17.109  0.4140E+00  0.3786E+02
     17.321  0.1337E+01  0.3814E+02
     17.532  0.9535E+00  0.3834E+02
     17.744  0.6736E+00  0.3849E+02
     17.956  0.1065E+01  0.3871E+02
     18.167  0.1052E+01  0.3893E+02
     18.379  0.1468E+01  0.3925E+02
     18.590  0.1057E+01  0.3947E+02
     18.802  0.1839E+01  0.3986E+02
     19.014  0.1972E+01  0.4028E+02
     19.225  0.1284E+01  0.4055E+02
     19.437  0.1707E+01  0.4091E+02
     19.649  0.1771E+01  0.4128E+02
     19.860  0.1359E+01  0.4157E+02
     20.072  0.1854E+02  0.4550E+02
     20.284  0.1038E+01  0.4572E+02
     20.495  0.7536E+00  0.4588E+02
     20.707  0.1745E+01  0.4624E+02
     20.919  0.7371E+00  0.4640E+02
     21.130  0.1838E+01  0.4679E+02
     21.342  0.3629E+00  0.4687E+02
     21.553  0.2813E+00  0.4693E+02
     21.765  0.9045E+00  0.4712E+02
     21.977  0.7306E+00  0.4727E+02
     22.188  0.6273E+00  0.4740E+02
     22.400  0.1380E+01  0.4770E+02
     22.612  0.6567E+00  0.4784E+02
     22.823  0.1602E+00  0.4787E+02
     23.035  0.2557E-01  0.4788E+02
     23.247  0.2788E+00  0.4793E+02
     23.458  0.1472E+00  0.4797E+02
     23.670  0.5995E-01  0.4798E+02
     23.881  0.7231E-01  0.4799E+02
     24.093  0.3233E-01  0.4800E+02
     24.305  0.2279E-05  0.4800E+02
     24.516  0.0000E+00  0.4800E+02
     24.728  0.0000E+00  0.4800E+02
     24.940  0.0000E+00  0.4800E+02
     25.151  0.0000E+00  0.4800E+02
     25.363  0.0000E+00  0.4800E+02
     25.575  0.0000E+00  0.4800E+02
     25.786  0.0000E+00  0.4800E+02
     25.998  0.0000E+00  0.4800E+02
     26.209  0.0000E+00  0.4800E+02
     26.421  0.0000E+00  0.4800E+02
     26.633  0.0000E+00  0.4800E+02
     26.844  0.0000E+00  0.4800E+02
