    2    2    1    1
  0.1832514E+02  0.3321690E-09  0.3321690E-09  0.3321690E-09  0.5000000E-15
  1.000000000000000E-004
  CAR 
 Ta                                      
     22    294     48
 
  0.0000000E+00  0.0000000E+00  0.0000000E+00  0.5787037E-03
      1        -33.760996   1.000000
      2        -33.760983   1.000000
      3        -33.263481   1.000000
      4        -33.263469   1.000000
      5        -26.174085   1.000000
      6        -26.174067   1.000000
      7        -26.174054   1.000000
      8        -26.174038   1.000000
      9        -25.219289   1.000000
     10        -25.219273   1.000000
     11        -25.219260   1.000000
     12        -25.219246   1.000000
     13         -2.502888   1.000000
     14         -2.502760   1.000000
     15          1.637851   1.000000
     16          1.637851   1.000000
     17          1.637954   1.000000
     18          1.637954   1.000000
     19          5.920496   0.000000
     20          5.920527   0.000000
     21          5.920546   0.000000
     22          5.920575   0.000000
     23          6.334555   0.000000
     24          6.334579   0.000000
     25          9.317440   0.000000
     26          9.317441   0.000000
     27          9.317509   0.000000
     28          9.317510   0.000000
     29         11.832602   0.000000
     30         11.832627   0.000000
     31         11.832642   0.000000
     32         11.832665   0.000000
     33         12.437291   0.000000
     34         12.437309   0.000000
     35         12.575069   0.000000
     36         12.575110   0.000000
     37         14.565905   0.000000
     38         14.565950   0.000000
     39         14.565987   0.000000
     40         14.566029   0.000000
     41         19.874610   0.000000
     42         19.874651   0.000000
     43         19.937389   0.000000
     44         19.937424   0.000000
     45         20.282957   0.000000
     46         20.283085   0.000000
     47         20.283085   0.000000
     48         20.283087   0.000000
 
  0.8333333E-01 -0.2432622E-32  0.0000000E+00  0.3472222E-02
      1        -33.753563   1.000000
      2        -33.753550   1.000000
      3        -33.274303   1.000000
      4        -33.274291   1.000000
      5        -26.169185   1.000000
      6        -26.169158   1.000000
      7        -26.157031   1.000000
      8        -26.157004   1.000000
      9        -25.249134   1.000000
     10        -25.249109   1.000000
     11        -25.234962   1.000000
     12        -25.234937   1.000000
     13         -2.348419   1.000000
     14         -2.348292   1.000000
     15          1.719908   1.000000
     16          1.720011   1.000000
     17          1.754539   1.000000
     18          1.754641   1.000000
     19          5.897078   0.000000
     20          5.897122   0.000000
     21          5.955188   0.000000
     22          5.955220   0.000000
     23          6.349037   0.000000
     24          6.349064   0.000000
     25          9.062972   0.000000
     26          9.063043   0.000000
     27          9.402990   0.000000
     28          9.403058   0.000000
     29         10.780172   0.000000
     30         10.780213   0.000000
     31         11.343653   0.000000
     32         11.343680   0.000000
     33         11.989423   0.000000
     34         11.989469   0.000000
     35         13.077638   0.000000
     36         13.077719   0.000000
     37         14.746762   0.000000
     38         14.746804   0.000000
     39         15.511624   0.000000
     40         15.511687   0.000000
     41         19.906038   0.000000
     42         19.906075   0.000000
     43         19.937455   0.000000
     44         19.937489   0.000000
     45         20.548360   0.000000
     46         20.548435   0.000000
     47         20.549296   0.000000
     48         20.549344   0.000000
 
  0.1666667E+00 -0.1485071E-32  0.0000000E+00  0.3472222E-02
      1        -33.734598   1.000000
      2        -33.734585   1.000000
      3        -33.305897   1.000000
      4        -33.305885   1.000000
      5        -26.154126   1.000000
      6        -26.154099   1.000000
      7        -26.107994   1.000000
      8        -26.107967   1.000000
      9        -25.333335   1.000000
     10        -25.333310   1.000000
     11        -25.281335   1.000000
     12        -25.281311   1.000000
     13         -1.898402   1.000000
     14         -1.898275   1.000000
     15          1.963436   1.000000
     16          1.963539   1.000000
     17          2.063170   1.000000
     18          2.063274   1.000000
     19          5.845792   0.000000
     20          5.845837   0.000000
     21          6.011430   0.000000
     22          6.011453   0.000000
     23          6.456067   0.000000
     24          6.456117   0.000000
     25          8.391045   0.000000
     26          8.391119   0.000000
     27          9.529876   0.000000
     28          9.529919   0.000000
     29          9.644843   0.000000
     30          9.644909   0.000000
     31         10.200237   0.000000
     32         10.200280   0.000000
     33         11.474279   0.000000
     34         11.474341   0.000000
     35         12.252006   0.000000
     36         12.252113   0.000000
     37         16.170088   0.000000
     38         16.170142   0.000000
     39         17.223188   0.000000
     40         17.223247   0.000000
     41         19.925736   0.000000
     42         19.925771   0.000000
     43         19.936620   0.000000
     44         19.936655   0.000000
     45         21.282799   0.000000
     46         21.282885   0.000000
     47         21.315096   0.000000
     48         21.315170   0.000000
 
  0.2500000E+00 -0.1123345E-31  0.0000000E+00  0.3472222E-02
      1        -33.704110   1.000000
      2        -33.704097   1.000000
      3        -33.354578   1.000000
      4        -33.354565   1.000000
      5        -26.123266   1.000000
      6        -26.123239   1.000000
      7        -26.030768   1.000000
      8        -26.030741   1.000000
      9        -25.457543   1.000000
     10        -25.457518   1.000000
     11        -25.355428   1.000000
     12        -25.355403   1.000000
     13         -1.191970   1.000000
     14         -1.191844   1.000000
     15          2.365037   1.000000
     16          2.365138   1.000000
     17          2.432716   1.000000
     18          2.432821   1.000000
     19          5.815150   0.000000
     20          5.815195   0.000000
     21          6.045048   0.000000
     22          6.045083   0.000000
     23          6.719470   0.000000
     24          6.719529   0.000000
     25          7.507881   0.000000
     26          7.507952   0.000000
     27          8.441188   0.000000
     28          8.441233   0.000000
     29          9.082868   0.000000
     30          9.082915   0.000000
     31          9.988309   0.000000
     32          9.988373   0.000000
     33         10.819677   0.000000
     34         10.819745   0.000000
     35         11.135262   0.000000
     36         11.135365   0.000000
     37         18.029742   0.000000
     38         18.029796   0.000000
     39         19.153966   0.000000
     40         19.154023   0.000000
     41         19.931070   0.000000
     42         19.931106   0.000000
     43         19.934928   0.000000
     44         19.934964   0.000000
     45         22.262413   0.000000
     46         22.262515   0.000000
     47         22.493901   0.000000
     48         22.507992   0.000000
 
  0.3333333E+00 -0.5962356E-32  0.0000000E+00  0.3472222E-02
      1        -33.661749   1.000000
      2        -33.661736   1.000000
      3        -33.414434   1.000000
      4        -33.414421   1.000000
      5        -26.070054   1.000000
      6        -26.070027   1.000000
      7        -25.930355   1.000000
      8        -25.930328   1.000000
      9        -25.602229   1.000000
     10        -25.602203   1.000000
     11        -25.452359   1.000000
     12        -25.452333   1.000000
     13         -0.293155   1.000000
     14         -0.293030   1.000000
     15          2.620427   1.000000
     16          2.620536   1.000000
     17          2.919173   1.000000
     18          2.919274   1.000000
     19          5.861252   0.000000
     20          5.861298   0.000000
     21          6.059040   0.000000
     22          6.059068   0.000000
     23          6.472592   0.000000
     24          6.472642   0.000000
     25          7.281224   0.000000
     26          7.281300   0.000000
     27          7.550664   0.000000
     28          7.550709   0.000000
     29          8.126817   0.000000
     30          8.126865   0.000000
     31         10.063596   0.000000
     32         10.063667   0.000000
     33         10.317089   0.000000
     34         10.317149   0.000000
     35         10.343227   0.000000
     36         10.343320   0.000000
     37         19.924218   0.000000
     38         19.924250   0.000000
     39         19.933674   0.000000
     40         19.933709   0.000000
     41         20.017254   0.000000
     42         20.017300   0.000000
     43         21.183413   0.000000
     44         21.183469   0.000000
     45         21.521604   0.000000
     46         21.521738   0.000000
     47         21.546934   0.000000
     48         21.547042   0.000000
 
  0.4166667E+00 -0.1696389E-31  0.0000000E+00  0.3472222E-02
      1        -33.608157   1.000000
      2        -33.608144   1.000000
      3        -33.480507   1.000000
      4        -33.480494   1.000000
      5        -25.989517   1.000000
      6        -25.989491   1.000000
      7        -25.813735   1.000000
      8        -25.813709   1.000000
      9        -25.748509   1.000000
     10        -25.748482   1.000000
     11        -25.566356   1.000000
     12        -25.566331   1.000000
     13          0.704570   1.000000
     14          0.704693   1.000000
     15          2.369128   1.000000
     16          2.369244   1.000000
     17          3.616093   1.000000
     18          3.616192   1.000000
     19          5.351201   0.236204
     20          5.351293   0.235397
     21          6.031402   0.000000
     22          6.031449   0.000000
     23          6.425357   0.000000
     24          6.425404   0.000000
     25          6.861923   0.000000
     26          6.861970   0.000000
     27          7.361534   0.000000
     28          7.361583   0.000000
     29          7.837853   0.000000
     30          7.837931   0.000000
     31          9.277831   0.000000
     32          9.277905   0.000000
     33         10.114870   0.000000
     34         10.114950   0.000000
     35         10.451606   0.000000
     36         10.451666   0.000000
     37         19.910719   0.000000
     38         19.910764   0.000000
     39         19.923010   0.000000
     40         19.923048   0.000000
     41         20.201949   0.000000
     42         20.202075   0.000000
     43         20.411168   0.000000
     44         20.411284   0.000000
     45         22.110220   0.000000
     46         22.110274   0.000000
     47         23.194644   0.000000
     48         23.194700   0.000000
 
  0.5000000E+00 -0.2246691E-31  0.0000000E+00  0.1736111E-02
      1        -33.547045   1.000000
      2        -33.547045   1.000000
      3        -33.547032   1.000000
      4        -33.547032   1.000000
      5        -25.881196   1.000000
      6        -25.881196   1.000000
      7        -25.881169   1.000000
      8        -25.881169   1.000000
      9        -25.689656   1.000000
     10        -25.689656   1.000000
     11        -25.689630   1.000000
     12        -25.689630   1.000000
     13          1.660992   1.000000
     14          1.660992   1.000000
     15          1.661112   1.000000
     16          1.661112   1.000000
     17          4.438417   1.000000
     18          4.438417   1.000000
     19          4.438514   1.000000
     20          4.438514   1.000000
     21          6.359001   0.000000
     22          6.359001   0.000000
     23          6.359048   0.000000
     24          6.359048   0.000000
     25          6.793495   0.000000
     26          6.793495   0.000000
     27          6.793544   0.000000
     28          6.793544   0.000000
     29          8.520867   0.000000
     30          8.520867   0.000000
     31          8.520944   0.000000
     32          8.520944   0.000000
     33         10.299115   0.000000
     34         10.299115   0.000000
     35         10.299182   0.000000
     36         10.299182   0.000000
     37         19.791038   0.000000
     38         19.791038   0.000000
     39         19.791144   0.000000
     40         19.791144   0.000000
     41         19.987630   0.000000
     42         19.987630   0.000000
     43         19.987689   0.000000
     44         19.987689   0.000000
     45         23.958342   0.000000
     46         23.958342   0.000000
     47         23.958398   0.000000
     48         23.958398   0.000000
 
  0.8333333E-01  0.8333333E-01  0.0000000E+00  0.3472222E-02
      1        -33.747487   1.000000
      2        -33.747474   1.000000
      3        -33.285373   1.000000
      4        -33.285361   1.000000
      5        -26.179140   1.000000
      6        -26.179106   1.000000
      7        -26.126698   1.000000
      8        -26.126692   1.000000
      9        -25.294519   1.000000
     10        -25.294504   1.000000
     11        -25.233828   1.000000
     12        -25.233794   1.000000
     13         -2.197689   1.000000
     14         -2.197562   1.000000
     15          1.811887   1.000000
     16          1.811986   1.000000
     17          1.858214   1.000000
     18          1.858312   1.000000
     19          5.792373   0.000000
     20          5.792445   0.000000
     21          5.956970   0.000000
     22          5.957017   0.000000
     23          6.464632   0.000000
     24          6.464683   0.000000
     25          9.023309   0.000000
     26          9.023379   0.000000
     27          9.322257   0.000000
     28          9.322325   0.000000
     29         10.042942   0.000000
     30         10.042948   0.000000
     31         10.704177   0.000000
     32         10.704180   0.000000
     33         12.117370   0.000000
     34         12.117431   0.000000
     35         13.531014   0.000000
     36         13.531097   0.000000
     37         14.886759   0.000000
     38         14.886825   0.000000
     39         15.763889   0.000000
     40         15.763967   0.000000
     41         19.919906   0.000000
     42         19.919942   0.000000
     43         19.936001   0.000000
     44         19.936036   0.000000
     45         20.543945   0.000000
     46         20.544071   0.000000
     47         20.812636   0.000000
     48         20.812761   0.000000
 
 -0.8333333E-01  0.8333333E-01  0.0000000E+00  0.3472222E-02
      1        -33.747487   1.000000
      2        -33.747474   1.000000
      3        -33.285374   1.000000
      4        -33.285361   1.000000
      5        -26.179130   1.000000
      6        -26.179115   1.000000
      7        -26.126714   1.000000
      8        -26.126678   1.000000
      9        -25.294528   1.000000
     10        -25.294497   1.000000
     11        -25.233813   1.000000
     12        -25.233808   1.000000
     13         -2.197689   1.000000
     14         -2.197562   1.000000
     15          1.811887   1.000000
     16          1.811986   1.000000
     17          1.858214   1.000000
     18          1.858312   1.000000
     19          5.792386   0.000000
     20          5.792434   0.000000
     21          5.956967   0.000000
     22          5.957019   0.000000
     23          6.464625   0.000000
     24          6.464689   0.000000
     25          9.023309   0.000000
     26          9.023379   0.000000
     27          9.322257   0.000000
     28          9.322324   0.000000
     29         10.042912   0.000000
     30         10.042977   0.000000
     31         10.704146   0.000000
     32         10.704209   0.000000
     33         12.117373   0.000000
     34         12.117430   0.000000
     35         13.531022   0.000000
     36         13.531090   0.000000
     37         14.886760   0.000000
     38         14.886824   0.000000
     39         15.763883   0.000000
     40         15.763973   0.000000
     41         19.919906   0.000000
     42         19.919942   0.000000
     43         19.936001   0.000000
     44         19.936036   0.000000
     45         20.543947   0.000000
     46         20.544070   0.000000
     47         20.812636   0.000000
     48         20.812761   0.000000
 
  0.1666667E+00  0.8333333E-01  0.0000000E+00  0.3472222E-02
      1        -33.730112   1.000000
      2        -33.730099   1.000000
      3        -33.315586   1.000000
      4        -33.315573   1.000000
      5        -26.175762   1.000000
      6        -26.175728   1.000000
      7        -26.068711   1.000000
      8        -26.068704   1.000000
      9        -25.387612   1.000000
     10        -25.387596   1.000000
     11        -25.266061   1.000000
     12        -25.266028   1.000000
     13         -1.758936   1.000000
     14         -1.758810   1.000000
     15          2.046240   1.000000
     16          2.046340   1.000000
     17          2.167503   1.000000
     18          2.167604   1.000000
     19          5.659977   0.000000
     20          5.660053   0.000000
     21          5.882251   0.000000
     22          5.882321   0.000000
     23          6.750598   0.000000
     24          6.750667   0.000000
     25          8.511124   0.000000
     26          8.511197   0.000000
     27          8.938191   0.000000
     28          8.938204   0.000000
     29          9.526294   0.000000
     30          9.526361   0.000000
     31          9.595591   0.000000
     32          9.595602   0.000000
     33         11.874425   0.000000
     34         11.874487   0.000000
     35         12.939388   0.000000
     36         12.939493   0.000000
     37         15.915661   0.000000
     38         15.915733   0.000000
     39         17.090348   0.000000
     40         17.090426   0.000000
     41         19.930549   0.000000
     42         19.930585   0.000000
     43         19.936940   0.000000
     44         19.936976   0.000000
     45         20.995578   0.000000
     46         20.995701   0.000000
     47         21.571073   0.000000
     48         21.571195   0.000000
 
 -0.8333333E-01  0.1666667E+00  0.0000000E+00  0.3472222E-02
      1        -33.730112   1.000000
      2        -33.730099   1.000000
      3        -33.315586   1.000000
      4        -33.315573   1.000000
      5        -26.175753   1.000000
      6        -26.175736   1.000000
      7        -26.068726   1.000000
      8        -26.068690   1.000000
      9        -25.387620   1.000000
     10        -25.387589   1.000000
     11        -25.266047   1.000000
     12        -25.266041   1.000000
     13         -1.758936   1.000000
     14         -1.758810   1.000000
     15          2.046240   1.000000
     16          2.046340   1.000000
     17          2.167504   1.000000
     18          2.167604   1.000000
     19          5.659983   0.000000
     20          5.660048   0.000000
     21          5.882253   0.000000
     22          5.882319   0.000000
     23          6.750594   0.000000
     24          6.750668   0.000000
     25          8.511124   0.000000
     26          8.511197   0.000000
     27          8.938163   0.000000
     28          8.938230   0.000000
     29          9.526294   0.000000
     30          9.526361   0.000000
     31          9.595562   0.000000
     32          9.595629   0.000000
     33         11.874427   0.000000
     34         11.874486   0.000000
     35         12.939391   0.000000
     36         12.939491   0.000000
     37         15.915662   0.000000
     38         15.915733   0.000000
     39         17.090348   0.000000
     40         17.090426   0.000000
     41         19.930549   0.000000
     42         19.930585   0.000000
     43         19.936940   0.000000
     44         19.936976   0.000000
     45         20.995581   0.000000
     46         20.995700   0.000000
     47         21.571074   0.000000
     48         21.571199   0.000000
 
 -0.9629430E-33  0.8333333E-01  0.1666667E+00  0.3472222E-02
      1        -33.730112   1.000000
      2        -33.730099   1.000000
      3        -33.315586   1.000000
      4        -33.315573   1.000000
      5        -26.175762   1.000000
      6        -26.175728   1.000000
      7        -26.068711   1.000000
      8        -26.068704   1.000000
      9        -25.387612   1.000000
     10        -25.387596   1.000000
     11        -25.266061   1.000000
     12        -25.266028   1.000000
     13         -1.758936   1.000000
     14         -1.758810   1.000000
     15          2.046240   1.000000
     16          2.046340   1.000000
     17          2.167503   1.000000
     18          2.167604   1.000000
     19          5.659977   0.000000
     20          5.660053   0.000000
     21          5.882251   0.000000
     22          5.882321   0.000000
     23          6.750598   0.000000
     24          6.750667   0.000000
     25          8.511124   0.000000
     26          8.511197   0.000000
     27          8.938191   0.000000
     28          8.938204   0.000000
     29          9.526294   0.000000
     30          9.526361   0.000000
     31          9.595591   0.000000
     32          9.595602   0.000000
     33         11.874425   0.000000
     34         11.874487   0.000000
     35         12.939388   0.000000
     36         12.939493   0.000000
     37         15.915661   0.000000
     38         15.915733   0.000000
     39         17.090348   0.000000
     40         17.090426   0.000000
     41         19.930549   0.000000
     42         19.930585   0.000000
     43         19.936940   0.000000
     44         19.936976   0.000000
     45         20.995578   0.000000
     46         20.995701   0.000000
     47         21.571073   0.000000
     48         21.571195   0.000000
 
 -0.2330597E-33 -0.1666667E+00  0.8333333E-01  0.3472222E-02
      1        -33.730112   1.000000
      2        -33.730099   1.000000
      3        -33.315586   1.000000
      4        -33.315573   1.000000
      5        -26.175753   1.000000
      6        -26.175736   1.000000
      7        -26.068726   1.000000
      8        -26.068690   1.000000
      9        -25.387620   1.000000
     10        -25.387589   1.000000
     11        -25.266047   1.000000
     12        -25.266041   1.000000
     13         -1.758936   1.000000
     14         -1.758810   1.000000
     15          2.046240   1.000000
     16          2.046340   1.000000
     17          2.167504   1.000000
     18          2.167604   1.000000
     19          5.659983   0.000000
     20          5.660048   0.000000
     21          5.882253   0.000000
     22          5.882319   0.000000
     23          6.750594   0.000000
     24          6.750668   0.000000
     25          8.511124   0.000000
     26          8.511197   0.000000
     27          8.938163   0.000000
     28          8.938230   0.000000
     29          9.526294   0.000000
     30          9.526361   0.000000
     31          9.595562   0.000000
     32          9.595629   0.000000
     33         11.874427   0.000000
     34         11.874486   0.000000
     35         12.939391   0.000000
     36         12.939491   0.000000
     37         15.915662   0.000000
     38         15.915733   0.000000
     39         17.090348   0.000000
     40         17.090426   0.000000
     41         19.930549   0.000000
     42         19.930585   0.000000
     43         19.936940   0.000000
     44         19.936976   0.000000
     45         20.995581   0.000000
     46         20.995700   0.000000
     47         21.571074   0.000000
     48         21.571199   0.000000
 
  0.2500000E+00  0.8333333E-01  0.0000000E+00  0.3472222E-02
      1        -33.701031   1.000000
      2        -33.701018   1.000000
      3        -33.362902   1.000000
      4        -33.362890   1.000000
      5        -26.152477   1.000000
      6        -26.152445   1.000000
      7        -25.987524   1.000000
      8        -25.987515   1.000000
      9        -25.513686   1.000000
     10        -25.513669   1.000000
     11        -25.330985   1.000000
     12        -25.330952   1.000000
     13         -1.072332   1.000000
     14         -1.072206   1.000000
     15          2.407057   1.000000
     16          2.407156   1.000000
     17          2.556258   1.000000
     18          2.556359   1.000000
     19          5.578786   0.000000
     20          5.578859   0.000000
     21          5.774603   0.000000
     22          5.774676   0.000000
     23          7.139916   0.000000
     24          7.139982   0.000000
     25          7.768404   0.000000
     26          7.768473   0.000000
     27          7.953278   0.000000
     28          7.953291   0.000000
     29          8.566879   0.000000
     30          8.566893   0.000000
     31          9.896295   0.000000
     32          9.896359   0.000000
     33         11.261503   0.000000
     34         11.261563   0.000000
     35         11.798357   0.000000
     36         11.798448   0.000000
     37         17.592008   0.000000
     38         17.592081   0.000000
     39         18.838596   0.000000
     40         18.838674   0.000000
     41         19.935533   0.000000
     42         19.935568   0.000000
     43         19.936112   0.000000
     44         19.936147   0.000000
     45         21.675479   0.000000
     46         21.675597   0.000000
     47         22.603138   0.000000
     48         22.603227   0.000000
 
 -0.8333333E-01  0.2500000E+00  0.0000000E+00  0.3472222E-02
      1        -33.701031   1.000000
      2        -33.701018   1.000000
      3        -33.362903   1.000000
      4        -33.362890   1.000000
      5        -26.152470   1.000000
      6        -26.152451   1.000000
      7        -25.987538   1.000000
      8        -25.987502   1.000000
      9        -25.513693   1.000000
     10        -25.513662   1.000000
     11        -25.330972   1.000000
     12        -25.330963   1.000000
     13         -1.072332   1.000000
     14         -1.072206   1.000000
     15          2.407057   1.000000
     16          2.407156   1.000000
     17          2.556258   1.000000
     18          2.556359   1.000000
     19          5.578789   0.000000
     20          5.578857   0.000000
     21          5.774603   0.000000
     22          5.774674   0.000000
     23          7.139913   0.000000
     24          7.139983   0.000000
     25          7.768403   0.000000
     26          7.768474   0.000000
     27          7.953250   0.000000
     28          7.953317   0.000000
     29          8.566851   0.000000
     30          8.566920   0.000000
     31          9.896295   0.000000
     32          9.896359   0.000000
     33         11.261508   0.000000
     34         11.261559   0.000000
     35         11.798362   0.000000
     36         11.798445   0.000000
     37         17.592012   0.000000
     38         17.592078   0.000000
     39         18.838600   0.000000
     40         18.838671   0.000000
     41         19.935533   0.000000
     42         19.935568   0.000000
     43         19.936112   0.000000
     44         19.936147   0.000000
     45         21.675481   0.000000
     46         21.675596   0.000000
     47         22.603136   0.000000
     48         22.603229   0.000000
 
  0.1917761E-33  0.8333333E-01  0.2500000E+00  0.3472222E-02
      1        -33.701031   1.000000
      2        -33.701018   1.000000
      3        -33.362902   1.000000
      4        -33.362890   1.000000
      5        -26.152477   1.000000
      6        -26.152445   1.000000
      7        -25.987524   1.000000
      8        -25.987515   1.000000
      9        -25.513686   1.000000
     10        -25.513669   1.000000
     11        -25.330985   1.000000
     12        -25.330952   1.000000
     13         -1.072332   1.000000
     14         -1.072206   1.000000
     15          2.407057   1.000000
     16          2.407156   1.000000
     17          2.556258   1.000000
     18          2.556359   1.000000
     19          5.578786   0.000000
     20          5.578859   0.000000
     21          5.774603   0.000000
     22          5.774676   0.000000
     23          7.139916   0.000000
     24          7.139982   0.000000
     25          7.768404   0.000000
     26          7.768473   0.000000
     27          7.953278   0.000000
     28          7.953291   0.000000
     29          8.566879   0.000000
     30          8.566893   0.000000
     31          9.896295   0.000000
     32          9.896359   0.000000
     33         11.261503   0.000000
     34         11.261563   0.000000
     35         11.798357   0.000000
     36         11.798448   0.000000
     37         17.592008   0.000000
     38         17.592081   0.000000
     39         18.838596   0.000000
     40         18.838674   0.000000
     41         19.935533   0.000000
     42         19.935568   0.000000
     43         19.936112   0.000000
     44         19.936147   0.000000
     45         21.675479   0.000000
     46         21.675597   0.000000
     47         22.603138   0.000000
     48         22.603227   0.000000
 
 -0.2330597E-33 -0.2500000E+00  0.8333333E-01  0.3472222E-02
      1        -33.701031   1.000000
      2        -33.701018   1.000000
      3        -33.362903   1.000000
      4        -33.362890   1.000000
      5        -26.152470   1.000000
      6        -26.152451   1.000000
      7        -25.987538   1.000000
      8        -25.987502   1.000000