Ta                                      
           1
     3.321690    0.000000    0.000000
     0.000000    3.321690    0.000000
     0.000000    0.000000    3.321690
   Ta
     2
Direct configuration=     1
   0.00000000  0.00000000  0.00000000
   0.50000000  0.50000000  0.50000000
