 DBCSR| CPU Multiplication driver                                           BLAS (U)
 DBCSR| Multrec recursion limit                                              512 (U)
 DBCSR| Multiplication stack size                                           1000 (D)
 DBCSR| Maximum elements for images                                    UNLIMITED (U)
 DBCSR| Multiplicative factor virtual images                                   1 (U)
 DBCSR| Use multiplication densification                                       T (D)
 DBCSR| Multiplication size stacks                                             3 (U)
 DBCSR| Use memory pool for CPU allocation                                     F (U)
 DBCSR| Number of 3D layers                                               SINGLE (U)
 DBCSR| Use MPI memory allocation                                              F (U)
 DBCSR| Use RMA algorithm                                                      F (U)
 DBCSR| Use Communication thread                                               T (U)
 DBCSR| Communication thread load                                             45 (D)
 DBCSR| MPI: My process id                                                     0
 DBCSR| MPI: Number of processes                                               8
 DBCSR| OMP: Current number of threads                                        12
 DBCSR| OMP: Max number of threads                                            12
 DBCSR| Split modifier for TAS multiplication algorithm                  1.0E+00 (U)


  **** **** ******  **  PROGRAM STARTED AT               2025-08-07 22:12:47.365
 ***** ** ***  *** **   PROGRAM STARTED ON                          i03r10c01s11
 **    ****   ******    PROGRAM STARTED BY                               di38fab
 ***** **    ** ** **   PROGRAM PROCESS ID                               1732009
  **** **  *******  **  PROGRAM STARTED IN /hppfs/scratch/04/di38fab/09_GTH/Delt
                                           a_Set/Ta/aug-SZV-MOLOPT-GTH-tier-2/8x
                                           8x8

 CP2K| version string:                 CP2K version 2025.1 (Development Version)
 CP2K| source code revision number:                                  git:3130539
 CP2K| cp2kflags: omp libint fftw3 libxc parallel scalapack max_contr=4         
 CP2K| is freely available from                            https://www.cp2k.org/
 CP2K| Program compiled at                         Tue Jun  3 16:14:32 CEST 2025
 CP2K| Program compiled on                                               login01
 CP2K| Program compiled for                                        Supermuc-foss
 CP2K| Data directory path                  /hppfs/work/pn36zo/di38fab/cp2k/data
 CP2K| Input file name                                                    GW.inp

 GLOBAL| Force Environment number                                              1
 GLOBAL| Basis set file name            /hppfs/scratch/04/di38fab/09_GTH/BASIS_A
 GLOBAL| Potential file name            /hppfs/work/pn36zo/di38fab/cp2k/data/GTH
 GLOBAL| MM Potential file name                                     MM_POTENTIAL
 GLOBAL| Coordinate file name                                             Ta.cif
 GLOBAL| Method name                                                        CP2K
 GLOBAL| Project name                                                       WSe2
 GLOBAL| Run type                                                         ENERGY
 GLOBAL| FFT library                                                       FFTW3
 GLOBAL| Diagonalization library                                       ScaLAPACK
 GLOBAL| Cholesky decomposition library                                ScaLAPACK
 GLOBAL| DGEMM library                                                      BLAS
 GLOBAL| Orthonormality check for eigenvectors                          DISABLED
 GLOBAL| Matrix multiplication library                                 ScaLAPACK
 GLOBAL| All-to-all communication in single precision                          F
 GLOBAL| FFTs using library dependent lengths                                  F
 GLOBAL| Grid backend                                                       AUTO
 GLOBAL| Global print level                                               MEDIUM
 GLOBAL| MPI I/O enabled                                                       T
 GLOBAL| Total number of message passing processes                             8
 GLOBAL| Number of threads for this process                                   12
 GLOBAL| This output is from process                                           0
 GLOBAL| OpenMP stack size per thread (OMP_STACKSIZE)                    default
 GLOBAL| CPU model name             Intel(R) Xeon(R) Platinum 8174 CPU @ 3.10GHz

 MEMORY| system memory details [Kb]
 MEMORY|                        rank 0           min           max       average
 MEMORY| MemTotal             98436660      98436660      98436660      98436660
 MEMORY| MemFree              85168352      85168352      85254092      85211222
 MEMORY| Buffers                     0             0             0             0
 MEMORY| Cached                2372328       2363888       2372328       2368108
 MEMORY| Slab                  1204468       1189432       1204468       1196950
 MEMORY| SReclaimable           271156        264692        271156        267924
 MEMORY| MemLikelyFree        87811836      87811836      87882672      87847254


 *** Fundamental physical constants (SI units) ***

 *** Literature: B. J. Mohr and B. N. Taylor,
 ***             CODATA recommended values of the fundamental physical
 ***             constants: 2006, Web Version 5.1
 ***             http://physics.nist.gov/constants

 Speed of light in vacuum [m/s]                             2.99792458000000E+08
 Magnetic constant or permeability of vacuum [N/A**2]       1.25663706143592E-06
 Electric constant or permittivity of vacuum [F/m]          8.85418781762039E-12
 Planck constant (h) [J*s]                                  6.62606896000000E-34
 Planck constant (h-bar) [J*s]                              1.05457162825177E-34
 Elementary charge [C]                                      1.60217648700000E-19
 Electron mass [kg]                                         9.10938215000000E-31
 Electron g factor [ ]                                     -2.00231930436220E+00
 Proton mass [kg]                                           1.67262163700000E-27
 Fine-structure constant                                    7.29735253760000E-03
 Rydberg constant [1/m]                                     1.09737315685270E+07
 Avogadro constant [1/mol]                                  6.02214179000000E+23
 Boltzmann constant [J/K]                                   1.38065040000000E-23
 Atomic mass unit [kg]                                      1.66053878200000E-27
 Bohr radius [m]                                            5.29177208590000E-11

 *** Conversion factors ***

 [u] -> [a.u.]                                              1.82288848426455E+03
 [Angstrom] -> [Bohr] = [a.u.]                              1.88972613288564E+00
 [a.u.] = [Bohr] -> [Angstrom]                              5.29177208590000E-01
 [a.u.] -> [s]                                              2.41888432650478E-17
 [a.u.] -> [fs]                                             2.41888432650478E-02
 [a.u.] -> [J]                                              4.35974393937059E-18
 [a.u.] -> [N]                                              8.23872205491840E-08
 [a.u.] -> [K]                                              3.15774647902944E+05
 [a.u.] -> [kJ/mol]                                         2.62549961709828E+03
 [a.u.] -> [kcal/mol]                                       6.27509468713739E+02
 [a.u.] -> [Pa]                                             2.94210107994716E+13
 [a.u.] -> [bar]                                            2.94210107994716E+08
 [a.u.] -> [atm]                                            2.90362800883016E+08
 [a.u.] -> [eV]                                             2.72113838565563E+01
 [a.u.] -> [Hz]                                             6.57968392072181E+15
 [a.u.] -> [1/cm] (wave numbers)                            2.19474631370540E+05
 [a.u./Bohr**2] -> [1/cm]                                   5.14048714338585E+03
 

 CELL_TOP| Volume [angstrom^3]:                                        36.650280
 CELL_TOP| Vector a [angstrom     3.322     0.000     0.000   |a| =     3.321690
 CELL_TOP| Vector b [angstrom     0.000     3.322     0.000   |b| =     3.321690
 CELL_TOP| Vector c [angstrom     0.000     0.000     3.322   |c| =     3.321690
 CELL_TOP| Angle (b,c), alpha [degree]:                                90.000000
 CELL_TOP| Angle (a,c), beta  [degree]:                                90.000000
 CELL_TOP| Angle (a,b), gamma [degree]:                                90.000000
 CELL_TOP| Numerically orthorhombic:                                         YES
 CELL_TOP| Periodicity                                                       XYZ

 CELL_CIF| Volume [angstrom^3]:                                        36.650280
 CELL_CIF| Vector a [angstrom     3.322     0.000     0.000   |a| =     3.321690
 CELL_CIF| Vector b [angstrom     0.000     3.322     0.000   |b| =     3.321690
 CELL_CIF| Vector c [angstrom     0.000     0.000     3.322   |c| =     3.321690
 CELL_CIF| Angle (b,c), alpha [degree]:                                90.000000
 CELL_CIF| Angle (a,c), beta  [degree]:                                90.000000
 CELL_CIF| Angle (a,b), gamma [degree]:                                90.000000
 CELL_CIF| Numerically orthorhombic:                                         YES
 CELL_CIF| Periodicity                                                       XYZ

 GENERATE|  Preliminary Number of Bonds generated:                             0
 GENERATE|  Achieved consistency in connectivity generation.

 CELL| Volume [angstrom^3]:                                            36.650280
 CELL| Vector a [angstrom]:       3.322     0.000     0.000   |a| =     3.321690
 CELL| Vector b [angstrom]:       0.000     3.322     0.000   |b| =     3.321690
 CELL| Vector c [angstrom]:       0.000     0.000     3.322   |c| =     3.321690
 CELL| Angle (b,c), alpha [degree]:                                    90.000000
 CELL| Angle (a,c), beta  [degree]:                                    90.000000
 CELL| Angle (a,b), gamma [degree]:                                    90.000000
 CELL| Numerically orthorhombic:                                             YES
 CELL| Periodicity                                                           XYZ

 CELL_REF| Volume [angstrom^3]:                                        36.650280
 CELL_REF| Vector a [angstrom     3.322     0.000     0.000   |a| =     3.321690
 CELL_REF| Vector b [angstrom     0.000     3.322     0.000   |b| =     3.321690
 CELL_REF| Vector c [angstrom     0.000     0.000     3.322   |c| =     3.321690
 CELL_REF| Angle (b,c), alpha [degree]:                                90.000000
 CELL_REF| Angle (a,c), beta  [degree]:                                90.000000
 CELL_REF| Angle (a,b), gamma [degree]:                                90.000000
 CELL_REF| Numerically orthorhombic:                                         YES
 CELL_REF| Periodicity                                                       XYZ

 *** WARNING in cryssym.F:180 :: Symmetry library SPGLIB not available ***


 *******************************************************************************
                                    Kpoints
 *******************************************************************************
 BRILLOUIN| K-point scheme                                        Monkhorst-Pack
 BRILLOUIN| K-Point grid                                             8    8    8
 BRILLOUIN| Accuracy in Symmetry determination                      0.100000E-05
 BRILLOUIN| K-Point point group symmetrization                               OFF
 BRILLOUIN| Wavefunction type                                            COMPLEX
 BRILLOUIN| List of Kpoints [2 Pi/Bohr]                                      256
 BRILLOUIN| Number           Weight            X              Y              Z
 BRILLOUIN|     1           0.00391       -0.43750       -0.43750       -0.43750
 BRILLOUIN|     2           0.00391       -0.43750       -0.43750       -0.31250
 BRILLOUIN|     3           0.00391       -0.43750       -0.43750       -0.18750
 BRILLOUIN|     4           0.00391       -0.43750       -0.43750       -0.06250
 BRILLOUIN|     5           0.00391       -0.43750       -0.43750        0.06250
 BRILLOUIN|     6           0.00391       -0.43750       -0.43750        0.18750
 BRILLOUIN|     7           0.00391       -0.43750       -0.43750        0.31250
 BRILLOUIN|     8           0.00391       -0.43750       -0.43750        0.43750
 BRILLOUIN|     9           0.00391       -0.43750       -0.31250       -0.43750
 BRILLOUIN|    10           0.00391       -0.43750       -0.31250       -0.31250
 BRILLOUIN|    11           0.00391       -0.43750       -0.31250       -0.18750
 BRILLOUIN|    12           0.00391       -0.43750       -0.31250       -0.06250
 BRILLOUIN|    13           0.00391       -0.43750       -0.31250        0.06250
 BRILLOUIN|    14           0.00391       -0.43750       -0.31250        0.18750
 BRILLOUIN|    15           0.00391       -0.43750       -0.31250        0.31250
 BRILLOUIN|    16           0.00391       -0.43750       -0.31250        0.43750
 BRILLOUIN|    17           0.00391       -0.43750       -0.18750       -0.43750
 BRILLOUIN|    18           0.00391       -0.43750       -0.18750       -0.31250
 BRILLOUIN|    19           0.00391       -0.43750       -0.18750       -0.18750
 BRILLOUIN|    20           0.00391       -0.43750       -0.18750       -0.06250
 BRILLOUIN|    21           0.00391       -0.43750       -0.18750        0.06250
 BRILLOUIN|    22           0.00391       -0.43750       -0.18750        0.18750
 BRILLOUIN|    23           0.00391       -0.43750       -0.18750        0.31250
 BRILLOUIN|    24           0.00391       -0.43750       -0.18750        0.43750
 BRILLOUIN|    25           0.00391       -0.43750       -0.06250       -0.43750
 BRILLOUIN|    26           0.00391       -0.43750       -0.06250       -0.31250
 BRILLOUIN|    27           0.00391       -0.43750       -0.06250       -0.18750
 BRILLOUIN|    28           0.00391       -0.43750       -0.06250       -0.06250
 BRILLOUIN|    29           0.00391       -0.43750       -0.06250        0.06250
 BRILLOUIN|    30           0.00391       -0.43750       -0.06250        0.18750
 BRILLOUIN|    31           0.00391       -0.43750       -0.06250        0.31250
 BRILLOUIN|    32           0.00391       -0.43750       -0.06250        0.43750
 BRILLOUIN|    33           0.00391       -0.43750        0.06250       -0.43750
 BRILLOUIN|    34           0.00391       -0.43750        0.06250       -0.31250
 BRILLOUIN|    35           0.00391       -0.43750        0.06250       -0.18750
 BRILLOUIN|    36           0.00391       -0.43750        0.06250       -0.06250
 BRILLOUIN|    37           0.00391       -0.43750        0.06250        0.06250
 BRILLOUIN|    38           0.00391       -0.43750        0.06250        0.18750
 BRILLOUIN|    39           0.00391       -0.43750        0.06250        0.31250
 BRILLOUIN|    40           0.00391       -0.43750        0.06250        0.43750
 BRILLOUIN|    41           0.00391       -0.43750        0.18750       -0.43750
 BRILLOUIN|    42           0.00391       -0.43750        0.18750       -0.31250
 BRILLOUIN|    43           0.00391       -0.43750        0.18750       -0.18750
 BRILLOUIN|    44           0.00391       -0.43750        0.18750       -0.06250
 BRILLOUIN|    45           0.00391       -0.43750        0.18750        0.06250
 BRILLOUIN|    46           0.00391       -0.43750        0.18750        0.18750
 BRILLOUIN|    47           0.00391       -0.43750        0.18750        0.31250
 BRILLOUIN|    48           0.00391       -0.43750        0.18750        0.43750
 BRILLOUIN|    49           0.00391       -0.43750        0.31250       -0.43750
 BRILLOUIN|    50           0.00391       -0.43750        0.31250       -0.31250
 BRILLOUIN|    51           0.00391       -0.43750        0.31250       -0.18750
 BRILLOUIN|    52           0.00391       -0.43750        0.31250       -0.06250
 BRILLOUIN|    53           0.00391       -0.43750        0.31250        0.06250
 BRILLOUIN|    54           0.00391       -0.43750        0.31250        0.18750
 BRILLOUIN|    55           0.00391       -0.43750        0.31250        0.31250
 BRILLOUIN|    56           0.00391       -0.43750        0.31250        0.43750
 BRILLOUIN|    57           0.00391       -0.43750        0.43750       -0.43750
 BRILLOUIN|    58           0.00391       -0.43750        0.43750       -0.31250
 BRILLOUIN|    59           0.00391       -0.43750        0.43750       -0.18750
 BRILLOUIN|    60           0.00391       -0.43750        0.43750       -0.06250
 BRILLOUIN|    61           0.00391       -0.43750        0.43750        0.06250
 BRILLOUIN|    62           0.00391       -0.43750        0.43750        0.18750
 BRILLOUIN|    63           0.00391       -0.43750        0.43750        0.31250
 BRILLOUIN|    64           0.00391       -0.43750        0.43750        0.43750
 BRILLOUIN|    65           0.00391       -0.31250       -0.43750       -0.43750
 BRILLOUIN|    66           0.00391       -0.31250       -0.43750       -0.31250
 BRILLOUIN|    67           0.00391       -0.31250       -0.43750       -0.18750
 BRILLOUIN|    68           0.00391       -0.31250       -0.43750       -0.06250
 BRILLOUIN|    69           0.00391       -0.31250       -0.43750        0.06250
 BRILLOUIN|    70           0.00391       -0.31250       -0.43750        0.18750
 BRILLOUIN|    71           0.00391       -0.31250       -0.43750        0.31250
 BRILLOUIN|    72           0.00391       -0.31250       -0.43750        0.43750
 BRILLOUIN|    73           0.00391       -0.31250       -0.31250       -0.43750
 BRILLOUIN|    74           0.00391       -0.31250       -0.31250       -0.31250
 BRILLOUIN|    75           0.00391       -0.31250       -0.31250       -0.18750
 BRILLOUIN|    76           0.00391       -0.31250       -0.31250       -0.06250
 BRILLOUIN|    77           0.00391       -0.31250       -0.31250        0.06250
 BRILLOUIN|    78           0.00391       -0.31250       -0.31250        0.18750
 BRILLOUIN|    79           0.00391       -0.31250       -0.31250        0.31250
 BRILLOUIN|    80           0.00391       -0.31250       -0.31250        0.43750
 BRILLOUIN|    81           0.00391       -0.31250       -0.18750       -0.43750
 BRILLOUIN|    82           0.00391       -0.31250       -0.18750       -0.31250
 BRILLOUIN|    83           0.00391       -0.31250       -0.18750       -0.18750
 BRILLOUIN|    84           0.00391       -0.31250       -0.18750       -0.06250
 BRILLOUIN|    85           0.00391       -0.31250       -0.18750        0.06250
 BRILLOUIN|    86           0.00391       -0.31250       -0.18750        0.18750
 BRILLOUIN|    87           0.00391       -0.31250       -0.18750        0.31250
 BRILLOUIN|    88           0.00391       -0.31250       -0.18750        0.43750
 BRILLOUIN|    89           0.00391       -0.31250       -0.06250       -0.43750
 BRILLOUIN|    90           0.00391       -0.31250       -0.06250       -0.31250
 BRILLOUIN|    91           0.00391       -0.31250       -0.06250       -0.18750
 BRILLOUIN|    92           0.00391       -0.31250       -0.06250       -0.06250
 BRILLOUIN|    93           0.00391       -0.31250       -0.06250        0.06250
 BRILLOUIN|    94           0.00391       -0.31250       -0.06250        0.18750
 BRILLOUIN|    95           0.00391       -0.31250       -0.06250        0.31250
 BRILLOUIN|    96           0.00391       -0.31250       -0.06250        0.43750
 BRILLOUIN|    97           0.00391       -0.31250        0.06250       -0.43750
 BRILLOUIN|    98           0.00391       -0.31250        0.06250       -0.31250
 BRILLOUIN|    99           0.00391       -0.31250        0.06250       -0.18750
 BRILLOUIN|   100           0.00391       -0.31250        0.06250       -0.06250
 BRILLOUIN|   101           0.00391       -0.31250        0.06250        0.06250
 BRILLOUIN|   102           0.00391       -0.31250        0.06250        0.18750
 BRILLOUIN|   103           0.00391       -0.31250        0.06250        0.31250
 BRILLOUIN|   104           0.00391       -0.31250        0.06250        0.43750
 BRILLOUIN|   105           0.00391       -0.31250        0.18750       -0.43750
 BRILLOUIN|   106           0.00391       -0.31250        0.18750       -0.31250
 BRILLOUIN|   107           0.00391       -0.31250        0.18750       -0.18750
 BRILLOUIN|   108           0.00391       -0.31250        0.18750       -0.06250
 BRILLOUIN|   109           0.00391       -0.31250        0.18750        0.06250
 BRILLOUIN|   110           0.00391       -0.31250        0.18750        0.18750
 BRILLOUIN|   111           0.00391       -0.31250        0.18750        0.31250
 BRILLOUIN|   112           0.00391       -0.31250        0.18750        0.43750
 BRILLOUIN|   113           0.00391       -0.31250        0.31250       -0.43750
 BRILLOUIN|   114           0.00391       -0.31250        0.31250       -0.31250
 BRILLOUIN|   115           0.00391       -0.31250        0.31250       -0.18750
 BRILLOUIN|   116           0.00391       -0.31250        0.31250       -0.06250
 BRILLOUIN|   117           0.00391       -0.31250        0.31250        0.06250
 BRILLOUIN|   118           0.00391       -0.31250        0.31250        0.18750
 BRILLOUIN|   119           0.00391       -0.31250        0.31250        0.31250
 BRILLOUIN|   120           0.00391       -0.31250        0.31250        0.43750
 BRILLOUIN|   121           0.00391       -0.31250        0.43750       -0.43750
 BRILLOUIN|   122           0.00391       -0.31250        0.43750       -0.31250
 BRILLOUIN|   123           0.00391       -0.31250        0.43750       -0.18750
 BRILLOUIN|   124           0.00391       -0.31250        0.43750       -0.06250
 BRILLOUIN|   125           0.00391       -0.31250        0.43750        0.06250
 BRILLOUIN|   126           0.00391       -0.31250        0.43750        0.18750
 BRILLOUIN|   127           0.00391       -0.31250        0.43750        0.31250
 BRILLOUIN|   128           0.00391       -0.31250        0.43750        0.43750
 BRILLOUIN|   129           0.00391       -0.18750       -0.43750       -0.43750
 BRILLOUIN|   130           0.00391       -0.18750       -0.43750       -0.31250
 BRILLOUIN|   131           0.00391       -0.18750       -0.43750       -0.18750
 BRILLOUIN|   132           0.00391       -0.18750       -0.43750       -0.06250
 BRILLOUIN|   133           0.00391       -0.18750       -0.43750        0.06250
 BRILLOUIN|   134           0.00391       -0.18750       -0.43750        0.18750
 BRILLOUIN|   135           0.00391       -0.18750       -0.43750        0.31250
 BRILLOUIN|   136           0.00391       -0.18750       -0.43750        0.43750
 BRILLOUIN|   137           0.00391       -0.18750       -0.31250       -0.43750
 BRILLOUIN|   138           0.00391       -0.18750       -0.31250       -0.31250
 BRILLOUIN|   139           0.00391       -0.18750       -0.31250       -0.18750
 BRILLOUIN|   140           0.00391       -0.18750       -0.31250       -0.06250
 BRILLOUIN|   141           0.00391       -0.18750       -0.31250        0.06250
 BRILLOUIN|   142           0.00391       -0.18750       -0.31250        0.18750
 BRILLOUIN|   143           0.00391       -0.18750       -0.31250        0.31250
 BRILLOUIN|   144           0.00391       -0.18750       -0.31250        0.43750
 BRILLOUIN|   145           0.00391       -0.18750       -0.18750       -0.43750
 BRILLOUIN|   146           0.00391       -0.18750       -0.18750       -0.31250
 BRILLOUIN|   147           0.00391       -0.18750       -0.18750       -0.18750
 BRILLOUIN|   148           0.00391       -0.18750       -0.18750       -0.06250
 BRILLOUIN|   149           0.00391       -0.18750       -0.18750        0.06250
 BRILLOUIN|   150           0.00391       -0.18750       -0.18750        0.18750
 BRILLOUIN|   151           0.00391       -0.18750       -0.18750        0.31250
 BRILLOUIN|   152           0.00391       -0.18750       -0.18750        0.43750
 BRILLOUIN|   153           0.00391       -0.18750       -0.06250       -0.43750
 BRILLOUIN|   154           0.00391       -0.18750       -0.06250       -0.31250
 BRILLOUIN|   155           0.00391       -0.18750       -0.06250       -0.18750
 BRILLOUIN|   156           0.00391       -0.18750       -0.06250       -0.06250
 BRILLOUIN|   157           0.00391       -0.18750       -0.06250        0.06250
 BRILLOUIN|   158           0.00391       -0.18750       -0.06250        0.18750
 BRILLOUIN|   159           0.00391       -0.18750       -0.06250        0.31250
 BRILLOUIN|   160           0.00391       -0.18750       -0.06250        0.43750
 BRILLOUIN|   161           0.00391       -0.18750        0.06250       -0.43750
 BRILLOUIN|   162           0.00391       -0.18750        0.06250       -0.31250
 BRILLOUIN|   163           0.00391       -0.18750        0.06250       -0.18750
 BRILLOUIN|   164           0.00391       -0.18750        0.06250       -0.06250
 BRILLOUIN|   165           0.00391       -0.18750        0.06250        0.06250
 BRILLOUIN|   166           0.00391       -0.18750        0.06250        0.18750
 BRILLOUIN|   167           0.00391       -0.18750        0.06250        0.31250
 BRILLOUIN|   168           0.00391       -0.18750        0.06250        0.43750
 BRILLOUIN|   169           0.00391       -0.18750        0.18750       -0.43750
 BRILLOUIN|   170           0.00391       -0.18750        0.18750       -0.31250
 BRILLOUIN|   171           0.00391       -0.18750        0.18750       -0.18750
 BRILLOUIN|   172           0.00391       -0.18750        0.18750       -0.06250
 BRILLOUIN|   173           0.00391       -0.18750        0.18750        0.06250
 BRILLOUIN|   174           0.00391       -0.18750        0.18750        0.18750
 BRILLOUIN|   175           0.00391       -0.18750        0.18750        0.31250
 BRILLOUIN|   176           0.00391       -0.18750        0.18750        0.43750
 BRILLOUIN|   177           0.00391       -0.18750        0.31250       -0.43750
 BRILLOUIN|   178           0.00391       -0.18750        0.31250       -0.31250
 BRILLOUIN|   179           0.00391       -0.18750        0.31250       -0.18750
 BRILLOUIN|   180           0.00391       -0.18750        0.31250       -0.06250
 BRILLOUIN|   181           0.00391       -0.18750        0.31250        0.06250
 BRILLOUIN|   182           0.00391       -0.18750        0.31250        0.18750
 BRILLOUIN|   183           0.00391       -0.18750        0.31250        0.31250
 BRILLOUIN|   184           0.00391       -0.18750        0.31250        0.43750
 BRILLOUIN|   185           0.00391       -0.18750        0.43750       -0.43750
 BRILLOUIN|   186           0.00391       -0.18750        0.43750       -0.31250
 BRILLOUIN|   187           0.00391       -0.18750        0.43750       -0.18750
 BRILLOUIN|   188           0.00391       -0.18750        0.43750       -0.06250
 BRILLOUIN|   189           0.00391       -0.18750        0.43750        0.06250
 BRILLOUIN|   190           0.00391       -0.18750        0.43750        0.18750
 BRILLOUIN|   191           0.00391       -0.18750        0.43750        0.31250
 BRILLOUIN|   192           0.00391       -0.18750        0.43750        0.43750
 BRILLOUIN|   193           0.00391       -0.06250       -0.43750       -0.43750
 BRILLOUIN|   194           0.00391       -0.06250       -0.43750       -0.31250
 BRILLOUIN|   195           0.00391       -0.06250       -0.43750       -0.18750
 BRILLOUIN|   196           0.00391       -0.06250       -0.43750       -0.06250
 BRILLOUIN|   197           0.00391       -0.06250       -0.43750        0.06250
 BRILLOUIN|   198           0.00391       -0.06250       -0.43750        0.18750
 BRILLOUIN|   199           0.00391       -0.06250       -0.43750        0.31250
 BRILLOUIN|   200           0.00391       -0.06250       -0.43750        0.43750
 BRILLOUIN|   201           0.00391       -0.06250       -0.31250       -0.43750
 BRILLOUIN|   202           0.00391       -0.06250       -0.31250       -0.31250
 BRILLOUIN|   203           0.00391       -0.06250       -0.31250       -0.18750
 BRILLOUIN|   204           0.00391       -0.06250       -0.31250       -0.06250
 BRILLOUIN|   205           0.00391       -0.06250       -0.31250        0.06250
 BRILLOUIN|   206           0.00391       -0.06250       -0.31250        0.18750
 BRILLOUIN|   207           0.00391       -0.06250       -0.31250        0.31250
 BRILLOUIN|   208           0.00391       -0.06250       -0.31250        0.43750
 BRILLOUIN|   209           0.00391       -0.06250       -0.18750       -0.43750
 BRILLOUIN|   210           0.00391       -0.06250       -0.18750       -0.31250
 BRILLOUIN|   211           0.00391       -0.06250       -0.18750       -0.18750
 BRILLOUIN|   212           0.00391       -0.06250       -0.18750       -0.06250
 BRILLOUIN|   213           0.00391       -0.06250       -0.18750        0.06250
 BRILLOUIN|   214           0.00391       -0.06250       -0.18750        0.18750
 BRILLOUIN|   215           0.00391       -0.06250       -0.18750        0.31250
 BRILLOUIN|   216           0.00391       -0.06250       -0.18750        0.43750
 BRILLOUIN|   217           0.00391       -0.06250       -0.06250       -0.43750
 BRILLOUIN|   218           0.00391       -0.06250       -0.06250       -0.31250
 BRILLOUIN|   219           0.00391       -0.06250       -0.06250       -0.18750
 BRILLOUIN|   220           0.00391       -0.06250       -0.06250       -0.06250
 BRILLOUIN|   221           0.00391       -0.06250       -0.06250        0.06250
 BRILLOUIN|   222           0.00391       -0.06250       -0.06250        0.18750
 BRILLOUIN|   223           0.00391       -0.06250       -0.06250        0.31250
 BRILLOUIN|   224           0.00391       -0.06250       -0.06250        0.43750
 BRILLOUIN|   225           0.00391       -0.06250        0.06250       -0.43750
 BRILLOUIN|   226           0.00391       -0.06250        0.06250       -0.31250
 BRILLOUIN|   227           0.00391       -0.06250        0.06250       -0.18750
 BRILLOUIN|   228           0.00391       -0.06250        0.06250       -0.06250
 BRILLOUIN|   229           0.00391       -0.06250        0.06250        0.06250
 BRILLOUIN|   230           0.00391       -0.06250        0.06250        0.18750
 BRILLOUIN|   231           0.00391       -0.06250        0.06250        0.31250
 BRILLOUIN|   232           0.00391       -0.06250        0.06250        0.43750
 BRILLOUIN|   233           0.00391       -0.06250        0.18750       -0.43750
 BRILLOUIN|   234           0.00391       -0.06250        0.18750       -0.31250
 BRILLOUIN|   235           0.00391       -0.06250        0.18750       -0.18750
 BRILLOUIN|   236           0.00391       -0.06250        0.18750       -0.06250
 BRILLOUIN|   237           0.00391       -0.06250        0.18750        0.06250
 BRILLOUIN|   238           0.00391       -0.06250        0.18750        0.18750
 BRILLOUIN|   239           0.00391       -0.06250        0.18750        0.31250
 BRILLOUIN|   240           0.00391       -0.06250        0.18750        0.43750
 BRILLOUIN|   241           0.00391       -0.06250        0.31250       -0.43750
 BRILLOUIN|   242           0.00391       -0.06250        0.31250       -0.31250
 BRILLOUIN|   243           0.00391       -0.06250        0.31250       -0.18750
 BRILLOUIN|   244           0.00391       -0.06250        0.31250       -0.06250
 BRILLOUIN|   245           0.00391       -0.06250        0.31250        0.06250
 BRILLOUIN|   246           0.00391       -0.06250        0.31250        0.18750
 BRILLOUIN|   247           0.00391       -0.06250        0.31250        0.31250
 BRILLOUIN|   248           0.00391       -0.06250        0.31250        0.43750
 BRILLOUIN|   249           0.00391       -0.06250        0.43750       -0.43750
 BRILLOUIN|   250           0.00391       -0.06250        0.43750       -0.31250
 BRILLOUIN|   251           0.00391       -0.06250        0.43750       -0.18750
 BRILLOUIN|   252           0.00391       -0.06250        0.43750       -0.06250
 BRILLOUIN|   253           0.00391       -0.06250        0.43750        0.06250
 BRILLOUIN|   254           0.00391       -0.06250        0.43750        0.18750
 BRILLOUIN|   255           0.00391       -0.06250        0.43750        0.31250
 BRILLOUIN|   256           0.00391       -0.06250        0.43750        0.43750
 *******************************************************************************

 *******************************************************************************
 *******************************************************************************
 **                                                                           **
 **     #####                         ##              ##                      **
 **    ##   ##            ##          ##              ##                      **
 **   ##     ##                       ##            ######                    **
 **   ##     ##  ##   ##  ##   #####  ##  ##   ####   ##    #####    #####    **
 **   ##     ##  ##   ##  ##  ##      ## ##   ##      ##   ##   ##  ##   ##   **
 **   ##  ## ##  ##   ##  ##  ##      ####     ###    ##   ######   ######    **
 **    ##  ###   ##   ##  ##  ##      ## ##      ##   ##   ##       ##        **
 **     #######   #####   ##   #####  ##  ##  ####    ##    #####   ##        **
 **           ##                                                    ##        **
 **                                                                           **
 **                                                ... make the atoms dance   **
 **                                                                           **
 **            Copyright (C) by CP2K developers group (2000-2025)             **
 **                      J. Chem. Phys. 152, 194103 (2020)                    **
 **                                                                           **
 *******************************************************************************

 DFT| Spin restricted Kohn-Sham (RKS) calculation                            RKS
 DFT| Multiplicity                                                             1
 DFT| Number of spin states                                                    1
 DFT| Charge                                                                   0
 DFT| Self-interaction correction (SIC)                                       NO
 DFT| Cutoffs: density                                              1.000000E-10
 DFT|          gradient                                             1.000000E-10
 DFT|          tau                                                  1.000000E-10
 DFT|          cutoff_smoothing_range                               0.000000E+00
 DFT| XC density smoothing                                                  NONE
 DFT| XC derivatives                                                          PW

 FUNCTIONAL| PBE:
 FUNCTIONAL| J.P.Perdew, K.Burke, M.Ernzerhof, Phys. Rev. Letter, vol. 77, n 18,
 FUNCTIONAL|  pp. 3865-3868, (1996) {spin unpolarized}                          


 QS| Method:                                                                 GPW
 QS| Density plane wave grid type                        NON-SPHERICAL FULLSPACE
 QS| Number of grid levels:                                                    4
 QS| Density cutoff [a.u.]:                                                500.0
 QS| Multi grid cutoff [a.u.]: 1) grid level                               500.0
 QS|                           2) grid level                               166.7
 QS|                           3) grid level                                55.6
 QS|                           4) grid level                                18.5
 QS| Grid level progression factor:                                          3.0
 QS| Relative density cutoff [a.u.]:                                        50.0
 QS| Interaction thresholds: eps_pgf_orb:                                1.0E-16
 QS|                         eps_filter_matrix:                          0.0E+00
 QS|                         eps_core_charge:                            1.0E-18
 QS|                         eps_rho_gspace:                             1.0E-16
 QS|                         eps_rho_rspace:                             1.0E-16
 QS|                         eps_gvg_rspace:                             1.0E-08
 QS|                         eps_ppl:                                    1.0E-02
 QS|                         eps_ppnl:                                   1.0E-10


 ATOMIC KIND INFORMATION

  1. Atomic kind: Ta                                    Number of atoms:       2

     Orbital Basis Set                                 aug-SZV-MOLOPT-GTH-tier-2

       Number of orbital shell sets:                                           1
       Number of orbital shells:                                               8
       Number of primitive Cartesian functions:                                7
       Number of Cartesian basis functions:                                   31
       Number of spherical basis functions:                                   26
       Norm type:                                                              2

       Normalised Cartesian orbitals:

                        Set   Shell   Orbital            Exponent    Coefficient

                          1       1    2s                0.065634      -0.001553
                                                         0.114941       0.000000
                                                         0.201289      -0.005414
                                                         0.459026      -0.155046
                                                         1.000199      -0.673988
                                                         2.777081      -0.001331
                                                         2.946056       0.844335

                          1       2    3s                0.065634       0.088520
                                                         0.114941       0.000000
                                                         0.201289       0.060794
                                                         0.459026      -0.184211
                                                         1.000199      -0.462015
                                                         2.777081       0.538968
                                                         2.946056      -0.071599

                          1       3    4s                0.065634       0.105436
                                                         0.114941      -0.008292
                                                         0.201289       0.001016
                                                         0.459026      -0.069034
                                                         1.000199      -0.032997
                                                         2.777081       0.000000
                                                         2.946056       0.000000

                          1       4    3px               0.065634       0.000030
                                                         0.114941       0.000000
                                                         0.201289      -0.011531
                                                         0.459026      -0.223203
                                                         1.000199      -0.852255
                                                         2.777081      -7.169303
                                                         2.946056       8.184433
                          1       4    3py               0.065634       0.000030
                                                         0.114941       0.000000
                                                         0.201289      -0.011531
                                                         0.459026      -0.223203
                                                         1.000199      -0.852255
                                                         2.777081      -7.169303
                                                         2.946056       8.184433
                          1       4    3pz               0.065634       0.000030
                                                         0.114941       0.000000
                                                         0.201289      -0.011531
                                                         0.459026      -0.223203
                                                         1.000199      -0.852255
                                                         2.777081      -7.169303
                                                         2.946056       8.184433

                          1       5    4px               0.065634      -0.000445
                                                         0.114941      -0.001832
                                                         0.201289       0.150544
                                                         0.459026       0.224698
                                                         1.000199      -0.318595
                                                         2.777081       0.000000
                                                         2.946056       0.000000
                          1       5    4py               0.065634      -0.000445
                                                         0.114941      -0.001832
                                                         0.201289       0.150544
                                                         0.459026       0.224698
                                                         1.000199      -0.318595
                                                         2.777081       0.000000
                                                         2.946056       0.000000
                          1       5    4pz               0.065634      -0.000445
                                                         0.114941      -0.001832
                                                         0.201289       0.150544
                                                         0.459026       0.224698
                                                         1.000199      -0.318595
                                                         2.777081       0.000000
                                                         2.946056       0.000000

                          1       6    4dx2              0.065634       0.001865
                                                         0.114941       0.000000
                                                         0.201289       0.038862
                                                         0.459026       0.161725
                                                         1.000199       0.485429
                                                         2.777081       1.436722
                                                         2.946056      -1.328220
                          1       6    4dxy              0.065634       0.003231
                                                         0.114941       0.000000
                                                         0.201289       0.067312
                                                         0.459026       0.280116
                                                         1.000199       0.840788
                                                         2.777081       2.488476
                                                         2.946056      -2.300545
                          1       6    4dxz              0.065634       0.003231
                                                         0.114941       0.000000
                                                         0.201289       0.067312
                                                         0.459026       0.280116
                                                         1.000199       0.840788
                                                         2.777081       2.488476
                                                         2.946056      -2.300545
                          1       6    4dy2              0.065634       0.001865
                                                         0.114941       0.000000
                                                         0.201289       0.038862
                                                         0.459026       0.161725
                                                         1.000199       0.485429
                                                         2.777081       1.436722
                                                         2.946056      -1.328220
                          1       6    4dyz              0.065634       0.003231
                                                         0.114941       0.000000
                                                         0.201289       0.067312
                                                         0.459026       0.280116
                                                         1.000199       0.840788
                                                         2.777081       2.488476
                                                         2.946056      -2.300545
                          1       6    4dz2              0.065634       0.001865
                                                         0.114941       0.000000
                                                         0.201289       0.038862
                                                         0.459026       0.161725
                                                         1.000199       0.485429
                                                         2.777081       1.436722
                                                         2.946056      -1.328220

                          1       7    5dx2              0.065634       0.001824
                                                         0.114941       0.012916
                                                         0.201289       0.059489
                                                         0.459026      -0.018607
                                                         1.000199       0.085716
                                                         2.777081       0.000000
                                                         2.946056       0.000000
                          1       7    5dxy              0.065634       0.003160
                                                         0.114941       0.022370
                                                         0.201289       0.103038
                                                         0.459026      -0.032228
                                                         1.000199       0.148465
                                                         2.777081       0.000000
                                                         2.946056       0.000000
                          1       7    5dxz              0.065634       0.003160
                                                         0.114941       0.022370
                                                         0.201289       0.103038
                                                         0.459026      -0.032228
                                                         1.000199       0.148465
                                                         2.777081       0.000000
                                                         2.946056       0.000000
                          1       7    5dy2              0.065634       0.001824
                                                         0.114941       0.012916
                                                         0.201289       0.059489
                                                         0.459026      -0.018607
                                                         1.000199       0.085716
                                                         2.777081       0.000000
                                                         2.946056       0.000000
                          1       7    5dyz              0.065634       0.003160
                                                         0.114941       0.022370
                                                         0.201289       0.103038
                                                         0.459026      -0.032228
                                                         1.000199       0.148465
                                                         2.777081       0.000000
                                                         2.946056       0.000000
                          1       7    5dz2              0.065634       0.001824
                                                         0.114941       0.012916
                                                         0.201289       0.059489
                                                         0.459026      -0.018607
                                                         1.000199       0.085716
                                                         2.777081       0.000000
                                                         2.946056       0.000000

                          1       8    5fx3              0.065634      -0.000140
                                                         0.114941       0.001621
                                                         0.201289       0.024349
                                                         0.459026       0.076798
                                                         1.000199       0.201897
                                                         2.777081       0.000000
                                                         2.946056       0.000000
                          1       8    5fx2y             0.065634      -0.000314
                                                         0.114941       0.003624
                                                         0.201289       0.054447
                                                         0.459026       0.171726
                                                         1.000199       0.451454
                                                         2.777081       0.000000
                                                         2.946056       0.000000
                          1       8    5fx2z             0.065634      -0.000314
                                                         0.114941       0.003624
                                                         0.201289       0.054447
                                                         0.459026       0.171726
                                                         1.000199       0.451454
                                                         2.777081       0.000000
                                                         2.946056       0.000000
                          1       8    5fxy2             0.065634      -0.000314
                                                         0.114941       0.003624
                                                         0.201289       0.054447
                                                         0.459026       0.171726
                                                         1.000199       0.451454
                                                         2.777081       0.000000
                                                         2.946056       0.000000
                          1       8    5fxyz             0.065634      -0.000543
                                                         0.114941       0.006278
                                                         0.201289       0.094305
                                                         0.459026       0.297439
                                                         1.000199       0.781942
                                                         2.777081       0.000000
                                                         2.946056       0.000000
                          1       8    5fxz2             0.065634      -0.000314
                                                         0.114941       0.003624
                                                         0.201289       0.054447
                                                         0.459026       0.171726
                                                         1.000199       0.451454
                                                         2.777081       0.000000
                                                         2.946056       0.000000
                          1       8    5fy3              0.065634      -0.000140
                                                         0.114941       0.001621
                                                         0.201289       0.024349
                                                         0.459026       0.076798
                                                         1.000199       0.201897
                                                         2.777081       0.000000
                                                         2.946056       0.000000
                          1       8    5fy2z             0.065634      -0.000314
                                                         0.114941       0.003624
                                                         0.201289       0.054447
                                                         0.459026       0.171726
                                                         1.000199       0.451454
                                                         2.777081       0.000000
                                                         2.946056       0.000000
                          1       8    5fyz2             0.065634      -0.000314
                                                         0.114941       0.003624
                                                         0.201289       0.054447
                                                         0.459026       0.171726
                                                         1.000199       0.451454
                                                         2.777081       0.000000
                                                         2.946056       0.000000
                          1       8    5fz3              0.065634      -0.000140
                                                         0.114941       0.001621
                                                         0.201289       0.024349
                                                         0.459026       0.076798
                                                         1.000199       0.201897
                                                         2.777081       0.000000
                                                         2.946056       0.000000

       Atomic covalent radius [Angstrom]:                                  1.340

       Atomic van der Waals radius [Angstrom]:                             1.750

     GTH Potential information for                                       GTH-PBE

       Description:                       Goedecker-Teter-Hutter pseudopotential
                                           Goedecker et al., PRB 54, 1703 (1996)
                                          Hartwigsen et al., PRB 58, 3641 (1998)
                                                      Krack, TCA 114, 145 (2005)

       Gaussian exponent of the core charge distribution:               1.652893
       Electronic configuration (s p d ...):                           4   6   3

       Parameters of the local part of the GTH pseudopotential:

                          rloc        C1          C2          C3          C4
                        0.550000   13.385202   -2.253920

       Parameters of the non-local part of the GTH (SOC) pseudopotential:

                   l      r(l)      h(i,j,l)
                                    k(i,j,l)
                   0    0.400883   -4.436709    4.176489    1.875608
                                    4.176489   -2.341148   -4.842799
                                    1.875608   -4.842799    3.843852
                   1    0.356549   -7.624428    8.178955    0.000000
                                    8.178955   -9.677470    0.000000
                                    0.000000    0.000000    0.000000
                                    1.123248    0.672505   -0.977300
                                    0.672505   -2.422775    2.312714
                                   -0.977300    2.312714   -1.643658
                   2    0.418229   -1.113561   -0.875331
                                   -0.875331    0.992532
                                    0.070601    0.008762
                                    0.008762   -0.009935


 MOLECULE KIND INFORMATION


 All atoms are their own molecule, skipping detailed information


 TOTAL NUMBERS AND MAXIMUM NUMBERS

  Total number of            - Atomic kinds:                                   1
                             - Atoms:                                          2
                             - Shell sets:                                     2
                             - Shells:                                        16
                             - Primitive Cartesian functions:                 14
                             - Cartesian basis functions:                     62
                             - Spherical basis functions:                     52

  Maximum angular momentum of- Orbital basis functions:                        3
                             - Local part of the GTH pseudopotential:          2
                             - Non-local part of the GTH pseudopotential:      5


 MODULE QUICKSTEP: ATOMIC COORDINATES IN ANGSTROM

   Atom Kind Element         X             Y             Z       Z(eff)     Mass
      1    1 Ta   73      0.000000      0.000000      0.000000  13.0000 180.9479
      2    1 Ta   73      1.660845      1.660845      1.660845  13.0000 180.9479



 SCF PARAMETERS         Density guess:                                    ATOMIC
                        --------------------------------------------------------
                        max_scf:                                             500
                        max_scf_history:                                       0
                        max_diis:                                              4
                        --------------------------------------------------------
                        eps_scf:                                        1.00E-09
                        eps_scf_history:                                0.00E+00
                        eps_diis:                                       1.00E-01
                        eps_eigval:                                     1.00E-05
                        --------------------------------------------------------
                        level_shift [a.u.]:                             0.000000
                        added MOs                                        39    0
                        --------------------------------------------------------
                        Mixing method:                            BROYDEN_MIXING
                                                charge density mixing in g-space
                        --------------------------------------------------------
                        Smear method:                                FERMI_DIRAC
                        Electronic temperature [K]:                        300.0
                        Electronic temperature [a.u.]:                  9.50E-04
                        Accuracy threshold:                             1.00E-10
                        --------------------------------------------------------
                        No outer SCF

 PW_GRID| Information for grid number                                          1
 PW_GRID| Grid distributed over                                     8 processors
 PW_GRID| Real space group dimensions                                     8    1
 PW_GRID| the grid is blocked:                                                NO
 PW_GRID| Cutoff [a.u.]                                                    500.0
 PW_GRID| spherical cutoff:                                                   NO
 PW_GRID|   Bounds   1            -32      31                Points:          64
 PW_GRID|   Bounds   2            -32      31                Points:          64
 PW_GRID|   Bounds   3            -32      31                Points:          64
 PW_GRID| Volume element (a.u.^3)  0.9435E-03     Volume (a.u.^3)       247.3284
 PW_GRID| Grid span                                                    FULLSPACE
 PW_GRID|   Distribution                         Average         Max         Min
 PW_GRID|   G-Vectors                            32768.0       32768       32768
 PW_GRID|   G-Rays                                 512.0         512         512
 PW_GRID|   Real Space Points                    32768.0       32768       32768

 PW_GRID| Information for grid number                                          2
 PW_GRID| Number of the reference grid                                         1
 PW_GRID| Grid distributed over                                     8 processors
 PW_GRID| Real space group dimensions                                     8    1
 PW_GRID| the grid is blocked:                                                NO
 PW_GRID| Cutoff [a.u.]                                                    166.7
 PW_GRID| spherical cutoff:                                                   NO
 PW_GRID|   Bounds   1            -20      19                Points:          40
 PW_GRID|   Bounds   2            -20      19                Points:          40
 PW_GRID|   Bounds   3            -20      19                Points:          40
 PW_GRID| Volume element (a.u.^3)  0.3865E-02     Volume (a.u.^3)       247.3284
 PW_GRID| Grid span                                                    FULLSPACE
 PW_GRID|   Distribution                         Average         Max         Min
 PW_GRID|   G-Vectors                             8000.0        8120        7920
 PW_GRID|   G-Rays                                 200.0         203         198
 PW_GRID|   Real Space Points                     8000.0        8000        8000

 PW_GRID| Information for grid number                                          3
 PW_GRID| Number of the reference grid                                         1
 PW_GRID| Grid distributed over                                     8 processors
 PW_GRID| Real space group dimensions                                     8    1
 PW_GRID| the grid is blocked:                                                NO
 PW_GRID| Cutoff [a.u.]                                                     55.6
 PW_GRID| spherical cutoff:                                                   NO
 PW_GRID|   Bounds   1            -12      11                Points:          24
 PW_GRID|   Bounds   2            -12      11                Points:          24
 PW_GRID|   Bounds   3            -12      11                Points:          24
 PW_GRID| Volume element (a.u.^3)  0.1789E-01     Volume (a.u.^3)       247.3284
 PW_GRID| Grid span                                                    FULLSPACE
 PW_GRID|   Distribution                         Average         Max         Min
 PW_GRID|   G-Vectors                             1728.0        1800        1680
 PW_GRID|   G-Rays                                  72.0          75          70
 PW_GRID|   Real Space Points                     1728.0        1728        1728

 PW_GRID| Information for grid number                                          4
 PW_GRID| Number of the reference grid                                         1
 PW_GRID| Grid distributed over                                     8 processors
 PW_GRID| Real space group dimensions                                     8    1
 PW_GRID| the grid is blocked:                                                NO
 PW_GRID| Cutoff [a.u.]                                                     18.5
 PW_GRID| spherical cutoff:                                                   NO
 PW_GRID|   Bounds   1             -7       7                Points:          15
 PW_GRID|   Bounds   2             -7       7                Points:          15
 PW_GRID|   Bounds   3             -7       7                Points:          15
 PW_GRID| Volume element (a.u.^3)  0.7328E-01     Volume (a.u.^3)       247.3284
 PW_GRID| Grid span                                                    FULLSPACE
 PW_GRID|   Distribution                         Average         Max         Min
 PW_GRID|   G-Vectors                              421.9         435         405
 PW_GRID|   G-Rays                                  28.1          29          27
 PW_GRID|   Real Space Points                      421.9         450         225

 POISSON| Solver                                                        PERIODIC
 POISSON| Periodicity                                                        XYZ

 RS_GRID| Information for grid number                                          1
 RS_GRID|   Bounds   1            -32      31                Points:          64
 RS_GRID|   Bounds   2            -32      31                Points:          64
 RS_GRID|   Bounds   3            -32      31                Points:          64
 RS_GRID| Real space fully replicated
 RS_GRID| Group size                                                           1

 RS_GRID| Information for grid number                                          2
 RS_GRID|   Bounds   1            -20      19                Points:          40
 RS_GRID|   Bounds   2            -20      19                Points:          40
 RS_GRID|   Bounds   3            -20      19                Points:          40
 RS_GRID| Real space fully replicated
 RS_GRID| Group size                                                           1

 RS_GRID| Information for grid number                                          3
 RS_GRID|   Bounds   1            -12      11                Points:          24
 RS_GRID|   Bounds   2            -12      11                Points:          24
 RS_GRID|   Bounds   3            -12      11                Points:          24
 RS_GRID| Real space fully replicated
 RS_GRID| Group size                                                           1

 RS_GRID| Information for grid number                                          4
 RS_GRID|   Bounds   1             -7       7                Points:          15
 RS_GRID|   Bounds   2             -7       7                Points:          15
 RS_GRID|   Bounds   3             -7       7                Points:          15
 RS_GRID| Real space fully replicated
 RS_GRID| Group size                                                           1

 Number of electrons:                                                         26
 Number of occupied orbitals:                                                 13
 Number of molecular orbitals:                                                52

 Number of orbital functions:                                                 52
 Number of independent orbital functions:                                     52

 Extrapolation method: initial_guess

 Atomic guess: The first density matrix is obtained in terms of atomic orbitals
               and electronic configurations assigned to each atomic kind

 Guess for atomic kind: Ta

 Electronic structure
    Total number of core electrons                                         60.00
    Total number of valence electrons                                      13.00
    Total number of electrons                                              73.00
    Multiplicity                                                   not specified
    S   [  2.00  2.00  2.00  2.00] 2.00  2.00
    P   [  6.00  6.00  6.00] 6.00
    D   [ 10.00 10.00] 3.00
    F   [ 14.00]


 *******************************************************************************
                  Iteration          Convergence                     Energy [au]
 *******************************************************************************
                          1         1.26234                     -57.265330769994
                          2         1.21386                     -57.344695796096
                          3        0.286133E-01                 -57.615141571802
                          4        0.554192E-02                 -57.615214060161
                          5        0.924970E-04                 -57.615225096047
                          6        0.110854E-05                 -57.615225101841
                          7        0.216557E-06                 -57.615225101841

 Energy components [Hartree]           Total Energy ::          -57.615225101841
                                        Band Energy ::          -14.350945124639
                                     Kinetic Energy ::           17.919283366395
                                   Potential Energy ::          -75.534508468237
                                      Virial (-V/T) ::            4.215263910045
                                        Core Energy ::          -96.449134404846
                                          XC Energy ::           -6.427280718965
                                     Coulomb Energy ::           45.261190021970
                       Total Pseudopotential Energy ::         -114.493936025264
                       Local Pseudopotential Energy ::         -105.757172396681
                    Nonlocal Pseudopotential Energy ::           -8.736763628582
                                        Confinement ::            1.255182540221

 Orbital energies  State     L     Occupation   Energy[a.u.]          Energy[eV]

                       1     0          2.000      -2.633887          -71.671706
                       2     0          2.000      -0.163858           -4.458811

                       1     1          6.000      -1.410586          -38.384000

                       1     2          3.000      -0.097313           -2.648013


 Total Electron Density at R=0:                                         0.003767
 Re-scaling the density matrix to get the right number of electrons
                  # Electrons              Trace(P)               Scaling factor
                           26                26.000                        1.000


 SCF WAVEFUNCTION OPTIMIZATION

  Step     Update method      Time    Convergence         Total energy    Change
  ------------------------------------------------------------------------------
     1 NoMix/Diag. 0.10E+00    9.9     2.52745878      -117.2801574773 -1.17E+02
     2 Broy./Diag. 0.10E+00   10.7     0.02470054      -117.4049061388 -1.25E-01
     3 Broy./Diag. 0.10E+00   10.7     0.23393147      -116.8386791716  5.66E-01
     4 Broy./Diag. 0.10E+00   10.6     0.00053085      -116.4301256396  4.09E-01
     5 Broy./Diag. 0.10E+00   10.7     0.00860575      -116.4502766550 -2.02E-02
     6 Broy./Diag. 0.10E+00   10.6     0.00021024      -116.4600624531 -9.79E-03
     7 Broy./Diag. 0.10E+00   10.6     0.00051594      -116.4628062055 -2.74E-03
     8 Broy./Diag. 0.10E+00   10.7     0.00001489      -116.4630954015 -2.89E-04
     9 Broy./Diag. 0.10E+00   10.6     0.00014483      -116.4628740293  2.21E-04
    10 Broy./Diag. 0.10E+00   10.6     0.00000113      -116.4628118277  6.22E-05
    11 Broy./Diag. 0.10E+00   10.7     0.00000837      -116.4627985902  1.32E-05
    12 Broy./Diag. 0.10E+00   10.6     0.00000061      -116.4627951257  3.46E-06
    13 Broy./Diag. 0.10E+00   10.6     0.00000008      -116.4627954324 -3.07E-07
    14 Broy./Diag. 0.10E+00   10.6     0.00000006      -116.4627958801 -4.48E-07
    15 Broy./Diag. 0.10E+00   10.7     2.0494E-09      -116.4627959290 -4.89E-08
    16 Broy./Diag. 0.10E+00   10.6     0.00000002      -116.4627959679 -3.89E-08
    17 Broy./Diag. 0.10E+00   10.6     3.5592E-11      -116.4627959774 -9.51E-09

  *** SCF run converged in    17 steps ***


  Electronic density on regular grids:        -26.0000000000        0.0000000000
  Core density on regular grids:               26.0000000000       -0.0000000000
  Total charge density on r-space grids:        0.0000000000
  Total charge density g-space grids:           0.0000000000

  Overlap energy of the core charge distribution:               0.00000000068899
  Self energy of the core charge distribution:               -173.36007203558330
  Core Hamiltonian energy:                                     37.10959127782380
  Hartree energy:                                              33.49492906132215
  Exchange-correlation energy:                                -13.70706044279227
  Electronic entropic energy:                                  -0.00018383890416
  Fermi energy:                                                 0.46965480413368

  Total energy:                                              -116.46279597744477

 !-----------------------------------------------------------------------------!
                     Mulliken Population Analysis

 #  Atom  Element  Kind  Atomic population                           Net charge
       1     Ta       1         13.000000                             -0.000000
       2     Ta       1         13.000000                              0.000000
 # Total charge                             26.000000                  0.000000

 !-----------------------------------------------------------------------------!

 !-----------------------------------------------------------------------------!
                           Hirshfeld Charges

  #Atom  Element  Kind  Ref Charge     Population                    Net charge
      1       Ta     1      13.000         13.000                         0.000
      2       Ta     1      13.000         13.000                        -0.000

  Total Charge                                                            0.000
 !-----------------------------------------------------------------------------!
  
 -------------------------------------------------------------------------------
 -                                                                             -
 -                          BANDSTRUCTURE CALCULATION                          -
 -                                                                             -
 -------------------------------------------------------------------------------
  
 Number of occupied molecular orbitals (MOs) = Number of occupied bands       13
 Number of unoccupied (= virtual) MOs = Number of unoccupied bands            39
 Number of Gaussian basis functions for MOs                                   52
 Number of cells considered in the DFT calculation                          2076
 Number of cells for G, , W,                                               343
 Number of special k-points for the bandstructure                              4
 Number of k-points for the bandstructure                                    660

 SOC requested, SOC energy window:                                       10.0 eV

 
 SCF valence band maximum (eV):                                           14.007
 SCF conduction band minimum (eV):                                        11.546
 SCF indirect band gap (eV):                                              -2.461
 SCF direct band gap (eV):                                                 0.000
 
 SCF+SOC valence band maximum (eV):                                       13.973
 SCF+SOC conduction band minimum (eV):                                    11.749
 SCF+SOC indirect band gap (eV):                                          -2.224
 SCF+SOC direct band gap (eV):                                             0.000

 ENERGY| Total FORCE_EVAL ( QS ) energy [hartree]           -116.462795977444770

 -------------------------------------------------------------------------------
 -                                                                             -
 -                                DBCSR STATISTICS                             -
 -                                                                             -
 -------------------------------------------------------------------------------
 COUNTER                                    TOTAL       BLAS       SMM       ACC
 flops inhomo. stacks                           0       0.0%      0.0%      0.0%
 flops total                         0.000000E+00       0.0%      0.0%      0.0%
 flops max/rank                      0.000000E+00       0.0%      0.0%      0.0%
 matmuls inhomo. stacks                         0       0.0%      0.0%      0.0%
 matmuls total                                  0       0.0%      0.0%      0.0%
 number of processed stacks                     0       0.0%      0.0%      0.0%
 average stack size                                     0.0       0.0       0.0
 marketing flops                     0.000000E+00
 -------------------------------------------------------------------------------
 -                                                                             -
 -                      DBCSR MESSAGE PASSING PERFORMANCE                      -
 -                                                                             -
 -------------------------------------------------------------------------------
 ROUTINE             CALLS      AVE VOLUME [Bytes]
 MP_Bcast                1                     12.
 MP_Allreduce           19                     21.
 MP_Alltoall        494000                   4561.
 -------------------------------------------------------------------------------

 -------------------------------------------------------------------------------
 -                                                                             -
 -                                DBM STATISTICS                               -
 -                                                                             -
 -------------------------------------------------------------------------------
    M  x    N  x    K                                          COUNT     PERCENT
 -------------------------------------------------------------------------------

 -------------------------------------------------------------------------------
 -                                                                             -
 -                                GRID STATISTICS                              -
 -                                                                             -
 -------------------------------------------------------------------------------
 LP    KERNEL             BACKEND                              COUNT     PERCENT
 6     collocate ortho    CPU                                 567396      51.43%
 6     integrate ortho    CPU                                 535874      48.57%
 0     collocate general  CPU                                      4       0.00%
 0     integrate general  CPU                                      2       0.00%
 -------------------------------------------------------------------------------

 MEMORY| Estimated peak process memory [MiB]                                 796

 -------------------------------------------------------------------------------
[...]
 count for grid        3:          33528          cutoff [a.u.]           55.56
 count for grid        4:          43552          cutoff [a.u.]           18.52
 total gridlevel count  :         152686

 -------------------------------------------------------------------------------
 -                                                                             -
 -                         MESSAGE PASSING PERFORMANCE                         -
 -                                                                             -
 -------------------------------------------------------------------------------

 ROUTINE             CALLS      AVE VOLUME [Bytes]
 MP_Group                5
 MP_Bcast           156871                   3628.
 MP_Allreduce       109180                     31.
 MP_Sync                 4
 MP_Alltoall           311                1463056.
 MP_SendRecv           518                  90656.
 MP_ISendRecv          483                  88446.
 MP_Wait            108195
 MP_comm_split           3
 MP_ISend           114240                    630.
 MP_IRecv           182784                    396.
 -------------------------------------------------------------------------------


 -------------------------------------------------------------------------------
 -                                                                             -
 -                           R E F E R E N C E S                               -
 -                                                                             -
 -------------------------------------------------------------------------------
 
 CP2K version 2025.1 (Development Version), the CP2K developers group (2025).
 CP2K is freely available from https://www.cp2k.org/ .
 
 T. D. Kuehne, M. Iannuzzi, M. Del Ben, V. V. Rybkin, P. Seewald, F. Stein, T. 
 Laino, R. Z. Khaliullin, O. Schuett, F. Schiffmann, D. Golze, J. Wilhelm, S. 
 Chulkov, M. H. Bani-Hashemian, V. Weber, U. Borstnik, M. Taillefumier, A. S. 
 Jakobovits, A. Lazzaro, H. Pabst, T. Mueller, R. Schade, M. Guidon, S. 
 Andermatt, N. Holmberg, G. K. Schenter, A. Hehn, A. Bussy, F. Belleflamme, G. 
 Tabacchi, A. Gloess, M. Lass, I. Bethune, C. J. Mundy, C. Plessl, M. Watkins, 
 J. VandeVondele, M. Krack, J. Hutter.
 J. Chem. Phys. 152, 194103 (2020).
 CP2K: An electronic structure and molecular dynamics software package - 
 Quickstep: Efficient and accurate electronic structure calculations.
 https://doi.org/10.1063/5.0007045

 O. Schuett, P. Messmer, J. Hutter, J. VandeVondele.
 Electronic Structure Calculations on Graphics Processing Units, 173-190 (2016).
 GPU-Accelerated Sparse Matrix-Matrix Multiplication for Linear Scaling Density 
 Functional Theory.
 https://doi.org/10.1002/9781118670712.ch8

 J. Hutter, M. Iannuzzi, F. Schiffmann, J. VandeVondele.
 WIREs Comput Mol Sci. 4, 15-25 (2014).
 CP2K: atomistic simulations of condensed matter systems.
 https://doi.org/10.1002/wcms.1159

 U. Borstnik, J. VandeVondele, V. Weber, J. Hutter.
 Parallel Comput. 40, 47-58 (2014).
 Sparse matrix multiplication: The distributed block-compressed sparse row 
 library.
 https://doi.org/10.1016/j.parco.2014.03.012

 J. VandeVondele, J. Hutter.
 J. Chem. Phys. 127, 114105 (2007).
 Gaussian basis sets for accurate calculations on molecular systems in gas and 
 condensed phases.
 https://doi.org/10.1063/1.2770708

 J. VandeVondele, M. Krack, F. Mohamed, M. Parrinello, T. Chassaing, J. Hutter.
 Comput. Phys. Commun. 167, 103-128 (2005).
 QUICKSTEP: Fast and accurate density functional calculations using a mixed 
 Gaussian and plane waves approach.
 https://doi.org/10.1016/j.cpc.2004.12.014

 M. Krack.
 Theor. Chem. Acc. 114, 145-152 (2005).
 Pseudopotentials for H to Kr optimized for gradient-corrected 
 exchange-correlation functionals.
 https://doi.org/10.1007/s00214-005-0655-y

 M. Frigo, S. G. Johnson.
 Proc. IEEE 93, 216-231 (2005).
 The design and implementation of FFTW3.
 https://doi.org/10.1109/JPROC.2004.840301

 C. Hartwigsen, S. Goedecker, J. Hutter.
 Phys. Rev. B 58, 3641-3662 (1998).
 Relativistic separable dual-space Gaussian pseudopotentials from H to Rn.
 https://doi.org/10.1103/PhysRevB.58.3641

 G. Lippert, J. Hutter, M. Parrinello.
 Mol. Phys. 92, 477-487 (1997).
 A hybrid Gaussian and plane wave density functional scheme.
 https://doi.org/10.1080/002689797170220

 S. Goedecker, M. Teter, J. Hutter.
 Phys. Rev. B 54, 1703-1710 (1996).
 Separable dual-space Gaussian pseudopotentials.
 https://doi.org/10.1103/PhysRevB.54.1703

 J. P. Perdew, K. Burke, M. Ernzerhof.
 Phys. Rev. Lett. 77, 3865-3868 (1996).
 Generalized gradient approximation made simple.
 https://doi.org/10.1103/PhysRevLett.77.3865


 -------------------------------------------------------------------------------
 -                                                                             -
 -                                T I M I N G                                  -
 -                                                                             -
 -------------------------------------------------------------------------------
 SUBROUTINE                       CALLS  ASD         SELF TIME        TOTAL TIME
                                MAXIMUM       AVERAGE  MAXIMUM  AVERAGE  MAXIMUM
 CP2K                                 1  1.0    0.018    0.023  240.533  240.533
 qs_energies                          1  2.0    0.007    0.007  240.288  240.297
 mp_alltoall_i22                  84884  9.0  153.474  188.745  153.474  188.745
 scf_env_do_scf                       1  3.0    0.000    0.000  182.398  182.399
 scf_env_do_scf_inner_loop           17  4.0    0.031    0.034  182.398  182.398
 qs_scf_new_mos_kp                   17  5.0    0.000    0.000  164.805  167.602
 do_general_diag_kp                  17  6.0    0.094    0.114  164.805  167.601
 dbcsr_desymmetrize_deep          50094  7.7    0.749    0.897  121.682  148.639
 rskp_transform                   12004  7.3   23.681  127.558   23.681  127.558
 qs_energies_properties               1  3.0    0.000    0.000   53.600   53.608
 post_scf_bandstructure               1  4.0    0.000    0.000   53.600   53.608
 dbcsr_complete_redistribute      34790  8.4    1.129    1.280   45.096   53.269
 kpoint_density_transform            17  7.0    0.052    0.061   46.317   46.465
 copy_fm_to_dbcsr                  8704  8.0    0.050    0.056   37.276   45.287
 transform_dmat                    4352  8.0    8.036   43.097    8.036   43.097
 rsmat_to_kp                       3300  7.0    0.052    0.060   38.910   38.919
 soc                                  1  5.0    0.001    0.001   27.073   27.073
 H_KS_spinor_kp                       1  6.0    0.010    0.012   25.729   26.583
 create_and_init_bs_env               1  5.0    0.000    0.000   20.656   20.656
 compute_cfm_mo_coeff_kp_and_ei       1  6.0    0.005    0.006   20.653   20.653
 qs_ks_update_qs_env                 17  5.0    0.000    0.000    4.458   16.684
 rebuild_ks_matrix                   17  6.0    0.000    0.000    3.413   15.639
 qs_ks_build_kohn_sham_matrix        17  7.0    0.058    0.060    3.413   15.639
 sum_up_and_integrate                17  8.0    0.000    0.000    2.928   15.129
 integrate_v_rspace                  17  9.0    0.025    0.133    2.927   15.128
 grid_integrate_task_list            17 10.0    2.804   14.922    2.804   14.922
 transfer_rs2pw                      74  8.0    0.001    0.001   10.565   13.020
 transfer_rs2pw_500                  20  8.8    0.018    0.020   10.545   12.999
 mp_sendrecv_dv                     518 10.0   10.540   12.997   10.540   12.997
 copy_dbcsr_to_fm                 26086  7.2    0.259    0.288   12.183   12.359
 qs_rho_update_rho_low               18  5.0    0.000    0.000   11.173   11.189
 calculate_rho_elec                  18  6.0    0.009    0.026   11.173   11.189
 density_rs2pw                       18  7.0    0.001    0.001    9.069   11.152
 grid_collocate_task_list            18  7.0    2.094   11.012    2.094   11.012
 cp_cfm_heevd                      3068  7.8    0.004    0.004    9.561    9.573
 cp_cfm_heevd_base                 3068  8.8    9.557    9.568    9.557    9.568
 cp_dbcsr_alloc_block_from_nbl    35766  6.4    1.145    5.681    1.247    6.040
 dos_pdos_ldos                        1  5.0    0.005    0.005    5.871    5.880
 SOC_ev                             660  6.0    0.011    0.012    5.488    5.498
 cp_cfm_geeig_canon                1204  7.0    0.009    0.010    5.142    5.152
 V_SOC_xyz_from_pseudopotential       1  6.0    0.063    0.064    1.343    4.242
 mp_sum_iv                         1340  8.9    3.188    4.107    3.188    4.107
 alloc_cfm_double_array_1d            1  7.0    0.001    0.001    2.913    3.767
 create_cfm_double                  660  8.0    0.005    0.005    2.911    3.765
 dbcsr_finalize                  166796  8.2    0.460    0.627    2.946    3.550
 qs_energies_init_hamiltonians        1  3.0    0.000    0.000    2.483    2.483
 cp_fm_start_copy_general         26112  7.3    0.369    0.541    2.200    2.243
 mp_cart_sub                      52174  9.2    2.222    2.237    2.222    2.237
 mp_alltoall_d11v                254652  9.6    1.998    2.175    1.998    2.175
 build_core_hamiltonian_matrix        1  4.0    0.007    0.008    0.479    2.008
 qs_env_update_s_mstruct              1  4.0    0.000    0.000    1.638    1.935
 dbcsr_merge_all                  41018 10.4    0.985    1.249    1.641    1.925
 calculate_rho_core                   1  5.0    0.001    0.002    1.537    1.913
 dbcsr_dot                        70585  8.0    0.305    0.478    1.557    1.689
 mp_sum_d                         71139  9.0    1.394    1.653    1.394    1.653
 hybrid_alltoall_any              50094  8.7    0.199    0.226    1.445    1.574
 write_kpoints_restart               17  5.0    0.009    0.014    1.485    1.485
 init_scf_run                         1  3.0    0.000    0.000    1.206    1.337
 scf_env_initial_rho_setup            1  4.0    0.000    0.000    1.206    1.337
 mp_cart_create                   26092  9.2    1.238    1.279    1.238    1.279
 mp_alltoall_i11v                154464  9.2    1.081    1.137    1.081    1.137
 dbcsr_add_d                       6228  7.0    0.006    0.007    0.429    1.121
 dbcsr_add_anytype                 6228  8.0    0.022    0.074    0.423    1.115
 evaluate_core_matrix_traces         17  6.0    0.000    0.000    1.045    1.045
 calculate_ptrace_kp                 34  7.0    0.051    0.053    1.045    1.045
 dbcsr_work_create                91112  9.0    0.491    0.580    0.845    1.030
 dbcsr_create_new                241799  7.9    0.741    0.807    0.929    1.001
 mp_allgather_i                   52224  8.3    0.938    0.996    0.938    0.996
 build_core_ppnl                      2  6.0    0.261    0.946    0.261    0.946
 dbcsr_iterator_start            346529  8.9    0.723    0.799    0.815    0.931
 dbcsr_copy                       87592  6.7    0.475    0.552    0.740    0.919
 cp_cfm_gemm                       6912  8.5    0.871    0.888    0.871    0.888
 dbcsr_data_new                 1009224  9.7    0.637    0.796    0.637    0.796
 self_consistency_check              17  5.0    0.050    0.051    0.713    0.745
 mixing_allocate                      1  3.0    0.012    0.012    0.174    0.736
 mp_bcast_iv                     104475  8.3    0.630    0.722    0.630    0.722
 calculate_first_density_matrix       1  5.0    0.001    0.001    0.571    0.703
 calculate_atomic_block_dm            1  6.0    0.001    0.001    0.567    0.699
 parallel_gemm_cfm                 3300  7.0    0.003    0.003    0.656    0.673
 parallel_gemm_cfm_gemm            3300  8.0    0.003    0.004    0.653    0.670
 dbcsr_work_destroy_all           91112 10.0    0.400    0.447    0.602    0.667
 cp_sm_mix                        35292  6.0    0.100    0.196    0.610    0.651
 copy_dbcsr_to_fm_bc              26086  8.2    0.253    0.262    0.562    0.582
 dbcsr_iterator_stop             346529  8.9    0.447    0.502    0.521    0.577
 tree_to_linear_d                 34790 11.4    0.511    0.543    0.511    0.543
 dbcsr_data_release             1455941 10.1    0.485    0.535    0.485    0.535
 dbcsr_destroy                   164987  7.6    0.254    0.271    0.487    0.526
 cp_fm_write_unformatted           2076  6.0    0.407    0.499    0.411    0.520
 mp_max_d                         35294  7.0    0.424    0.487    0.424    0.487
 add_to_DOS_PDOS                   1320  6.5    0.441    0.443    0.441    0.443
 build_kinetic_matrix_low             1  5.0    0.026    0.086    0.104    0.441
 build_overlap_matrix_low             1  5.0    0.025    0.073    0.104    0.430
 calculate_ecore_overlap              1  4.0    0.000    0.000    0.344    0.424
 copy_fm_to_dbcsr_bc               8704  9.0    0.111    0.123    0.381    0.414
 dbcsr_reserve_blocks             44470  8.1    0.118    0.361    0.133    0.397
 build_core_ppl                       1  5.0    0.075    0.396    0.075    0.396
 qs_env_rebuild_rho                   1  5.0    0.000    0.000    0.086    0.367
 qs_rho_rebuild                       1  6.0    0.006    0.006    0.086    0.367
 qs_scf_ensure_work_matrices          1  3.0    0.000    0.000    0.281    0.346
 kpoint_set_mo_occupation            17  7.0    0.311    0.312    0.327    0.339
 dbcsr_set                       150211  7.4    0.133    0.141    0.203    0.316
 quick_finalize                   50094  9.7    0.130    0.178    0.212    0.292
 mp_comm_free                     78955  9.1    0.234    0.257    0.234    0.257
 dbcsr_scale_anytype               6229  9.0    0.044    0.052    0.229    0.248
 dbcsr_copy_into_existing         10780  9.2    0.082    0.175    0.142    0.237
 compute_proj_mo_on_kind            660  6.0    0.013    0.014    0.208    0.230
 fft_wrap_pw1pw2                    311 10.0    0.002    0.002    0.213    0.230
 add_cfm_submat                    5280  7.0    0.044    0.046    0.222    0.226
 fft_wrap_pw1pw2_500                206 11.3    0.012    0.013    0.190    0.207
 fft3d_ps                           311 12.0    0.074    0.079    0.178    0.195
 mp_bcast_im                      52224  8.3    0.151    0.192    0.151    0.192
 dbcsr_zero                      150211  8.4    0.070    0.175    0.070    0.175
 mp_waitall_1                    108195  8.4    0.081    0.170    0.081    0.170
 cp_fm_finish_copy_general        10880  7.8    0.106    0.118    0.120    0.139
 dbcsr_iterator_seek             346529  9.9    0.092    0.132    0.092    0.132
 dbcsr_sort_indices              129354 10.8    0.064    0.128    0.064    0.128
 qs_vxc_create                       17  8.0    0.000    0.000    0.127    0.127
 xc_vxc_pw_create                    17  9.0    0.005    0.005    0.126    0.127
 dbcsr_make_index_exist          241799  8.9    0.114    0.124    0.114    0.124
 kpoint_density_matrices             17  7.0    0.007    0.007    0.107    0.117
 cp_fm_to_fm_submat               10560  8.0    0.115    0.116    0.115    0.116
 potential_pw2rs                     17 10.0    0.001    0.001    0.098    0.115
 parallel_gemm_fm                  2176  8.0    0.002    0.002    0.098    0.108
 parallel_gemm_fm_gemm             2176  9.0    0.002    0.002    0.096    0.106
 cp_fm_gemm                        2176 10.0    0.094    0.104    0.094    0.104
 mp_alltoall_z22v                   311 14.0    0.083    0.101    0.083    0.101
 parser_read_line                  8063  4.0    0.003    0.003    0.096    0.098
 parser_read_line_low                26  6.1    0.009    0.038    0.093    0.095
 broadcast_input_information         26  7.1    0.027    0.032    0.084    0.090
 gspace_mixing                       16  5.0    0.004    0.004    0.089    0.089
 merge_index                      41018 11.4    0.071    0.087    0.071    0.087
 xc_pw_derive                       102 11.0    0.000    0.000    0.080    0.082
 qs_create_task_list                  1  5.0    0.000    0.000    0.015    0.078
 generate_qs_task_list                1  6.0    0.012    0.060    0.015    0.078
 create_qs_kind_set                   1  2.0    0.000    0.000    0.078    0.078
 read_qs_kind                         1  3.0    0.039    0.041    0.078    0.078
 write_SOC_eigenvalues              148  6.0    0.010    0.076    0.010    0.076
 yz_to_x                            141 12.8    0.006    0.006    0.057    0.075
 broyden_mixing                      16  6.0    0.068    0.069    0.071    0.071
 xc_rho_set_and_dset_create          17 10.0    0.004    0.005    0.069    0.070
 dbcsr_reserve_all_blocks          8704 10.0    0.012    0.015    0.059    0.068
 topology_control                     1  2.0    0.000    0.000    0.063    0.064
 dbcsr_switch_data_area           50094 10.7    0.046    0.046    0.059    0.060
 xc_pw_divergence                    17 10.0    0.000    0.000    0.051    0.052
 mp_irecv_iv                     104448  8.3    0.007    0.052    0.007    0.052
 transfer_pw2rs                      69 10.9    0.000    0.000    0.051    0.051
 mp_isend_dv                      26112  8.3    0.043    0.048    0.043    0.048
 scf_post_calculation_gpw             1  3.0    0.000    0.000    0.046    0.046
 write_available_results              1  4.0    0.000    0.000    0.046    0.046
 write_mo_free_results                1  5.0    0.001    0.001    0.046    0.046
 x_to_yz                            170 13.2    0.012    0.013    0.044    0.046
 read_cell_cif                        2  4.5    0.002    0.004    0.044    0.044
 mp_bcast_i_src                     104  8.1    0.036    0.043    0.036    0.043
 dbcsr_get_data_size_used         91112 10.0    0.030    0.043    0.030    0.043
 mp_sum_dv                         1336  7.0    0.029    0.039    0.029    0.039
 cp_fm_cleanup_copy_general       18496  7.1    0.024    0.026    0.036    0.038
 coordinate_control                   1  3.0    0.000    0.001    0.037    0.037
 coordinate_control_READ_COORDI       1  4.0    0.000    0.000    0.037    0.037
 read_coordinate_cif                  1  5.0    0.002    0.002    0.037    0.037
 mp_isend_iv                      58752  8.3    0.010    0.037    0.010    0.037
 dbcsr_make_dbcsr_index          135582 10.9    0.028    0.036    0.028    0.036
 cp_cfm_scale_and_add_fm          12736  7.8    0.035    0.036    0.035    0.036
 transfer_pw2rs_500                  18 11.8    0.018    0.019    0.035    0.036
 dbcsr_data_copy_aa2              34790 11.2    0.020    0.035    0.020    0.035
 dbcsr_distribution_new           34792  8.6    0.026    0.032    0.026    0.032
 qs_init_subsys                       1  2.0    0.002    0.002    0.029    0.029
 mp_sum_dm3                          17  8.0    0.016    0.028    0.016    0.028
 cp_fm_create                     22664  7.9    0.027    0.027    0.027    0.027
 qs_env_setup                         1  3.0    0.000    0.000    0.026    0.027
 qs_env_rebuild_pw_env                2  3.5    0.000    0.000    0.026    0.026
 pw_env_rebuild                       1  5.0    0.000    0.000    0.025    0.026
 mp_irecv_im2                     52224  8.3    0.003    0.026    0.003    0.026
 -------------------------------------------------------------------------------

 The number of warnings for this run is : 1
 
 -------------------------------------------------------------------------------
  **** **** ******  **  PROGRAM ENDED AT                 2025-08-07 22:16:48.284
 ***** ** ***  *** **   PROGRAM RAN ON                              i03r10c01s11
 **    ****   ******    PROGRAM RAN BY                                   di38fab
 ***** **    ** ** **   PROGRAM PROCESS ID                               1732009
  **** **  *******  **  PROGRAM STOPPED IN /hppfs/scratch/04/di38fab/09_GTH/Delt
                                           a_Set/Ta/aug-SZV-MOLOPT-GTH-tier-2/8x
                                           8x8
