Nb                                      
   1.00000000000000     
     3.322390    0.000000    0.000000
     0.000000    3.322390    0.000000
     0.000000    0.000000    3.322390
   Nb
     2
Direct
  0.000000  0.000000  0.000000
  0.500000  0.500000  0.500000
 
   32   32   32
  278.46      272.00      253.38      224.56      188.20      147.68      107.38      72.028      45.090      27.420    
  17.344      12.069      9.4583      8.2454      7.6844      7.4147      7.3280      7.4147      7.6844      8.2454    
  9.4583      12.069      17.344      27.420      45.090      72.028      107.38      147.68      188.20      224.56    
  253.38      272.00      272.00      265.74      247.66      219.53      183.89      144.13      104.65      70.134    
  43.940      26.820      17.077      11.964      9.4294      8.2468      7.6954      7.4281      7.3418      7.4281    
  7.6954      8.2468      9.4294      11.964      17.077      26.820      43.940      70.134      104.65      144.13    
  183.89      219.53      247.66      265.74      253.38      247.66      230.97      204.72      171.17      133.70    
  96.693      64.671      40.656      25.125      16.319      11.665      9.3450      8.2480      7.7241      7.4639    
  7.3791      7.4639      7.7241      8.2480      9.3450      11.665      16.319      25.125      40.656      64.671    
  96.693      133.70      171.17      204.72      230.97      247.66      224.56      219.53      204.72      181.16    
  150.88      117.18      84.301      56.336      35.745      22.623      15.191      11.214      9.2121      8.2421    
  7.7595      7.5110      7.4289      7.5110      7.7595      8.2421      9.2121      11.214      15.191      22.623    
  35.745      56.336      84.301      117.18      150.88      181.16      204.72      219.53      188.20      183.89    
  171.17      150.88      124.90      96.341      69.028      46.332      29.994      19.730      13.860      10.675    
  9.0437      8.2220      7.7894      7.5566      7.4786      7.5566      7.7894      8.2220      9.0437      10.675    
  13.860      19.730      29.994      46.332      69.028      96.341      124.90      150.88      171.17      183.89    
  147.68      144.13      133.70      117.18      96.341      73.928      53.051      36.171      24.289      16.859    
  12.510      10.118      8.8559      8.1841      7.8046      7.5910      7.5187      7.5910      7.8046      8.1841    
  8.8559      10.118      12.510      16.859      24.289      36.171      53.051      73.928      96.341      117.18    
  133.70      144.13      107.38      104.65      96.693      84.301      69.028      53.051      38.604      27.233    
  19.337      14.304      11.293      9.5993      8.6635      8.1280      7.8016      7.6105      7.5452      7.6105    
  7.8016      8.1280      8.6635      9.5993      11.293      14.304      19.337      27.233      38.604      53.051    
  69.028      84.301      96.693      104.65      72.028      70.134      64.671      56.336      46.332      36.171    
  27.233      20.313      15.444      12.245      10.293      9.1495      8.4754      8.0556      7.7811      7.6158    
  7.5593      7.6158      7.7811      8.0556      8.4754      9.1495      10.293      12.245      15.444      20.313    
  27.233      36.171      46.332      56.336      64.671      70.134      45.090      43.940      40.656      35.745    
  29.994      24.289      19.337      15.444      12.616      10.722      9.5219      8.7739      8.2940      7.9691    
  7.7457      7.6097      7.5635      7.6097      7.7457      7.9691      8.2940      8.7739      9.5219      10.722    
  12.616      15.444      19.337      24.289      29.994      35.745      40.656      43.940      27.420      26.820    
  25.125      22.623      19.730      16.859      14.304      12.245      10.722      9.6634      8.9481      8.4614    
  8.1189      7.8716      7.6985      7.5942      7.5593      7.5942      7.6985      7.8716      8.1189      8.4614    
  8.9481      9.6634      10.722      12.245      14.304      16.859      19.730      22.623      25.125      26.820    
  17.344      17.077      16.319      15.191      13.860      12.510      11.293      10.293      9.5219      8.9481    
  8.5214      8.1985      7.9520      7.7686      7.6423      7.5691      7.5452      7.5691      7.6423      7.7686    
  7.9520      8.1985      8.5214      8.9481      9.5219      10.293      11.293      12.510      13.860      15.191    
  16.319      17.077      12.069      11.964      11.665      11.214      10.675      10.118      9.5993      9.1495    
  8.7739      8.4614      8.1985      7.9780      7.8002      7.6680      7.5809      7.5334      7.5187      7.5334    
  7.5809      7.6680      7.8002      7.9780      8.1985      8.4614      8.7739      9.1495      9.5993      10.118    
  10.675      11.214      11.665      11.964      9.4583      9.4294      9.3450      9.2121      9.0437      8.8559    
  8.6635      8.4754      8.2940      8.1189      7.9520      7.8002      7.6733      7.5792      7.5190      7.4879    
  7.4786      7.4879      7.5190      7.5792      7.6733      7.8002      7.9520      8.1189      8.2940      8.4754    
  8.6635      8.8559      9.0437      9.2121      9.3450      9.4294      8.2454      8.2468      8.2480      8.2421    
  8.2220      8.1841      8.1280      8.0556      7.9691      7.8716      7.7686      7.6680      7.5792      7.5097    
  7.4628      7.4369      7.4289      7.4369      7.4628      7.5097      7.5792      7.6680      7.7686      7.8716    
  7.9691      8.0556      8.1280      8.1841      8.2220      8.2421      8.2480      8.2468      7.6844      7.6954    
  7.7241      7.7595      7.7894      7.8046      7.8016      7.7811      7.7457      7.6985      7.6423      7.5809    
  7.5190      7.4628      7.4179      7.3890      7.3791      7.3890      7.4179      7.4628      7.5190      7.5809    
  7.6423      7.6985      7.7457      7.7811      7.8016      7.8046      7.7894      7.7595      7.7241      7.6954    
  7.4147      7.4281      7.4639      7.5110      7.5566      7.5910      7.6105      7.6158      7.6097      7.5942    
  7.5691      7.5334      7.4879      7.4369      7.3890      7.3544      7.3418      7.3544      7.3890      7.4369    
  7.4879      7.5334      7.5691      7.5942      7.6097      7.6158      7.6105      7.5910      7.5566      7.5110    
  7.4639      7.4281      7.3280      7.3418      7.3791      7.4289      7.4786      7.5187      7.5452      7.5593    
  7.5635      7.5593      7.5452      7.5187      7.4786      7.4289      7.3791      7.3418      7.3280      7.3418    
  7.3791      7.4289      7.4786      7.5187      7.5452      7.5593      7.5635      7.5593      7.5452      7.5187    
  7.4786      7.4289      7.3791      7.3418      7.4147      7.4281      7.4639      7.5110      7.5566      7.5910    
  7.6105      7.6158      7.6097      7.5942      7.5691      7.5334      7.4879      7.4369      7.3890      7.3544    
  7.3418      7.3544      7.3890      7.4369      7.4879      7.5334      7.5691      7.5942      7.6097      7.6158    
  7.6105      7.5910      7.5566      7.5110      7.4639      7.4281      7.6844      7.6954      7.7241      7.7595    
  7.7894      7.8046      7.8016      7.7811      7.7457      7.6985      7.6423      7.5809      7.5190      7.4628    
  7.4179      7.3890      7.3791      7.3890      7.4179      7.4628      7.5190      7.5809      7.6423      7.6985    
  7.7457      7.7811      7.8016      7.8046      7.7894      7.7595      7.7241      7.6954      8.2454      8.2468    
  8.2480      8.2421      8.2220      8.1841      8.1280      8.0556      7.9691      7.8716      7.7686      7.6680    
  7.5792      7.5097      7.4628      7.4369      7.4289      7.4369      7.4628      7.5097      7.5792      7.6680    
  7.7686      7.8716      7.9691      8.0556      8.1280      8.1841      8.2220      8.2421      8.2480      8.2468    
  9.4583      9.4294      9.3450      9.2121      9.0437      8.8559      8.6635      8.4754      8.2940      8.1189    
  7.9520      7.8002      7.6733      7.5792      7.5190      7.4879      7.4786      7.4879      7.5190      7.5792    
  7.6733      7.8002      7.9520      8.1189      8.2940      8.4754      8.6635      8.8559      9.0437      9.2121    
  9.3450      9.4294      12.069      11.964      11.665      11.214      10.675      10.118      9.5993      9.1495    
  8.7739      8.4614      8.1985      7.9780      7.8002      7.6680      7.5809      7.5334      7.5187      7.5334    
  7.5809      7.6680      7.8002      7.9780      8.1985      8.4614      8.7739      9.1495      9.5993      10.118    
  10.675      11.214      11.665      11.964      17.344      17.077      16.319      15.191      13.860      12.510    
  11.293      10.293      9.5219      8.9481      8.5214      8.1985      7.9520      7.7686      7.6423      7.5691    
  7.5452      7.5691      7.6423      7.7686      7.9520      8.1985      8.5214      8.9481      9.5219      10.293    
  11.293      12.510      13.860      15.191      16.319      17.077      27.420      26.820      25.125      22.623    
  19.730      16.859      14.304      12.245      10.722      9.6634      8.9481      8.4614      8.1189      7.8716    
  7.6985      7.5942      7.5593      7.5942      7.6985      7.8716      8.1189      8.4614      8.9481      9.6634    
  10.722      12.245      14.304      16.859      19.730      22.623      25.125      26.820      45.090      43.940    
  40.656      35.745      29.994      24.289      19.337      15.444      12.616      10.722      9.5219      8.7739    
  8.2940      7.9691      7.7457      7.6097      7.5635      7.6097      7.7457      7.9691      8.2940      8.7739    
  9.5219      10.722      12.616      15.444      19.337      24.289      29.994      35.745      40.656      43.940    
  72.028      70.134      64.671      56.336      46.332      36.171      27.233      20.313      15.444      12.245    
  10.293      9.1495      8.4754      8.0556      7.7811      7.6158      7.5593      7.6158      7.7811      8.0556    
  8.4754      9.1495      10.293      12.245      15.444      20.313      27.233      36.171      46.332      56.336    
  64.671      70.134      107.38      104.65      96.693      84.301      69.028      53.051      38.604      27.233    
  19.337      14.304      11.293      9.5993      8.6635      8.1280      7.8016      7.6105      7.5452      7.6105    
  7.8016      8.1280      8.6635      9.5993      11.293      14.304      19.337      27.233      38.604      53.051    
  69.028      84.301      96.693      104.65      147.68      144.13      133.70      117.18      96.341      73.928    
  53.051      36.171      24.289      16.859      12.510      10.118      8.8559      8.1841      7.8046      7.5910    
  7.5187      7.5910      7.8046      8.1841      8.8559      10.118      12.510      16.859      24.289      36.171    
  53.051      73.928      96.341      117.18      133.70      144.13      188.20      183.89      171.17      150.88    
  124.90      96.341      69.028      46.332      29.994      19.730      13.860      10.675      9.0437      8.2220    
  7.7894      7.5566      7.4786      7.5566      7.7894      8.2220      9.0437      10.675      13.860      19.730    
  29.994      46.332      69.028      96.341      124.90      150.88      171.17      183.89      224.56      219.53    
  204.72      181.16      150.88      117.18      84.301      56.336      35.745      22.623      15.191      11.214    
  9.2121      8.2421      7.7595      7.5110      7.4289      7.5110      7.7595      8.2421      9.2121      11.214    
  15.191      22.623      35.745      56.336      84.301      117.18      150.88      181.16      204.72      219.53    
  253.38      247.66      230.97      204.72      171.17      133.70      96.693      64.671      40.656      25.125    
  16.319      11.665      9.3450      8.2480      7.7241      7.4639      7.3791      7.4639      7.7241      8.2480    
  9.3450      11.665      16.319      25.125      40.656      64.671      96.693      133.70      171.17      204.72    
  230.97      247.66      272.00      265.74      247.66      219.53      183.89      144.13      104.65      70.134    
  43.940      26.820      17.077      11.964      9.4294      8.2468      7.6954      7.4281      7.3418      7.4281    
  7.6954      8.2468      9.4294      11.964      17.077      26.820      43.940      70.134      104.65      144.13    
  183.89      219.53      247.66      265.74      272.00      265.74      247.66      219.53      183.89      144.13    
  104.65      70.134      43.940      26.820      17.077      11.964      9.4294      8.2468      7.6954      7.4281    
  7.3418      7.4281      7.6954      8.2468      9.4294      11.964      17.077      26.820      43.940      70.134    
  104.65      144.13      183.89      219.53      247.66      265.74      265.74      259.67      242.07      214.59    
  179.65      140.64      101.97      68.283      42.820      26.240      16.818      11.862      9.4006      8.2473    
  7.7052      7.4403      7.3544      7.4403      7.7052      8.2473      9.4006      11.862      16.818      26.240    
  42.820      68.283      101.97      140.64      179.65      214.59      242.07      259.67      247.66      242.07    
  225.77      200.05      167.13      130.37      94.168      62.950      39.630      24.599      16.083      11.570    
  9.3171      8.2466      7.7312      7.4734      7.3890      7.4734      7.7312      8.2466      9.3171      11.570    
  16.083      24.599      39.630      62.950      94.168      130.37      167.13      200.05      225.77      242.07    
  219.53      214.59      200.05      176.91      147.19      114.16      82.044      54.831      34.868      22.180    
  14.988      11.132      9.1873      8.2397      7.7647      7.5185      7.4369      7.5185      7.7647      8.2397    
  9.1873      11.132      14.988      22.180      34.868      54.831      82.044      114.16      147.19      176.91    
  200.05      214.59      183.89      179.65      167.13      147.19      121.70      93.765      67.147      45.112    
  29.301      19.383      13.700      10.612      9.0251      8.2217      7.7956      7.5652      7.4879      7.5652    
  7.7956      8.2217      9.0251      10.612      13.700      19.383      29.301      45.112      67.147      93.765    
  121.70      147.19      167.13      179.65      144.13      140.64      130.37      114.16      93.765      71.905    
  51.616      35.269      23.789      16.608      12.396      10.075      8.8470      8.1897      7.8160      7.6050    
  7.5334      7.6050      7.8160      8.1897      8.8470      10.075      12.396      16.608      23.789      35.269    
  51.616      71.905      93.765      114.16      130.37      140.64      104.65      101.97      94.168      82.044    
  67.147      51.616      37.620      26.631      19.007      14.137      11.222      9.5779      8.6669      8.1428    
  7.8218      7.6334      7.5691      7.6334      7.8218      8.1428      8.6669      9.5779      11.222      14.137    
  19.007      26.631      37.620      51.616      67.147      82.044      94.168      101.97      70.134      68.283    
  62.950      54.831      45.112      35.269      26.631      19.951      15.243      12.148      10.258      9.1484    
  8.4921      8.0815      7.8121      7.6497      7.5942      7.6497      7.8121      8.0815      8.4921      9.1484    
  10.258      12.148      15.243      19.951      26.631      35.269      45.112      54.831      62.950      68.283    
  43.940      42.820      39.630      34.868      29.301      23.789      19.007      15.243      12.510      10.678    
  9.5163      8.7906      8.3236      8.0064      7.7880      7.6550      7.6097      7.6550      7.7880      8.0064    
  8.3236      8.7906      9.5163      10.678      12.510      15.243      19.007      23.789      29.301      34.868    
  39.630      42.820      26.820      26.240      24.599      22.180      19.383      16.608      14.137      12.148    
  10.678      9.6558      8.9643      8.4928      8.1602      7.9196      7.7511      7.6497      7.6158      7.6497    
  7.7511      7.9196      8.1602      8.4928      8.9643      9.6558      10.678      12.148      14.137      16.608    
  19.383      22.180      24.599      26.240      17.077      16.818      16.083      14.988      13.700      12.396    
  11.222      10.258      9.5163      8.9643      8.5533      8.2416      8.0033      7.8259      7.7039      7.6334    
  7.6105      7.6334      7.7039      7.8259      8.0033      8.2416      8.5533      8.9643      9.5163      10.258    
  11.222      12.396      13.700      14.988      16.083      16.818      11.964      11.862      11.570      11.132    
  10.612      10.075      9.5779      9.1484      8.7906      8.4928      8.2416      8.0303      7.8598      7.7332    
  7.6500      7.6050      7.5910      7.6050      7.6500      7.7332      7.8598      8.0303      8.2416      8.4928    
  8.7906      9.1484      9.5779      10.075      10.612      11.132      11.570      11.862      9.4294      9.4006    
  9.3171      9.1873      9.0251      8.8470      8.6669      8.4921      8.3236      8.1602      8.0033      7.8598    
  7.7397      7.6507      7.5942      7.5652      7.5566      7.5652      7.5942      7.6507      7.7397      7.8598    
  8.0033      8.1602      8.3236      8.4921      8.6669      8.8470      9.0251      9.1873      9.3171      9.4006    
  8.2468      8.2473      8.2466      8.2397      8.2217      8.1897      8.1428      8.0815      8.0064      7.9196    
  7.8259      7.7332      7.6507      7.5861      7.5425      7.5185      7.5110      7.5185      7.5425      7.5861    
  7.6507      7.7332      7.8259      7.9196      8.0064      8.0815      8.1428      8.1897      8.2217      8.2397    
  8.2466      8.2473      7.6954      7.7052      7.7312      7.7647      7.7956      7.8160      7.8218      7.8121    
  7.7880      7.7511      7.7039      7.6500      7.5942      7.5425      7.5006      7.4734      7.4639      7.4734    
  7.5006      7.5425      7.5942      7.6500      7.7039      7.7511      7.7880      7.8121      7.8218      7.8160    
  7.7956      7.7647      7.7312      7.7052      7.4281      7.4403      7.4734      7.5185      7.5652      7.6050    
  7.6334      7.6497      7.6550      7.6497      7.6334      7.6050      7.5652      7.5185      7.4734      7.4403    
  7.4281      7.4403      7.4734      7.5185      7.5652      7.6050      7.6334      7.6497      7.6550      7.6497    
  7.6334      7.6050      7.5652      7.5185      7.4734      7.4403      7.3418      7.3544      7.3890      7.4369    
  7.4879      7.5334      7.5691      7.5942      7.6097      7.6158      7.6105      7.5910      7.5566      7.5110    
  7.4639      7.4281      7.4147      7.4281      7.4639      7.5110      7.5566      7.5910      7.6105      7.6158    
  7.6097      7.5942      7.5691      7.5334      7.4879      7.4369      7.3890      7.3544      7.4281      7.4403    
  7.4734      7.5185      7.5652      7.6050      7.6334      7.6497      7.6550      7.6497      7.6334      7.6050    
  7.5652      7.5185      7.4734      7.4403      7.4281      7.4403      7.4734      7.5185      7.5652      7.6050    
  7.6334      7.6497      7.6550      7.6497      7.6334      7.6050      7.5652      7.5185      7.4734      7.4403    
  7.6954      7.7052      7.7312      7.7647      7.7956      7.8160      7.8218      7.8121      7.7880      7.7511    
  7.7039      7.6500      7.5942      7.5425      7.5006      7.4734      7.4639      7.4734      7.5006      7.5425    
  7.5942      7.6500      7.7039      7.7511      7.7880      7.8121      7.8218      7.8160      7.7956      7.7647    
  7.7312      7.7052      8.2468      8.2473      8.2466      8.2397      8.2217      8.1897      8.1428      8.0815    
  8.0064      7.9196      7.8259      7.7332      7.6507      7.5861      7.5425      7.5185      7.5110      7.5185    
  7.5425      7.5861      7.6507      7.7332      7.8259      7.9196      8.0064      8.0815      8.1428      8.1897    
  8.2217      8.2397      8.2466      8.2473      9.4294      9.4006      9.3171      9.1873      9.0251      8.8470    
  8.6669      8.4921      8.3236      8.1602      8.0033      7.8598      7.7397      7.6507      7.5942      7.5652    
  7.5566      7.5652      7.5942      7.6507      7.7397      7.8598      8.0033      8.1602      8.3236      8.4921    
  8.6669      8.8470      9.0251      9.1873      9.3171      9.4006      11.964      11.862      11.570      11.132    
  10.612      10.075      9.5779      9.1484      8.7906      8.4928      8.2416      8.0303      7.8598      7.7332    
  7.6500      7.6050      7.5910      7.6050      7.6500      7.7332      7.8598      8.0303      8.2416      8.4928    
  8.7906      9.1484      9.5779      10.075      10.612      11.132      11.570      11.862      17.077      16.818    
  16.083      14.988      13.700      12.396      11.222      10.258      9.5163      8.9643      8.5533      8.2416    
  8.0033      7.8259      7.7039      7.6334      7.6105      7.6334      7.7039      7.8259      8.0033      8.2416    
  8.5533      8.9643      9.5163      10.258      11.222      12.396      13.700      14.988      16.083      16.818    
  26.820      26.240      24.599      22.180      19.383      16.608      14.137      12.148      10.678      9.6558    
  8.9643      8.4928      8.1602      7.9196      7.7511      7.6497      7.6158      7.6497      7.7511      7.9196    
  8.1602      8.4928      8.9643      9.6558      10.678      12.148      14.137      16.608      19.383      22.180    
  24.599      26.240      43.940      42.820      39.630      34.868      29.301      23.789      19.007      15.243    
  12.510      10.678      9.5163      8.7906      8.3236      8.0064      7.7880      7.6550      7.6097      7.6550    
  7.7880      8.0064      8.3236      8.7906      9.5163      10.678      12.510      15.243      19.007      23.789    
  29.301      34.868      39.630      42.820      70.134      68.283      62.950      54.831      45.112      35.269    
  26.631      19.951      15.243      12.148      10.258      9.1484      8.4921      8.0815      7.8121      7.6497    
  7.5942      7.6497      7.8121      8.0815      8.4921      9.1484      10.258      12.148      15.243      19.951    
  26.631      35.269      45.112      54.831      62.950      68.283      104.65      101.97      94.168      82.044    
  67.147      51.616      37.620      26.631      19.007      14.137      11.222      9.5779      8.6669      8.1428    
  7.8218      7.6334      7.5691      7.6334      7.8218      8.1428      8.6669      9.5779      11.222      14.137    
  19.007      26.631      37.620      51.616      67.147      82.044      94.168      101.97      144.13      140.64    
  130.37      114.16      93.765      71.905      51.616      35.269      23.789      16.608      12.396      10.075    
  8.8470      8.1897      7.8160      7.6050      7.5334      7.6050      7.8160      8.1897      8.8470      10.075    
  12.396      16.608      23.789      35.269      51.616      71.905      93.765      114.16      130.37      140.64    
  183.89      179.65      167.13      147.19      121.70      93.765      67.147      45.112      29.301      19.383    
  13.700      10.612      9.0251      8.2217      7.7956      7.5652      7.4879      7.5652      7.7956      8.2217    
  9.0251      10.612      13.700      19.383      29.301      45.112      67.147      93.765      121.70      147.19    
  167.13      179.65      219.53      214.59      200.05      176.91      147.19      114.16      82.044      54.831    
  34.868      22.180      14.988      11.132      9.1873      8.2397      7.7647      7.5185      7.4369      7.5185    
  7.7647      8.2397      9.1873      11.132      14.988      22.180      34.868      54.831      82.044      114.16    
  147.19      176.91      200.05      214.59      247.66      242.07      225.77      200.05      167.13      130.37    
  94.168      62.950      39.630      24.599      16.083      11.570      9.3171      8.2466      7.7312      7.4734    
  7.3890      7.4734      7.7312      8.2466      9.3171      11.570      16.083      24.599      39.630      62.950    
  94.168      130.37      167.13      200.05      225.77      242.07      265.74      259.67      242.07      214.59    
  179.65      140.64      101.97      68.283      42.820      26.240      16.818      11.862      9.4006      8.2473    
  7.7052      7.4403      7.3544      7.4403      7.7052      8.2473      9.4006      11.862      16.818      26.240    
  42.820      68.283      101.97      140.64      179.65      214.59      242.07      259.67      253.38      247.66    
  230.97      204.72      171.17      133.70      96.693      64.671      40.656      25.125      16.319      11.665    
  9.3450      8.2480      7.7241      7.4639      7.3791      7.4639      7.7241      8.2480      9.3450      11.665    
  16.319      25.125      40.656      64.671      96.693      133.70      171.17      204.72      230.97      247.66    
  247.66      242.07      225.77      200.05      167.13      130.37      94.168      62.950      39.630      24.599    
  16.083      11.570      9.3171      8.2466      7.7312      7.4734      7.3890      7.4734      7.7312      8.2466    
  9.3171      11.570      16.083      24.599      39.630      62.950      94.168      130.37      167.13      200.05    
  225.77      242.07      230.97      225.77      210.52      186.31      155.23      120.64      86.838      58.008    
  36.715      23.113      15.413      11.302      9.2376      8.2423      7.7514      7.5006      7.4179      7.5006    
  7.7514      8.2423      9.2376      11.302      15.413      23.113      36.715      58.008      86.838      120.64    
  155.23      186.31      210.52      225.77      204.72      200.05      186.31      164.41      136.34      105.36    
  75.532      50.530      32.383      20.930      14.417      10.903      9.1184      8.2350      7.7817      7.5425    
  7.4628      7.5425      7.7817      8.2350      9.1184      10.903      14.417      20.930      32.383      50.530    
  75.532      105.36      136.34      164.41      186.31      200.05      171.17      167.13      155.23      136.34    
  112.36      86.317      61.760      41.649      27.348      18.409      13.250      10.435      8.9758      8.2247    
  7.8175      7.5942      7.5190      7.5942      7.8175      8.2247      8.9758      10.435      13.250      18.409    
  27.348      41.649      61.760      86.317      112.36      136.34      155.23      167.13      133.70      130.37    
  120.64      105.36      86.317      66.103      47.539      32.723      22.385      15.902      12.075      9.9582    
  8.8264      8.2104      7.8536      7.6500      7.5809      7.6500      7.8536      8.2104      8.8264      9.9582    
  12.075      15.902      22.385      32.723      47.539      66.103      86.317      105.36      120.64      130.37    
  96.693      94.168      86.838      75.532      61.760      47.539      34.841      24.943      18.083      13.671    
  11.024      9.5223      8.6814      8.1899      7.8844      7.7039      7.6423      7.7039      7.8844      8.1899    
  8.6814      9.5223      11.024      13.671      18.083      24.943      34.841      47.539      61.760      75.532    
  86.838      94.168      64.671      62.950      58.008      50.530      41.649      32.723      24.943      18.938    
  14.682      11.881      10.164      9.1505      8.5441      8.1597      7.9051      7.7511      7.6985      7.7511    
  7.9051      8.1597      8.5441      9.1505      10.164      11.881      14.682      18.938      24.943      32.723    
  41.649      50.530      58.008      62.950      40.656      39.630      36.715      32.383      27.348      22.385    
  18.083      14.682      12.214      10.560      9.5057      8.8428      8.4120      8.1167      7.9124      7.7880    
  7.7457      7.7880      7.9124      8.1167      8.4120      8.8428      9.5057      10.560      12.214      14.682    
  18.083      22.385      27.348      32.383      36.715      39.630      25.125      24.599      23.113      20.930    
  18.409      15.902      13.671      11.881      10.560      9.6398      9.0152      8.5864      8.2816      8.0601    
  7.9051      7.8121      7.7811      7.8121      7.9051      8.0601      8.2816      8.5864      9.0152      9.6398    
  10.560      11.881      13.671      15.902      18.409      20.930      23.113      24.599      16.319      16.083    
  15.413      14.417      13.250      12.075      11.024      10.164      9.5057      9.0152      8.6485      8.3685    
  8.1535      7.9936      7.8844      7.8218      7.8016      7.8218      7.8844      7.9936      8.1535      8.3685    
  8.6485      9.0152      9.5057      10.164      11.024      12.075      13.250      14.417      15.413      16.083    
  11.665      11.570      11.302      10.903      10.435      9.9582      9.5223      9.1505      8.8428      8.5864    
  8.3685      8.1839      8.0347      7.9246      7.8536      7.8160      7.8046      7.8160      7.8536      7.9246    
  8.0347      8.1839      8.3685      8.5864      8.8428      9.1505      9.5223      9.9582      10.435      10.903    
  11.302      11.570      9.3450      9.3171      9.2376      9.1184      8.9758      8.8264      8.6814      8.5441    
  8.4120      8.2816      8.1535      8.0347      7.9350      7.8623      7.8175      7.7956      7.7894      7.7956    