Nb                                      
   1.00000000000000     
     3.322390    0.000000    0.000000
     0.000000    3.322390    0.000000
     0.000000    0.000000    3.322390
   Nb
     2
Direct
  0.000000  0.000000  0.000000
  0.500000  0.500000  0.500000
 
   32   32   32
 0.27846015741E+03 0.27199943527E+03 0.25338226234E+03 0.22456423984E+03 0.18819692410E+03
 0.14767772239E+03 0.10737976421E+03 0.72027887343E+02 0.45090495413E+02 0.27419737075E+02
 0.17344346770E+02 0.12068985886E+02 0.94583195795E+01 0.82454065094E+01 0.76844416801E+01
 0.74147408989E+01 0.73279670380E+01 0.74147408989E+01 0.76844416801E+01 0.82454065094E+01
 0.94583195795E+01 0.12068985886E+02 0.17344346770E+02 0.27419737075E+02 0.45090495413E+02
 0.72027887343E+02 0.10737976421E+03 0.14767772239E+03 0.18819692410E+03 0.22456423984E+03
 0.25338226234E+03 0.27199943527E+03 0.27199943527E+03 0.26574311544E+03 0.24765691649E+03
 0.21952653642E+03 0.18388827589E+03 0.14413125891E+03 0.10465170928E+03 0.70134230991E+02
 0.43939631241E+02 0.26820488739E+02 0.17077032977E+02 0.11964098993E+02 0.94294314857E+01
 0.82467880124E+01 0.76954414895E+01 0.74281385697E+01 0.73418132194E+01 0.74281385697E+01
 0.76954414895E+01 0.82467880124E+01 0.94294314857E+01 0.11964098993E+02 0.17077032977E+02
 0.26820488739E+02 0.43939631241E+02 0.70134230991E+02 0.10465170928E+03 0.14413125891E+03
 0.18388827589E+03 0.21952653642E+03 0.24765691649E+03 0.26574311544E+03 0.25338226234E+03
 0.24765691649E+03 0.23097144065E+03 0.20471836473E+03 0.17117232607E+03 0.13369579105E+03
 0.96692760589E+02 0.64670897687E+02 0.40656108088E+02 0.25124971583E+02 0.16319228993E+02
 0.11664585129E+02 0.93449597606E+01 0.82479929653E+01 0.77240950830E+01 0.74639392853E+01
 0.73790690609E+01 0.74639392853E+01 0.77240950830E+01 0.82479929653E+01 0.93449597606E+01
 0.11664585129E+02 0.16319228993E+02 0.25124971583E+02 0.40656108088E+02 0.64670897687E+02
 0.96692760589E+02 0.13369579105E+03 0.17117232607E+03 0.20471836473E+03 0.23097144065E+03
 0.24765691649E+03 0.22456423984E+03 0.21952653642E+03 0.20471836473E+03 0.18116017998E+03
 0.15088253506E+03 0.11717794357E+03 0.84301080421E+02 0.56336153927E+02 0.35745343055E+02
 0.22623334562E+02 0.15190620868E+02 0.11213763852E+02 0.92121341821E+01 0.82420518726E+01
 0.77595239939E+01 0.75110404829E+01 0.74288708560E+01 0.75110404829E+01 0.77595239939E+01
 0.82420518726E+01 0.92121341821E+01 0.11213763852E+02 0.15190620868E+02 0.22623334562E+02
 0.35745343055E+02 0.56336153927E+02 0.84301080421E+02 0.11717794357E+03 0.15088253506E+03
 0.18116017998E+03 0.20471836473E+03 0.21952653642E+03 0.18819692410E+03 0.18388827589E+03
 0.17117232607E+03 0.15088253506E+03 0.12490174996E+03 0.96341097673E+02 0.69027604352E+02
 0.46332447259E+02 0.29994171157E+02 0.19729733740E+02 0.13859688909E+02 0.10675287273E+02
 0.90437243133E+01 0.82220083743E+01 0.77893740355E+01 0.75566028054E+01 0.74785723127E+01
 0.75566028054E+01 0.77893740355E+01 0.82220083743E+01 0.90437243133E+01 0.10675287273E+02
 0.13859688909E+02 0.19729733740E+02 0.29994171157E+02 0.46332447259E+02 0.69027604352E+02
 0.96341097673E+02 0.12490174996E+03 0.15088253506E+03 0.17117232607E+03 0.18388827589E+03
 0.14767772239E+03 0.14413125891E+03 0.13369579105E+03 0.11717794357E+03 0.96341097673E+02
 0.73927807085E+02 0.53050560369E+02 0.36170892823E+02 0.24288923200E+02 0.16859008446E+02
 0.12510445421E+02 0.10118275169E+02 0.88559249495E+01 0.81840711733E+01 0.78046227180E+01
 0.75910428483E+01 0.75186570343E+01 0.75910428483E+01 0.78046227180E+01 0.81840711733E+01
 0.88559249495E+01 0.10118275169E+02 0.12510445421E+02 0.16859008446E+02 0.24288923200E+02
 0.36170892823E+02 0.53050560369E+02 0.73927807085E+02 0.96341097673E+02 0.11717794357E+03
 0.13369579105E+03 0.14413125891E+03 0.10737976421E+03 0.10465170928E+03 0.96692760589E+02
 0.84301080421E+02 0.69027604352E+02 0.53050560369E+02 0.38604234166E+02 0.27232531283E+02
 0.19336537133E+02 0.14303932288E+02 0.11293436841E+02 0.95992652084E+01 0.86635257441E+01
 0.81280136228E+01 0.78016198827E+01 0.76104621398E+01 0.75452419773E+01 0.76104621398E+01
 0.78016198827E+01 0.81280136228E+01 0.86635257441E+01 0.95992652084E+01 0.11293436841E+02
 0.14303932288E+02 0.19336537133E+02 0.27232531283E+02 0.38604234166E+02 0.53050560369E+02
 0.69027604352E+02 0.84301080421E+02 0.96692760589E+02 0.10465170928E+03 0.72027887343E+02
 0.70134230991E+02 0.64670897687E+02 0.56336153927E+02 0.46332447259E+02 0.36170892823E+02
 0.27232531283E+02 0.20313066217E+02 0.15443611208E+02 0.12244994995E+02 0.10292596878E+02
 0.91494590241E+01 0.84754357922E+01 0.80555737712E+01 0.77810834779E+01 0.76157688619E+01
 0.75592809667E+01 0.76157688619E+01 0.77810834779E+01 0.80555737712E+01 0.84754357922E+01
 0.91494590241E+01 0.10292596878E+02 0.12244994995E+02 0.15443611208E+02 0.20313066217E+02
 0.27232531283E+02 0.36170892823E+02 0.46332447259E+02 0.56336153927E+02 0.64670897687E+02
 0.70134230991E+02 0.45090495413E+02 0.43939631241E+02 0.40656108088E+02 0.35745343055E+02
 0.29994171157E+02 0.24288923200E+02 0.19336537133E+02 0.15443611208E+02 0.12616441699E+02
 0.10722438165E+02 0.95219351922E+01 0.87738632868E+01 0.82940370178E+01 0.79690691959E+01
 0.77457224319E+01 0.76097461963E+01 0.75635104131E+01 0.76097461963E+01 0.77457224319E+01
 0.79690691959E+01 0.82940370178E+01 0.87738632868E+01 0.95219351922E+01 0.10722438165E+02
 0.12616441699E+02 0.15443611208E+02 0.19336537133E+02 0.24288923200E+02 0.29994171157E+02
 0.35745343055E+02 0.40656108088E+02 0.43939631241E+02 0.27419737075E+02 0.26820488739E+02
 0.25124971583E+02 0.22623334562E+02 0.19729733740E+02 0.16859008446E+02 0.14303932288E+02
 0.12244994995E+02 0.10722438165E+02 0.96634480839E+01 0.89481107745E+01 0.84613951475E+01
 0.81189137706E+01 0.78716446719E+01 0.76984866342E+01 0.75942321018E+01 0.75592809667E+01
 0.75942321018E+01 0.76984866342E+01 0.78716446719E+01 0.81189137706E+01 0.84613951475E+01
 0.89481107745E+01 0.96634480839E+01 0.10722438165E+02 0.12244994995E+02 0.14303932288E+02
 0.16859008446E+02 0.19729733740E+02 0.22623334562E+02 0.25124971583E+02 0.26820488739E+02
 0.17344346770E+02 0.17077032977E+02 0.16319228993E+02 0.15190620868E+02 0.13859688909E+02
 0.12510445421E+02 0.11293436841E+02 0.10292596878E+02 0.95219351922E+01 0.89481107745E+01
 0.85213528916E+01 0.81984618066E+01 0.79520083978E+01 0.77685986722E+01 0.76423154789E+01
 0.75690977670E+01 0.75452419773E+01 0.75690977670E+01 0.76423154789E+01 0.77685986722E+01
 0.79520083978E+01 0.81984618066E+01 0.85213528916E+01 0.89481107745E+01 0.95219351922E+01
 0.10292596878E+02 0.11293436841E+02 0.12510445421E+02 0.13859688909E+02 0.15190620868E+02
 0.16319228993E+02 0.17077032977E+02 0.12068985886E+02 0.11964098993E+02 0.11664585129E+02
 0.11213763852E+02 0.10675287273E+02 0.10118275169E+02 0.95992652084E+01 0.91494590241E+01
 0.87738632868E+01 0.84613951475E+01 0.81984618066E+01 0.79779537330E+01 0.78001985663E+01
 0.76679833590E+01 0.75808584422E+01 0.75334118942E+01 0.75186570343E+01 0.75334118942E+01
 0.75808584422E+01 0.76679833590E+01 0.78001985663E+01 0.79779537330E+01 0.81984618066E+01
 0.84613951475E+01 0.87738632868E+01 0.91494590241E+01 0.95992652084E+01 0.10118275169E+02
 0.10675287273E+02 0.11213763852E+02 0.11664585129E+02 0.11964098993E+02 0.94583195795E+01
 0.94294314857E+01 0.93449597606E+01 0.92121341821E+01 0.90437243133E+01 0.88559249495E+01
 0.86635257441E+01 0.84754357922E+01 0.82940370178E+01 0.81189137706E+01 0.79520083978E+01
 0.78001985663E+01 0.76733282725E+01 0.75791537234E+01 0.75190416473E+01 0.74878786297E+01
 0.74785723127E+01 0.74878786297E+01 0.75190416473E+01 0.75791537234E+01 0.76733282725E+01
 0.78001985663E+01 0.79520083978E+01 0.81189137706E+01 0.82940370178E+01 0.84754357922E+01
 0.86635257441E+01 0.88559249495E+01 0.90437243133E+01 0.92121341821E+01 0.93449597606E+01
 0.94294314857E+01 0.82454065094E+01 0.82467880124E+01 0.82479929653E+01 0.82420518726E+01
 0.82220083743E+01 0.81840711733E+01 0.81280136228E+01 0.80555737712E+01 0.79690691959E+01
 0.78716446719E+01 0.77685986722E+01 0.76679833590E+01 0.75791537234E+01 0.75096956654E+01
 0.74627647160E+01 0.74369314268E+01 0.74288708560E+01 0.74369314268E+01 0.74627647160E+01
 0.75096956654E+01 0.75791537234E+01 0.76679833590E+01 0.77685986722E+01 0.78716446719E+01
 0.79690691959E+01 0.80555737712E+01 0.81280136228E+01 0.81840711733E+01 0.82220083743E+01
 0.82420518726E+01 0.82479929653E+01 0.82467880124E+01 0.76844416801E+01 0.76954414895E+01
 0.77240950830E+01 0.77595239939E+01 0.77893740355E+01 0.78046227180E+01 0.78016198827E+01
 0.77810834779E+01 0.77457224319E+01 0.76984866342E+01 0.76423154789E+01 0.75808584422E+01
 0.75190416473E+01 0.74627647160E+01 0.74178630405E+01 0.73890054985E+01 0.73790690609E+01
 0.73890054985E+01 0.74178630405E+01 0.74627647160E+01 0.75190416473E+01 0.75808584422E+01
 0.76423154789E+01 0.76984866342E+01 0.77457224319E+01 0.77810834779E+01 0.78016198827E+01
 0.78046227180E+01 0.77893740355E+01 0.77595239939E+01 0.77240950830E+01 0.76954414895E+01
 0.74147408989E+01 0.74281385697E+01 0.74639392853E+01 0.75110404829E+01 0.75566028054E+01
 0.75910428483E+01 0.76104621398E+01 0.76157688619E+01 0.76097461963E+01 0.75942321018E+01
 0.75690977670E+01 0.75334118942E+01 0.74878786297E+01 0.74369314268E+01 0.73890054985E+01
 0.73544431955E+01 0.73418132194E+01 0.73544431955E+01 0.73890054985E+01 0.74369314268E+01
 0.74878786297E+01 0.75334118942E+01 0.75690977670E+01 0.75942321018E+01 0.76097461963E+01
 0.76157688619E+01 0.76104621398E+01 0.75910428483E+01 0.75566028054E+01 0.75110404829E+01
 0.74639392853E+01 0.74281385697E+01 0.73279670380E+01 0.73418132194E+01 0.73790690609E+01
 0.74288708560E+01 0.74785723127E+01 0.75186570343E+01 0.75452419773E+01 0.75592809667E+01
 0.75635104131E+01 0.75592809667E+01 0.75452419773E+01 0.75186570343E+01 0.74785723127E+01
 0.74288708560E+01 0.73790690609E+01 0.73418132194E+01 0.73279670380E+01 0.73418132194E+01
 0.73790690609E+01 0.74288708560E+01 0.74785723127E+01 0.75186570343E+01 0.75452419773E+01
 0.75592809667E+01 0.75635104131E+01 0.75592809667E+01 0.75452419773E+01 0.75186570343E+01
 0.74785723127E+01 0.74288708560E+01 0.73790690609E+01 0.73418132194E+01 0.74147408989E+01
 0.74281385697E+01 0.74639392853E+01 0.75110404829E+01 0.75566028054E+01 0.75910428483E+01
 0.76104621398E+01 0.76157688619E+01 0.76097461963E+01 0.75942321018E+01 0.75690977670E+01
 0.75334118942E+01 0.74878786297E+01 0.74369314268E+01 0.73890054985E+01 0.73544431955E+01
 0.73418132194E+01 0.73544431955E+01 0.73890054985E+01 0.74369314268E+01 0.74878786297E+01
 0.75334118942E+01 0.75690977670E+01 0.75942321018E+01 0.76097461963E+01 0.76157688619E+01
 0.76104621398E+01 0.75910428483E+01 0.75566028054E+01 0.75110404829E+01 0.74639392853E+01
 0.74281385697E+01 0.76844416801E+01 0.76954414895E+01 0.77240950830E+01 0.77595239939E+01
 0.77893740355E+01 0.78046227180E+01 0.78016198827E+01 0.77810834779E+01 0.77457224319E+01
 0.76984866342E+01 0.76423154789E+01 0.75808584422E+01 0.75190416473E+01 0.74627647160E+01
 0.74178630405E+01 0.73890054985E+01 0.73790690609E+01 0.73890054985E+01 0.74178630405E+01
 0.74627647160E+01 0.75190416473E+01 0.75808584422E+01 0.76423154789E+01 0.76984866342E+01
 0.77457224319E+01 0.77810834779E+01 0.78016198827E+01 0.78046227180E+01 0.77893740355E+01
 0.77595239939E+01 0.77240950830E+01 0.76954414895E+01 0.82454065094E+01 0.82467880124E+01
 0.82479929653E+01 0.82420518726E+01 0.82220083743E+01 0.81840711733E+01 0.81280136228E+01
 0.80555737712E+01 0.79690691959E+01 0.78716446719E+01 0.77685986722E+01 0.76679833590E+01
 0.75791537234E+01 0.75096956654E+01 0.74627647160E+01 0.74369314268E+01 0.74288708560E+01
 0.74369314268E+01 0.74627647160E+01 0.75096956654E+01 0.75791537234E+01 0.76679833590E+01
 0.77685986722E+01 0.78716446719E+01 0.79690691959E+01 0.80555737712E+01 0.81280136228E+01
 0.81840711733E+01 0.82220083743E+01 0.82420518726E+01 0.82479929653E+01 0.82467880124E+01
 0.94583195795E+01 0.94294314857E+01 0.93449597606E+01 0.92121341821E+01 0.90437243133E+01
 0.88559249495E+01 0.86635257441E+01 0.84754357922E+01 0.82940370178E+01 0.81189137706E+01
 0.79520083978E+01 0.78001985663E+01 0.76733282725E+01 0.75791537234E+01 0.75190416473E+01
 0.74878786297E+01 0.74785723127E+01 0.74878786297E+01 0.75190416473E+01 0.75791537234E+01
 0.76733282725E+01 0.78001985663E+01 0.79520083978E+01 0.81189137706E+01 0.82940370178E+01
 0.84754357922E+01 0.86635257441E+01 0.88559249495E+01 0.90437243133E+01 0.92121341821E+01
 0.93449597606E+01 0.94294314857E+01 0.12068985886E+02 0.11964098993E+02 0.11664585129E+02
 0.11213763852E+02 0.10675287273E+02 0.10118275169E+02 0.95992652084E+01 0.91494590241E+01
 0.87738632868E+01 0.84613951475E+01 0.81984618066E+01 0.79779537330E+01 0.78001985663E+01
 0.76679833590E+01 0.75808584422E+01 0.75334118942E+01 0.75186570343E+01 0.75334118942E+01
 0.75808584422E+01 0.76679833590E+01 0.78001985663E+01 0.79779537330E+01 0.81984618066E+01
 0.84613951475E+01 0.87738632868E+01 0.91494590241E+01 0.95992652084E+01 0.10118275169E+02
 0.10675287273E+02 0.11213763852E+02 0.11664585129E+02 0.11964098993E+02 0.17344346770E+02
 0.17077032977E+02 0.16319228993E+02 0.15190620868E+02 0.13859688909E+02 0.12510445421E+02
 0.11293436841E+02 0.10292596878E+02 0.95219351922E+01 0.89481107745E+01 0.85213528916E+01
 0.81984618066E+01 0.79520083978E+01 0.77685986722E+01 0.76423154789E+01 0.75690977670E+01
 0.75452419773E+01 0.75690977670E+01 0.76423154789E+01 0.77685986722E+01 0.79520083978E+01
 0.81984618066E+01 0.85213528916E+01 0.89481107745E+01 0.95219351922E+01 0.10292596878E+02
 0.11293436841E+02 0.12510445421E+02 0.13859688909E+02 0.15190620868E+02 0.16319228993E+02
 0.17077032977E+02 0.27419737075E+02 0.26820488739E+02 0.25124971583E+02 0.22623334562E+02
 0.19729733740E+02 0.16859008446E+02 0.14303932288E+02 0.12244994995E+02 0.10722438165E+02
 0.96634480839E+01 0.89481107745E+01 0.84613951475E+01 0.81189137706E+01 0.78716446719E+01
 0.76984866342E+01 0.75942321018E+01 0.75592809667E+01 0.75942321018E+01 0.76984866342E+01
 0.78716446719E+01 0.81189137706E+01 0.84613951475E+01 0.89481107745E+01 0.96634480839E+01
 0.10722438165E+02 0.12244994995E+02 0.14303932288E+02 0.16859008446E+02 0.19729733740E+02
 0.22623334562E+02 0.25124971583E+02 0.26820488739E+02 0.45090495413E+02 0.43939631241E+02
 0.40656108088E+02 0.35745343055E+02 0.29994171157E+02 0.24288923200E+02 0.19336537133E+02
 0.15443611208E+02 0.12616441699E+02 0.10722438165E+02 0.95219351922E+01 0.87738632868E+01
 0.82940370178E+01 0.79690691959E+01 0.77457224319E+01 0.76097461963E+01 0.75635104131E+01
 0.76097461963E+01 0.77457224319E+01 0.79690691959E+01 0.82940370178E+01 0.87738632868E+01
 0.95219351922E+01 0.10722438165E+02 0.12616441699E+02 0.15443611208E+02 0.19336537133E+02
 0.24288923200E+02 0.29994171157E+02 0.35745343055E+02 0.40656108088E+02 0.43939631241E+02
 0.72027887343E+02 0.70134230991E+02 0.64670897687E+02 0.56336153927E+02 0.46332447259E+02
 0.36170892823E+02 0.27232531283E+02 0.20313066217E+02 0.15443611208E+02 0.12244994995E+02
 0.10292596878E+02 0.91494590241E+01 0.84754357922E+01 0.80555737712E+01 0.77810834779E+01
 0.76157688619E+01 0.75592809667E+01 0.76157688619E+01 0.77810834779E+01 0.80555737712E+01
 0.84754357922E+01 0.91494590241E+01 0.10292596878E+02 0.12244994995E+02 0.15443611208E+02
 0.20313066217E+02 0.27232531283E+02 0.36170892823E+02 0.46332447259E+02 0.56336153927E+02
 0.64670897687E+02 0.70134230991E+02 0.10737976421E+03 0.10465170928E+03 0.96692760589E+02
 0.84301080421E+02 0.69027604352E+02 0.53050560369E+02 0.38604234166E+02 0.27232531283E+02
 0.19336537133E+02 0.14303932288E+02 0.11293436841E+02 0.95992652084E+01 0.86635257441E+01
 0.81280136228E+01 0.78016198827E+01 0.76104621398E+01 0.75452419773E+01 0.76104621398E+01
 0.78016198827E+01 0.81280136228E+01 0.86635257441E+01 0.95992652084E+01 0.11293436841E+02
 0.14303932288E+02 0.19336537133E+02 0.27232531283E+02 0.38604234166E+02 0.53050560369E+02
 0.69027604352E+02 0.84301080421E+02 0.96692760589E+02 0.10465170928E+03 0.14767772239E+03
 0.14413125891E+03 0.13369579105E+03 0.11717794357E+03 0.96341097673E+02 0.73927807085E+02
 0.53050560369E+02 0.36170892823E+02 0.24288923200E+02 0.16859008446E+02 0.12510445421E+02
 0.10118275169E+02 0.88559249495E+01 0.81840711733E+01 0.78046227180E+01 0.75910428483E+01
 0.75186570343E+01 0.75910428483E+01 0.78046227180E+01 0.81840711733E+01 0.88559249495E+01
 0.10118275169E+02 0.12510445421E+02 0.16859008446E+02 0.24288923200E+02 0.36170892823E+02
 0.53050560369E+02 0.73927807085E+02 0.96341097673E+02 0.11717794357E+03 0.13369579105E+03
 0.14413125891E+03 0.18819692410E+03 0.18388827589E+03 0.17117232607E+03 0.15088253506E+03
 0.12490174996E+03 0.96341097673E+02 0.69027604352E+02 0.46332447259E+02 0.29994171157E+02
 0.19729733740E+02 0.13859688909E+02 0.10675287273E+02 0.90437243133E+01 0.82220083743E+01
 0.77893740355E+01 0.75566028054E+01 0.74785723127E+01 0.75566028054E+01 0.77893740355E+01
 0.82220083743E+01 0.90437243133E+01 0.10675287273E+02 0.13859688909E+02 0.19729733740E+02
 0.29994171157E+02 0.46332447259E+02 0.69027604352E+02 0.96341097673E+02 0.12490174996E+03
 0.15088253506E+03 0.17117232607E+03 0.18388827589E+03 0.22456423984E+03 0.21952653642E+03
 0.20471836473E+03 0.18116017998E+03 0.15088253506E+03 0.11717794357E+03 0.84301080421E+02
 0.56336153927E+02 0.35745343055E+02 0.22623334562E+02 0.15190620868E+02 0.11213763852E+02
 0.92121341821E+01 0.82420518726E+01 0.77595239939E+01 0.75110404829E+01 0.74288708560E+01
 0.75110404829E+01 0.77595239939E+01 0.82420518726E+01 0.92121341821E+01 0.11213763852E+02
 0.15190620868E+02 0.22623334562E+02 0.35745343055E+02 0.56336153927E+02 0.84301080421E+02
 0.11717794357E+03 0.15088253506E+03 0.18116017998E+03 0.20471836473E+03 0.21952653642E+03
 0.25338226234E+03 0.24765691649E+03 0.23097144065E+03 0.20471836473E+03 0.17117232607E+03
 0.13369579105E+03 0.96692760589E+02 0.64670897687E+02 0.40656108088E+02 0.25124971583E+02
 0.16319228993E+02 0.11664585129E+02 0.93449597606E+01 0.82479929653E+01 0.77240950830E+01
 0.74639392853E+01 0.73790690609E+01 0.74639392853E+01 0.77240950830E+01 0.82479929653E+01
 0.93449597606E+01 0.11664585129E+02 0.16319228993E+02 0.25124971583E+02 0.40656108088E+02
 0.64670897687E+02 0.96692760589E+02 0.13369579105E+03 0.17117232607E+03 0.20471836473E+03
 0.23097144065E+03 0.24765691649E+03 0.27199943527E+03 0.26574311544E+03 0.24765691649E+03
 0.21952653642E+03 0.18388827589E+03 0.14413125891E+03 0.10465170928E+03 0.70134230991E+02
 0.43939631241E+02 0.26820488739E+02 0.17077032977E+02 0.11964098993E+02 0.94294314857E+01
 0.82467880124E+01 0.76954414895E+01 0.74281385697E+01 0.73418132194E+01 0.74281385697E+01
 0.76954414895E+01 0.82467880124E+01 0.94294314857E+01 0.11964098993E+02 0.17077032977E+02
 0.26820488739E+02 0.43939631241E+02 0.70134230991E+02 0.10465170928E+03 0.14413125891E+03
 0.18388827589E+03 0.21952653642E+03 0.24765691649E+03 0.26574311544E+03 0.27199943527E+03
 0.26574311544E+03 0.24765691649E+03 0.21952653642E+03 0.18388827589E+03 0.14413125891E+03
 0.10465170928E+03 0.70134230991E+02 0.43939631241E+02 0.26820488739E+02 0.17077032977E+02
 0.11964098993E+02 0.94294314857E+01 0.82467880124E+01 0.76954414895E+01 0.74281385697E+01
 0.73418132194E+01 0.74281385697E+01 0.76954414895E+01 0.82467880124E+01 0.94294314857E+01
 0.11964098993E+02 0.17077032977E+02 0.26820488739E+02 0.43939631241E+02 0.70134230991E+02
 0.10465170928E+03 0.14413125891E+03 0.18388827589E+03 0.21952653642E+03 0.24765691649E+03
 0.26574311544E+03 0.26574311544E+03 0.25967324762E+03 0.24207466424E+03 0.21458606223E+03
 0.17964632973E+03 0.14063861120E+03 0.10197279115E+03 0.68283347374E+02 0.42820461882E+02
 0.26240055111E+02 0.16817808768E+02 0.11861800047E+02 0.94006497360E+01 0.82472606526E+01
 0.77052322740E+01 0.74403027363E+01 0.73544431955E+01 0.74403027363E+01 0.77052322740E+01
 0.82472606526E+01 0.94006497360E+01 0.11861800047E+02 0.16817808768E+02 0.26240055111E+02
 0.42820461882E+02 0.68283347374E+02 0.10197279115E+03 0.14063861120E+03 0.17964632973E+03
 0.21458606223E+03 0.24207466424E+03 0.25967324762E+03 0.24765691649E+03 0.24207466424E+03
 0.22577256269E+03 0.20005198001E+03 0.16713225591E+03 0.13037308441E+03 0.94167578648E+02
 0.62949896042E+02 0.39630461599E+02 0.24598796605E+02 0.16082921299E+02 0.11570139282E+02
 0.93170747413E+01 0.82465675703E+01 0.77311914171E+01 0.74733590758E+01 0.73890054985E+01
 0.74733590758E+01 0.77311914171E+01 0.82465675703E+01 0.93170747413E+01 0.11570139282E+02
 0.16082921299E+02 0.24598796605E+02 0.39630461599E+02 0.62949896042E+02 0.94167578648E+02
 0.13037308441E+03 0.16713225591E+03 0.20005198001E+03 0.22577256269E+03 0.24207466424E+03
 0.21952653642E+03 0.21458606223E+03 0.20005198001E+03 0.17691329931E+03 0.14718664841E+03
 0.11415899276E+03 0.82044254768E+02 0.54830852009E+02 0.34867665099E+02 0.22179554135E+02
 0.14988463743E+02 0.11132423738E+02 0.91872593958E+01 0.82397200342E+01 0.77646832212E+01
 0.75185036305E+01 0.74369314268E+01 0.75185036305E+01 0.77646832212E+01 0.82397200342E+01
 0.91872593958E+01 0.11132423738E+02 0.14988463743E+02 0.22179554135E+02 0.34867665099E+02
 0.54830852009E+02 0.82044254768E+02 0.11415899276E+03 0.14718664841E+03 0.17691329931E+03
 0.20005198001E+03 0.21458606223E+03 0.18388827589E+03 0.17964632973E+03 0.16713225591E+03
 0.14718664841E+03 0.12169949128E+03 0.93765423112E+02 0.67147254113E+02 0.45112404740E+02
 0.29301065059E+02 0.19383336030E+02 0.13699722681E+02 0.10611638547E+02 0.90251173659E+01
 0.82217258397E+01 0.77956129717E+01 0.75652084043E+01 0.74878786297E+01 0.75652084043E+01
 0.77956129717E+01 0.82217258397E+01 0.90251173659E+01 0.10611638547E+02 0.13699722681E+02
 0.19383336030E+02 0.29301065059E+02 0.45112404740E+02 0.67147254113E+02 0.93765423112E+02
 0.12169949128E+03 0.14718664841E+03 0.16713225591E+03 0.17964632973E+03 0.14413125891E+03
 0.14063861120E+03 0.13037308441E+03 0.11415899276E+03 0.93765423112E+02 0.71904741400E+02
 0.51616363477E+02 0.35268589715E+02 0.23788800301E+02 0.16608032758E+02 0.12395643236E+02
 0.10075325875E+02 0.88470326489E+01 0.81896808805E+01 0.78160414610E+01 0.76049840251E+01
 0.75334118942E+01 0.76049840251E+01 0.78160414610E+01 0.81896808805E+01 0.88470326489E+01
 0.10075325875E+02 0.12395643236E+02 0.16608032758E+02 0.23788800301E+02 0.35268589715E+02
 0.51616363477E+02 0.71904741400E+02 0.93765423112E+02 0.11415899276E+03 0.13037308441E+03
 0.14063861120E+03 0.10465170928E+03 0.10197279115E+03 0.94167578648E+02 0.82044254768E+02
 0.67147254113E+02 0.51616363477E+02 0.37619535685E+02 0.26630829873E+02 0.19007004589E+02
 0.14137226932E+02 0.11221559241E+02 0.95778642557E+01 0.86668938843E+01 0.81428422394E+01
 0.78218315104E+01 0.76334001243E+01 0.75690977670E+01 0.76334001243E+01 0.78218315104E+01
 0.81428422394E+01 0.86668938843E+01 0.95778642557E+01 0.11221559241E+02 0.14137226932E+02
 0.19007004589E+02 0.26630829873E+02 0.37619535685E+02 0.51616363477E+02 0.67147254113E+02
 0.82044254768E+02 0.94167578648E+02 0.10197279115E+03 0.70134230991E+02 0.68283347374E+02
 0.62949896042E+02 0.54830852009E+02 0.45112404740E+02 0.35268589715E+02 0.26630829873E+02
 0.19951282223E+02 0.15242978477E+02 0.12148276594E+02 0.10257646333E+02 0.91484023053E+01
 0.84921064484E+01 0.80814985771E+01 0.78121451462E+01 0.76497280085E+01 0.75942321018E+01
 0.76497280085E+01 0.78121451462E+01 0.80814985771E+01 0.84921064484E+01 0.91484023053E+01
 0.10257646333E+02 0.12148276594E+02 0.15242978477E+02 0.19951282223E+02 0.26630829873E+02
 0.35268589715E+02 0.45112404740E+02 0.54830852009E+02 0.62949896042E+02 0.68283347374E+02
 0.43939631241E+02 0.42820461882E+02 0.39630461599E+02 0.34867665099E+02 0.29301065059E+02
 0.23788800301E+02 0.19007004589E+02 0.15242978477E+02 0.12509701211E+02 0.10678334658E+02
 0.95162752805E+01 0.87905761236E+01 0.83236314603E+01 0.80063982942E+01 0.77879783403E+01
 0.76549630220E+01 0.76097461963E+01 0.76549630220E+01 0.77879783403E+01 0.80063982942E+01
 0.83236314603E+01 0.87905761236E+01 0.95162752805E+01 0.10678334658E+02 0.12509701211E+02
 0.15242978477E+02 0.19007004589E+02 0.23788800301E+02 0.29301065059E+02 0.34867665099E+02
 0.39630461599E+02 0.42820461882E+02 0.26820488739E+02 0.26240055111E+02 0.24598796605E+02
 0.22179554135E+02 0.19383336030E+02 0.16608032758E+02 0.14137226932E+02 0.12148276594E+02
 0.10678334658E+02 0.96558074540E+01 0.89643116452E+01 0.84927872191E+01 0.81601530407E+01
 0.79195924202E+01 0.77510978794E+01 0.76497280085E+01 0.76157688619E+01 0.76497280085E+01
 0.77510978794E+01 0.79195924202E+01 0.81601530407E+01 0.84927872191E+01 0.89643116452E+01
 0.96558074540E+01 0.10678334658E+02 0.12148276594E+02 0.14137226932E+02 0.16608032758E+02
 0.19383336030E+02 0.22179554135E+02 0.24598796605E+02 0.26240055111E+02 0.17077032977E+02
 0.16817808768E+02 0.16082921299E+02 0.14988463743E+02 0.13699722681E+02 0.12395643236E+02
 0.11221559241E+02 0.10257646333E+02 0.95162752805E+01 0.89643116452E+01 0.85532739393E+01
 0.82415879710E+01 0.80032646225E+01 0.78258751350E+01 0.77039300107E+01 0.76334001243E+01
 0.76104621398E+01 0.76334001243E+01 0.77039300107E+01 0.78258751350E+01 0.80032646225E+01
 0.82415879710E+01 0.85532739393E+01 0.89643116452E+01 0.95162752805E+01 0.10257646333E+02
 0.11221559241E+02 0.12395643236E+02 0.13699722681E+02 0.14988463743E+02 0.16082921299E+02
 0.16817808768E+02 0.11964098993E+02 0.11861800047E+02 0.11570139282E+02 0.11132423738E+02
 0.10611638547E+02 0.10075325875E+02 0.95778642557E+01 0.91484023053E+01 0.87905761236E+01
 0.84927872191E+01 0.82415879710E+01 0.80303302328E+01 0.78598162899E+01 0.77331503197E+01
 0.76500103723E+01 0.76049840251E+01 0.75910428483E+01 0.76049840251E+01 0.76500103723E+01
 0.77331503197E+01 0.78598162899E+01 0.80303302328E+01 0.82415879710E+01 0.84927872191E+01
 0.87905761236E+01 0.91484023053E+01 0.95778642557E+01 0.10075325875E+02 0.10611638547E+02
 0.11132423738E+02 0.11570139282E+02 0.11861800047E+02 0.94294314857E+01 0.94006497360E+01
 0.93170747413E+01 0.91872593958E+01 0.90251173659E+01 0.88470326489E+01 0.86668938843E+01
 0.84921064484E+01 0.83236314603E+01 0.81601530407E+01 0.80032646225E+01 0.78598162899E+01
 0.77397049048E+01 0.76507157889E+01 0.75942376285E+01 0.75652084043E+01 0.75566028054E+01
 0.75652084043E+01 0.75942376285E+01 0.76507157889E+01 0.77397049048E+01 0.78598162899E+01
 0.80032646225E+01 0.81601530407E+01 0.83236314603E+01 0.84921064484E+01 0.86668938843E+01
 0.88470326489E+01 0.90251173659E+01 0.91872593958E+01 0.93170747413E+01 0.94006497360E+01
 0.82467880124E+01 0.82472606526E+01 0.82465675703E+01 0.82397200342E+01 0.82217258397E+01
 0.81896808805E+01 0.81428422394E+01 0.80814985771E+01 0.80063982942E+01 0.79195924202E+01
 0.78258751350E+01 0.77331503197E+01 0.76507157889E+01 0.75861018261E+01 0.75424692257E+01
 0.75185036305E+01 0.75110404829E+01 0.75185036305E+01 0.75424692257E+01 0.75861018261E+01
 0.76507157889E+01 0.77331503197E+01 0.78258751350E+01 0.79195924202E+01 0.80063982942E+01
 0.80814985771E+01 0.81428422394E+01 0.81896808805E+01 0.82217258397E+01 0.82397200342E+01
 0.82465675703E+01 0.82472606526E+01 0.76954414895E+01 0.77052322740E+01 0.77311914171E+01
 0.77646832212E+01 0.77956129717E+01 0.78160414610E+01 0.78218315104E+01 0.78121451462E+01
 0.77879783403E+01 0.77510978794E+01 0.77039300107E+01 0.76500103723E+01 0.75942376285E+01
 0.75424692257E+01 0.75005663897E+01 0.74733590758E+01 0.74639392853E+01 0.74733590758E+01
 0.75005663897E+01 0.75424692257E+01 0.75942376285E+01 0.76500103723E+01 0.77039300107E+01
 0.77510978794E+01 0.77879783403E+01 0.78121451462E+01 0.78218315104E+01 0.78160414610E+01
 0.77956129717E+01 0.77646832212E+01 0.77311914171E+01 0.77052322740E+01 0.74281385697E+01
 0.74403027363E+01 0.74733590758E+01 0.75185036305E+01 0.75652084043E+01 0.76049840251E+01
 0.76334001243E+01 0.76497280085E+01 0.76549630220E+01 0.76497280085E+01 0.76334001243E+01
 0.76049840251E+01 0.75652084043E+01 0.75185036305E+01 0.74733590758E+01 0.74403027363E+01
 0.74281385697E+01 0.74403027363E+01 0.74733590758E+01 0.75185036305E+01 0.75652084043E+01
 0.76049840251E+01 0.76334001243E+01 0.76497280085E+01 0.76549630220E+01 0.76497280085E+01
 0.76334001243E+01 0.76049840251E+01 0.75652084043E+01 0.75185036305E+01 0.74733590758E+01
 0.74403027363E+01 0.73418132194E+01 0.73544431955E+01 0.73890054985E+01 0.74369314268E+01
 0.74878786297E+01 0.75334118942E+01 0.75690977670E+01 0.75942321018E+01 0.76097461963E+01
 0.76157688619E+01 0.76104621398E+01 0.75910428483E+01 0.75566028054E+01 0.75110404829E+01
 0.74639392853E+01 0.74281385697E+01 0.74147408989E+01 0.74281385697E+01 0.74639392853E+01
 0.75110404829E+01 0.75566028054E+01 0.75910428483E+01 0.76104621398E+01 0.76157688619E+01
 0.76097461963E+01 0.75942321018E+01 0.75690977670E+01 0.75334118942E+01 0.74878786297E+01
 0.74369314268E+01 0.73890054985E+01 0.73544431955E+01 0.74281385697E+01 0.74403027363E+01
 0.74733590758E+01 0.75185036305E+01 0.75652084043E+01 0.76049840251E+01 0.76334001243E+01
 0.76497280085E+01 0.76549630220E+01 0.76497280085E+01 0.76334001243E+01 0.76049840251E+01
 0.75652084043E+01 0.75185036305E+01 0.74733590758E+01 0.74403027363E+01 0.74281385697E+01
 0.74403027363E+01 0.74733590758E+01 0.75185036305E+01 0.75652084043E+01 0.76049840251E+01
 0.76334001243E+01 0.76497280085E+01 0.76549630220E+01 0.76497280085E+01 0.76334001243E+01
 0.76049840251E+01 0.75652084043E+01 0.75185036305E+01 0.74733590758E+01 0.74403027363E+01
 0.76954414895E+01 0.77052322740E+01 0.77311914171E+01 0.77646832212E+01 0.77956129717E+01
 0.78160414610E+01 0.78218315104E+01 0.78121451462E+01 0.77879783403E+01 0.77510978794E+01
 0.77039300107E+01 0.76500103723E+01 0.75942376285E+01 0.75424692257E+01 0.75005663897E+01
 0.74733590758E+01 0.74639392853E+01 0.74733590758E+01 0.75005663897E+01 0.75424692257E+01
 0.75942376285E+01 0.76500103723E+01 0.77039300107E+01 0.77510978794E+01 0.77879783403E+01
 0.78121451462E+01 0.78218315104E+01 0.78160414610E+01 0.77956129717E+01 0.77646832212E+01