   2   2   0   0
  0.1833673E+02  0.3322390E-09  0.3322390E-09  0.3322390E-09  0.5000000E-15
  1.000000000000000E-004
  CAR 
 Nb                                      
     61.39007057    -48.43061352  301     10.94509712      1.00000000
    -48.431  0.0000E+00  0.0000E+00
    -48.065  0.0000E+00  0.0000E+00
    -47.698  0.0000E+00  0.0000E+00
    -47.332  0.0000E+00  0.0000E+00
    -46.966  0.0000E+00  0.0000E+00
    -46.600  0.0000E+00  0.0000E+00
    -46.234  0.0000E+00  0.0000E+00
    -45.868  0.0000E+00  0.0000E+00
    -45.502  0.0000E+00  0.0000E+00
    -45.136  0.0000E+00  0.0000E+00
    -44.770  0.0000E+00  0.0000E+00
    -44.404  0.0000E+00  0.0000E+00
    -44.038  0.0000E+00  0.0000E+00
    -43.672  0.2901E-12  0.1062E-12
    -43.306  0.1485E+01  0.5438E+00
    -42.940  0.9396E+01  0.4000E+01
    -42.574  0.0000E+00  0.4000E+01
    -42.207  0.0000E+00  0.4000E+01
    -41.841  0.0000E+00  0.4000E+01
    -41.475  0.0000E+00  0.4000E+01
    -41.109  0.0000E+00  0.4000E+01
    -40.743  0.0000E+00  0.4000E+01
    -40.377  0.0000E+00  0.4000E+01
    -40.011  0.0000E+00  0.4000E+01
    -39.645  0.0000E+00  0.4000E+01
    -39.279  0.0000E+00  0.4000E+01
    -38.913  0.0000E+00  0.4000E+01
    -38.547  0.0000E+00  0.4000E+01
    -38.181  0.0000E+00  0.4000E+01
    -37.815  0.0000E+00  0.4000E+01
    -37.449  0.0000E+00  0.4000E+01
    -37.082  0.0000E+00  0.4000E+01
    -36.716  0.0000E+00  0.4000E+01
    -36.350  0.0000E+00  0.4000E+01
    -35.984  0.0000E+00  0.4000E+01
    -35.618  0.0000E+00  0.4000E+01
    -35.252  0.0000E+00  0.4000E+01
    -34.886  0.0000E+00  0.4000E+01
    -34.520  0.0000E+00  0.4000E+01
    -34.154  0.0000E+00  0.4000E+01
    -33.788  0.0000E+00  0.4000E+01
    -33.422  0.0000E+00  0.4000E+01
    -33.056  0.0000E+00  0.4000E+01
    -32.690  0.0000E+00  0.4000E+01
    -32.324  0.0000E+00  0.4000E+01
    -31.958  0.0000E+00  0.4000E+01
    -31.591  0.0000E+00  0.4000E+01
    -31.225  0.0000E+00  0.4000E+01
    -30.859  0.0000E+00  0.4000E+01
    -30.493  0.0000E+00  0.4000E+01
    -30.127  0.0000E+00  0.4000E+01
    -29.761  0.0000E+00  0.4000E+01
    -29.395  0.0000E+00  0.4000E+01
    -29.029  0.0000E+00  0.4000E+01
    -28.663  0.0000E+00  0.4000E+01
    -28.297  0.0000E+00  0.4000E+01
    -27.931  0.0000E+00  0.4000E+01
    -27.565  0.0000E+00  0.4000E+01
    -27.199  0.0000E+00  0.4000E+01
    -26.833  0.0000E+00  0.4000E+01
    -26.466  0.0000E+00  0.4000E+01
    -26.100  0.0000E+00  0.4000E+01
    -25.734  0.0000E+00  0.4000E+01
    -25.368  0.0000E+00  0.4000E+01
    -25.002  0.0000E+00  0.4000E+01
    -24.636  0.0000E+00  0.4000E+01
    -24.270  0.0000E+00  0.4000E+01
    -23.904  0.0000E+00  0.4000E+01
    -23.538  0.0000E+00  0.4000E+01
    -23.172  0.0000E+00  0.4000E+01
    -22.806  0.0000E+00  0.4000E+01
    -22.440  0.0000E+00  0.4000E+01
    -22.074  0.0000E+00  0.4000E+01
    -21.708  0.0000E+00  0.4000E+01
    -21.342  0.0000E+00  0.4000E+01
    -20.975  0.0000E+00  0.4000E+01
    -20.609  0.0000E+00  0.4000E+01
    -20.243  0.1285E-07  0.4000E+01
    -19.877  0.2424E+01  0.4887E+01
    -19.511  0.8389E+01  0.7960E+01
    -19.145  0.9319E+01  0.1139E+02
    -18.779  0.1206E+02  0.1586E+02
    -18.413  0.1972E+00  0.1600E+02
    -18.047  0.0000E+00  0.1600E+02
    -17.681  0.0000E+00  0.1600E+02
    -17.315  0.0000E+00  0.1600E+02
    -16.949  0.0000E+00  0.1600E+02
    -16.583  0.0000E+00  0.1600E+02
    -16.217  0.0000E+00  0.1600E+02
    -15.850  0.0000E+00  0.1600E+02
    -15.484  0.0000E+00  0.1600E+02
    -15.118  0.0000E+00  0.1600E+02
    -14.752  0.0000E+00  0.1600E+02
    -14.386  0.0000E+00  0.1600E+02
    -14.020  0.0000E+00  0.1600E+02
    -13.654  0.0000E+00  0.1600E+02
    -13.288  0.0000E+00  0.1600E+02
    -12.922  0.0000E+00  0.1600E+02
    -12.556  0.0000E+00  0.1600E+02
    -12.190  0.0000E+00  0.1600E+02
    -11.824  0.0000E+00  0.1600E+02
    -11.458  0.0000E+00  0.1600E+02
    -11.092  0.0000E+00  0.1600E+02
    -10.726  0.0000E+00  0.1600E+02
    -10.359  0.0000E+00  0.1600E+02
     -9.993  0.0000E+00  0.1600E+02
     -9.627  0.0000E+00  0.1600E+02
     -9.261  0.0000E+00  0.1600E+02
     -8.895  0.0000E+00  0.1600E+02
     -8.529  0.0000E+00  0.1600E+02
     -8.163  0.0000E+00  0.1600E+02
     -7.797  0.0000E+00  0.1600E+02
     -7.431  0.0000E+00  0.1600E+02
     -7.065  0.0000E+00  0.1600E+02
     -6.699  0.0000E+00  0.1600E+02
     -6.333  0.0000E+00  0.1600E+02
     -5.967  0.0000E+00  0.1600E+02
     -5.601  0.0000E+00  0.1600E+02
     -5.234  0.0000E+00  0.1600E+02
     -4.868  0.0000E+00  0.1600E+02
     -4.502  0.0000E+00  0.1600E+02
     -4.136  0.0000E+00  0.1600E+02
     -3.770  0.0000E+00  0.1600E+02
     -3.404  0.0000E+00  0.1600E+02
     -3.038  0.0000E+00  0.1600E+02
     -2.672  0.0000E+00  0.1600E+02
     -2.306  0.0000E+00  0.1600E+02
     -1.940  0.0000E+00  0.1600E+02
     -1.574  0.0000E+00  0.1600E+02
     -1.208  0.0000E+00  0.1600E+02
     -0.842  0.0000E+00  0.1600E+02
     -0.476  0.0000E+00  0.1600E+02
     -0.110  0.0000E+00  0.1600E+02
      0.257  0.0000E+00  0.1600E+02
      0.623  0.0000E+00  0.1600E+02
      0.989  0.0000E+00  0.1600E+02
      1.355  0.0000E+00  0.1600E+02
      1.721  0.0000E+00  0.1600E+02
      2.087  0.0000E+00  0.1600E+02
      2.453  0.0000E+00  0.1600E+02
      2.819  0.0000E+00  0.1600E+02
      3.185  0.0000E+00  0.1600E+02
      3.551  0.0000E+00  0.1600E+02
      3.917  0.0000E+00  0.1600E+02
      4.283  0.0000E+00  0.1600E+02
      4.649  0.0000E+00  0.1600E+02
      5.015  0.1822E-02  0.1600E+02
      5.382  0.5353E-01  0.1602E+02
      5.748  0.1468E+00  0.1607E+02
      6.114  0.8541E-01  0.1611E+02
      6.480  0.2767E+00  0.1621E+02
      6.846  0.2995E+00  0.1632E+02
      7.212  0.1602E+00  0.1638E+02
      7.578  0.1406E+01  0.1689E+02
      7.944  0.2330E+01  0.1775E+02
      8.310  0.1769E+01  0.1839E+02
      8.676  0.3992E+01  0.1986E+02
      9.042  0.1080E+01  0.2026E+02
      9.408  0.1415E+01  0.2079E+02
      9.774  0.4090E+01  0.2228E+02
     10.140  0.3276E+01  0.2350E+02
     10.506  0.1890E+01  0.2420E+02
     10.873  0.4603E+01  0.2589E+02
     11.239  0.2404E+01  0.2677E+02
     11.605  0.1008E+01  0.2715E+02
     11.971  0.1589E+01  0.2773E+02
     12.337  0.3418E+00  0.2786E+02
     12.703  0.1981E+01  0.2858E+02
     13.069  0.8305E+00  0.2890E+02
     13.435  0.2860E+01  0.2995E+02
     13.801  0.2006E+01  0.3070E+02
     14.167  0.2569E+01  0.3165E+02
     14.533  0.3106E+01  0.3279E+02
     14.899  0.3998E+01  0.3426E+02
     15.265  0.3421E+01  0.3552E+02
     15.631  0.2205E+01  0.3633E+02
     15.998  0.1694E+01  0.3696E+02
     16.364  0.3852E+00  0.3711E+02
     16.730  0.1070E+01  0.3750E+02
     17.096  0.1246E+01  0.3796E+02
     17.462  0.4426E+00  0.3813E+02
     17.828  0.7125E+00  0.3839E+02
     18.194  0.6189E+00  0.3861E+02
     18.560  0.9958E+00  0.3899E+02
     18.926  0.1280E+00  0.3904E+02
     19.292  0.7385E+00  0.3931E+02
     19.658  0.3241E+00  0.3943E+02
     20.024  0.5518E+00  0.3963E+02
     20.390  0.4058E+00  0.3978E+02
     20.756  0.4374E+00  0.3994E+02
     21.122  0.4310E+00  0.4010E+02
     21.489  0.9345E+00  0.4045E+02
     21.855  0.8921E+00  0.4077E+02
     22.221  0.9764E+00  0.4113E+02
     22.587  0.1189E+01  0.4157E+02
     22.953  0.1760E+01  0.4221E+02
     23.319  0.7020E+00  0.4248E+02
     23.685  0.2781E+01  0.4349E+02
     24.051  0.1703E+01  0.4414E+02
     24.417  0.1491E+01  0.4469E+02
     24.783  0.1643E+01  0.4530E+02
     25.149  0.7558E+00  0.4558E+02
     25.515  0.1619E+01  0.4618E+02
     25.881  0.2632E+01  0.4715E+02
     26.247  0.1262E+01  0.4761E+02
     26.614  0.1581E+01  0.4819E+02
     26.980  0.1552E+01  0.4877E+02
     27.346  0.1782E+01  0.4943E+02
     27.712  0.1617E+01  0.5002E+02
     28.078  0.1339E+01  0.5051E+02
     28.444  0.8799E+00  0.5084E+02
     28.810  0.5187E+00  0.5103E+02
     29.176  0.1659E+01  0.5164E+02
     29.542  0.1460E+01  0.5218E+02
     29.908  0.1755E+01  0.5282E+02
     30.274  0.2476E+01  0.5373E+02
     30.640  0.1229E+01  0.5418E+02
     31.006  0.8822E+00  0.5451E+02
     31.372  0.1255E+01  0.5497E+02
     31.738  0.1308E+01  0.5545E+02
     32.105  0.2118E+01  0.5622E+02
     32.471  0.1749E+00  0.5629E+02
     32.837  0.4406E+00  0.5645E+02
     33.203  0.7031E+00  0.5671E+02
     33.569  0.2550E+01  0.5765E+02
     33.935  0.3171E+01  0.5881E+02
     34.301  0.8924E+00  0.5915E+02
     34.667  0.1480E+01  0.5970E+02
     35.033  0.1543E+01  0.6028E+02
     35.399  0.7114E+00  0.6054E+02
     35.765  0.6508E+00  0.6078E+02
     36.131  0.1988E+01  0.6151E+02
     36.497  0.2893E+01  0.6257E+02
     36.863  0.2192E+01  0.6338E+02
     37.230  0.1218E+01  0.6384E+02
     37.596  0.1071E+01  0.6423E+02
     37.962  0.3078E+01  0.6535E+02
     38.328  0.1080E+01  0.6578E+02
     38.694  0.2126E+01  0.6657E+02
     39.060  0.2238E+01  0.6739E+02
     39.426  0.2079E+01  0.6815E+02
     39.792  0.8441E+00  0.6846E+02
     40.158  0.1451E+01  0.6899E+02
     40.524  0.2658E+01  0.6997E+02
     40.890  0.1267E+01  0.7045E+02
     41.256  0.1407E+01  0.7097E+02
     41.622  0.2560E+01  0.7192E+02
     41.988  0.7112E+00  0.7219E+02
     42.354  0.1670E+01  0.7280E+02
     42.721  0.2363E+01  0.7367E+02
     43.087  0.1012E+01  0.7404E+02
     43.453  0.1846E+01  0.7472E+02
     43.819  0.2461E+01  0.7562E+02
     44.185  0.2929E+01  0.7670E+02
     44.551  0.2127E+01  0.7750E+02
     44.917  0.1805E+01  0.7816E+02
     45.283  0.2329E+01  0.7901E+02
     45.649  0.1026E+01  0.7939E+02
     46.015  0.1072E+01  0.7979E+02
     46.381  0.2644E+01  0.8076E+02
     46.747  0.1947E+01  0.8148E+02
     47.113  0.2305E+01  0.8232E+02
     47.479  0.1508E+01  0.8289E+02
     47.846  0.2829E+01  0.8393E+02
     48.212  0.2026E+01  0.8468E+02
     48.578  0.3143E+01  0.8583E+02
     48.944  0.1010E+01  0.8621E+02
     49.310  0.1620E+01  0.8680E+02
     49.676  0.1678E+01  0.8741E+02
     50.042  0.1332E+01  0.8791E+02
     50.408  0.1795E+01  0.8857E+02
     50.774  0.1547E+01  0.8914E+02
     51.140  0.1539E+01  0.8970E+02
     51.506  0.9724E+00  0.9006E+02
     51.872  0.1367E+01  0.9056E+02
     52.238  0.7178E+00  0.9083E+02
     52.604  0.2862E+01  0.9188E+02
     52.970  0.2933E+01  0.9296E+02
     53.337  0.2396E+01  0.9386E+02
     53.703  0.2058E+01  0.9463E+02
     54.069  0.1020E+01  0.9501E+02
     54.435  0.6449E+00  0.9527E+02
     54.801  0.8728E+00  0.9559E+02
     55.167  0.1123E+00  0.9564E+02
     55.533  0.3013E+00  0.9575E+02
     55.899  0.4371E+00  0.9591E+02
     56.265  0.6412E-01  0.9593E+02
     56.631  0.1920E+00  0.9600E+02
     56.997  0.0000E+00  0.9600E+02
     57.363  0.0000E+00  0.9600E+02
     57.729  0.0000E+00  0.9600E+02
     58.095  0.0000E+00  0.9600E+02
     58.462  0.0000E+00  0.9600E+02
     58.828  0.0000E+00  0.9600E+02
     59.194  0.0000E+00  0.9600E+02
     59.560  0.0000E+00  0.9600E+02
     59.926  0.0000E+00  0.9600E+02
     60.292  0.0000E+00  0.9600E+02
     60.658  0.0000E+00  0.9600E+02
     61.024  0.0000E+00  0.9600E+02
     61.390  0.0000E+00  0.9600E+02
