    2    2    1    1
  0.1833673E+02  0.3322390E-09  0.3322390E-09  0.3322390E-09  0.5000000E-15
  1.000000000000000E-004
  CAR 
 Nb                                      
     26     35     48
 
  0.0000000E+00  0.0000000E+00  0.0000000E+00  0.1953125E-02
      1        -43.438764   1.000000
      2        -43.049447   1.000000
      3        -19.660475   1.000000
      4        -19.660475   1.000000
      5        -19.660475   1.000000
      6        -18.781241   1.000000
      7        -18.781241   1.000000
      8        -18.781241   1.000000
      9          5.049085   1.000000
     10          7.318592   1.000000
     11          7.318592   1.000000
     12         11.313946   0.000000
     13         11.313946   0.000000
     14         11.313946   0.000000
     15         14.161394   0.000000
     16         14.161394   0.000000
     17         16.429132   0.000000
     18         16.429132   0.000000
     19         16.429132   0.000000
     20         19.861031   0.000000
     21         19.861031   0.000000
     22         19.861031   0.000000
     23         25.104582   0.000000
     24         25.104582   0.000000
     25         25.104582   0.000000
     26         29.076130   0.000000
     27         31.218051   0.000000
     28         31.218051   0.000000
     29         32.913619   0.000000
     30         35.690629   0.000000
     31         35.690629   0.000000
     32         38.596871   0.000000
     33         38.596871   0.000000
     34         38.596871   0.000000
     35         44.506027   0.000000
     36         44.506027   0.000000
     37         44.506027   0.000000
     38         44.828874   0.000000
     39         44.828874   0.000000
     40         44.828874   0.000000
     41         47.412650   0.000000
     42         49.890114   0.000000
     43         49.890114   0.000000
     44         49.890114   0.000000
     45         51.873762   0.000000
     46         51.873762   0.000000
     47         51.873762   0.000000
     48         53.375189   0.000000
 
  0.1250000E+00  0.1118466E-32  0.0000000E+00  0.1171875E-01
      1        -43.421801   1.000000
      2        -43.061934   1.000000
      3        -19.663025   1.000000
      4        -19.625921   1.000000
      5        -19.625921   1.000000
      6        -18.853556   1.000000
      7        -18.813367   1.000000
      8        -18.813367   1.000000
      9          5.363203   1.000000
     10          7.488755   1.000000
     11          7.580298   1.000000
     12         11.282434   0.000000
     13         11.282434   0.000000
     14         11.455822   0.000000
     15         13.698009   0.000000
     16         14.320265   0.000000
     17         15.445326   0.000000
     18         15.445326   0.000000
     19         16.141470   0.000000
     20         19.076011   0.000000
     21         21.190102   0.000000
     22         21.190102   0.000000
     23         25.536149   0.000000
     24         25.645788   0.000000
     25         25.645788   0.000000
     26         29.471460   0.000000
     27         31.036373   0.000000
     28         31.135928   0.000000
     29         32.793414   0.000000
     30         33.369859   0.000000
     31         36.219528   0.000000
     32         38.237754   0.000000
     33         38.237754   0.000000
     34         40.689426   0.000000
     35         43.701662   0.000000
     36         43.701662   0.000000
     37         43.871441   0.000000
     38         43.871441   0.000000
     39         43.905191   0.000000
     40         44.915529   0.000000
     41         48.106321   0.000000
     42         48.106321   0.000000
     43         48.531031   0.000000
     44         50.264119   0.000000
     45         51.707329   0.000000
     46         52.650881   0.000000
     47         53.906394   0.000000
     48         53.906394   0.000000
 
  0.2500000E+00  0.2236931E-32  0.0000000E+00  0.1171875E-01
      1        -43.374353   1.000000
      2        -43.098579   1.000000
      3        -19.655674   1.000000
      4        -19.528304   1.000000
      5        -19.528304   1.000000
      6        -19.040441   1.000000
      7        -18.905516   1.000000
      8        -18.905516   1.000000
      9          6.227969   1.000000
     10          7.993559   1.000000
     11          8.215741   1.000000
     12         11.266288   0.000000
     13         11.266288   0.000000
     14         11.874050   0.000000
     15         12.570736   0.000000
     16         13.962074   0.000000
     17         13.962074   0.000000
     18         14.738944   0.000000
     19         15.391526   0.000000
     20         17.508172   0.000000
     21         23.682237   0.000000
     22         23.682237   0.000000
     23         26.547786   0.000000
     24         27.125697   0.000000
     25         27.125697   0.000000
     26         28.001943   0.000000
     27         29.138115   0.000000
     28         30.522634   0.000000
     29         33.454625   0.000000
     30         34.610852   0.000000
     31         36.818408   0.000000
     32         36.818408   0.000000
     33         37.809919   0.000000
     34         41.082721   0.000000
     35         41.082721   0.000000
     36         42.338614   0.000000
     37         42.396430   0.000000
     38         42.877193   0.000000
     39         42.877193   0.000000
     40         44.953820   0.000000
     41         46.516638   0.000000
     42         46.516638   0.000000
     43         48.185955   0.000000
     44         50.582132   0.000000
     45         51.383950   0.000000
     46         54.299452   0.000000
     47         55.731543   0.000000
     48         55.731544   0.000000
 
  0.3750000E+00  0.1876284E-31  0.0000000E+00  0.1171875E-01
      1        -43.305772   1.000000
      2        -43.156340   1.000000
      3        -19.601044   1.000000
      4        -19.383231   1.000000
      5        -19.383231   1.000000
      6        -19.270799   1.000000
      7        -19.045238   1.000000
      8        -19.045238   1.000000
      9          7.403608   1.000000
     10          8.723759   1.000000
     11          8.814348   1.000000
     12         11.214701   0.000000
     13         11.425961   0.000000
     14         11.425961   0.000000
     15         12.544328   0.000000
     16         12.739212   0.000000
     17         12.739212   0.000000
     18         14.414036   0.000000
     19         15.221394   0.000000
     20         16.187216   0.000000
     21         26.215188   0.000000
     22         26.451841   0.000000
     23         26.461858   0.000000
     24         26.461858   0.000000
     25         27.704419   0.000000
     26         28.964886   0.000000
     27         28.964886   0.000000
     28         29.750345   0.000000
     29         34.757105   0.000000
     30         34.757105   0.000000
     31         36.365153   0.000000
     32         36.903382   0.000000
     33         37.654920   0.000000
     34         37.654920   0.000000
     35         40.404050   0.000000
     36         40.452660   0.000000
     37         43.103111   0.000000
     38         43.103111   0.000000
     39         43.181831   0.000000
     40         44.724203   0.000000
     41         44.935237   0.000000
     42         45.205433   0.000000
     43         45.205433   0.000000
     44         47.551819   0.000000
     45         53.223282   0.000000
     46         56.022677   0.000000
     47         56.376806   0.000000
     48         56.376806   0.000000
 
  0.5000000E+00  0.4473863E-32  0.0000000E+00  0.5859375E-02
      1        -43.228815   1.000000
      2        -43.228815   1.000000
      3        -19.471720   1.000000
      4        -19.471720   1.000000
      5        -19.212783   1.000000
      6        -19.212783   1.000000
      7        -19.212783   1.000000
      8        -19.212783   1.000000
      9          8.438877   1.000000
     10          8.438877   1.000000
     11          9.913691   1.000000
     12          9.913691   1.000000
     13         11.894275   0.000000
     14         11.894275   0.000000
     15         11.894275   0.000000
     16         11.894275   0.000000
     17         13.418927   0.000000
     18         13.418927   0.000000
     19         15.574396   0.000000
     20         15.574396   0.000000
     21         25.446641   0.000000
     22         25.446641   0.000000
     23         28.793899   0.000000
     24         28.793899   0.000000
     25         28.909984   0.000000
     26         28.909984   0.000000
     27         28.909984   0.000000
     28         28.909984   0.000000
     29         34.809434   0.000000
     30         34.809434   0.000000
     31         34.809434   0.000000
     32         34.809434   0.000000
     33         38.377839   0.000000
     34         38.377839   0.000000
     35         40.711473   0.000000
     36         40.711473   0.000000
     37         43.795772   0.000000
     38         43.795772   0.000000
     39         43.996261   0.000000
     40         43.996261   0.000000
     41         43.996261   0.000000
     42         43.996261   0.000000
     43         44.239532   0.000000
     44         44.239532   0.000000
     45         55.653826   0.000000
     46         55.653826   0.000000
     47         56.398221   0.000000
     48         56.398221   0.000000
 
  0.1250000E+00  0.1250000E+00  0.0000000E+00  0.2343750E-01
      1        -43.405880   1.000000
      2        -43.073230   1.000000
      3        -19.721323   1.000000
      4        -19.593973   1.000000
      5        -19.540064   1.000000
      6        -18.981504   1.000000
      7        -18.842562   1.000000
      8        -18.782739   1.000000
      9          5.655576   1.000000
     10          7.681051   1.000000
     11          7.807220   1.000000
     12         10.953610   0.404867
     13         11.188440   0.000000
     14         11.910036   0.000000
     15         13.722146   0.000000
     16         14.172843   0.000000
     17         14.377999   0.000000
     18         14.615817   0.000000
     19         16.531463   0.000000
     20         19.697861   0.000000
     21         20.849611   0.000000
     22         21.898403   0.000000
     23         25.526082   0.000000
     24         26.167868   0.000000
     25         26.295309   0.000000
     26         29.933861   0.000000
     27         30.481480   0.000000
     28         31.474900   0.000000
     29         32.663208   0.000000
     30         33.811585   0.000000
     31         34.102940   0.000000
     32         37.653870   0.000000
     33         38.593472   0.000000
     34         42.264249   0.000000
     35         42.452829   0.000000
     36         42.662476   0.000000
     37         42.810812   0.000000
     38         43.518793   0.000000
     39         44.365806   0.000000
     40         46.541482   0.000000
     41         46.799607   0.000000
     42         47.232295   0.000000
     43         50.006775   0.000000
     44         50.200556   0.000000
     45         51.228868   0.000000
     46         53.164383   0.000000
     47         54.277056   0.000000
     48         54.753249   0.000000
 
  0.2500000E+00  0.1250000E+00  0.0000000E+00  0.4687500E-01
      1        -43.361424   1.000000
      2        -43.106502   1.000000
      3        -19.758481   1.000000
      4        -19.502414   1.000000
      5        -19.409047   1.000000
      6        -19.199044   1.000000
      7        -18.926611   1.000000
      8        -18.825379   1.000000
      9          6.445919   1.000000
     10          8.121757   1.000000
     11          8.450028   1.000000
     12         10.725420   1.000000
     13         11.012828   0.027701
     14         12.569490   0.000000
     15         13.011794   0.000000
     16         13.040310   0.000000
     17         13.384302   0.000000
     18         14.562204   0.000000
     19         16.191939   0.000000
     20         18.283572   0.000000
     21         22.676889   0.000000
     22         23.803912   0.000000
     23         26.001289   0.000000
     24         27.062810   0.000000
     25         27.606292   0.000000
     26         28.447992   0.000000
     27         30.129335   0.000000
     28         30.266387   0.000000
     29         33.882221   0.000000
     30         34.553229   0.000000
     31         34.950315   0.000000
     32         35.874414   0.000000
     33         38.198929   0.000000
     34         40.183292   0.000000
     35         41.360126   0.000000
     36         41.455767   0.000000
     37         42.137575   0.000000
     38         43.622823   0.000000
     39         45.189786   0.000000
     40         45.226692   0.000000
     41         45.659331   0.000000
     42         47.631488   0.000000
     43         49.862622   0.000000
     44         50.144380   0.000000
     45         50.490282   0.000000
     46         52.897819   0.000000
     47         54.452446   0.000000
     48         55.593583   0.000000
 
  0.3750000E+00  0.1250000E+00  0.0000000E+00  0.4687500E-01
      1        -43.297433   1.000000
      2        -43.159296   1.000000
      3        -19.733472   1.000000
      4        -19.433680   1.000000
      5        -19.366711   1.000000
      6        -19.252109   1.000000
      7        -19.054525   1.000000
      8        -18.935151   1.000000
      9          7.480679   1.000000
     10          8.613462   1.000000
     11          9.118823   1.000000
     12         10.694394   1.000000
     13         10.760288   1.000000
     14         11.894759   0.000000
     15         12.376444   0.000000
     16         12.632279   0.000000
     17         13.380495   0.000000
     18         15.112094   0.000000
     19         15.327214   0.000000
     20         16.640700   0.000000
     21         24.500908   0.000000
     22         25.600983   0.000000
     23         26.318672   0.000000
     24         27.214822   0.000000
     25         27.273516   0.000000
     26         29.358368   0.000000
     27         29.636246   0.000000
     28         30.122576   0.000000
     29         33.788458   0.000000
     30         34.358417   0.000000
     31         35.939386   0.000000
     32         37.122053   0.000000
     33         37.602378   0.000000
     34         38.660889   0.000000
     35         38.853582   0.000000
     36         41.219491   0.000000
     37         42.016599   0.000000
     38         43.229215   0.000000
     39         43.431600   0.000000
     40         44.942198   0.000000
     41         45.932833   0.000000
     42         46.828185   0.000000
     43         47.174886   0.000000
     44         49.033873   0.000000
     45         50.999623   0.000000
     46         52.350883   0.000000
     47         54.665211   0.000000
     48         55.409623   0.000000
 
  0.5000000E+00  0.1250000E+00  0.0000000E+00  0.2343750E-01
      1        -43.226043   1.000000
      2        -43.226043   1.000000
      3        -19.624086   1.000000
      4        -19.624086   1.000000
      5        -19.208788   1.000000
      6        -19.208788   1.000000
      7        -19.086170   1.000000
      8        -19.086170   1.000000
      9          8.372095   1.000000
     10          8.372095   1.000000
     11          9.926596   1.000000
     12          9.926596   1.000000
     13         11.137782   0.000000
     14         11.137782   0.000000
     15         12.369440   0.000000
     16         12.369440   0.000000
     17         14.326770   0.000000
     18         14.326770   0.000000
     19         15.634649   0.000000
     20         15.634649   0.000000
     21         24.805131   0.000000
     22         24.805131   0.000000
     23         27.616553   0.000000
     24         27.616553   0.000000
     25         28.821881   0.000000
     26         28.821881   0.000000
     27         29.806425   0.000000
     28         29.806425   0.000000
     29         34.256564   0.000000
     30         34.256564   0.000000
     31         35.069354   0.000000
     32         35.069354   0.000000
     33         39.457219   0.000000
     34         39.457219   0.000000
     35         39.506313   0.000000
     36         39.506313   0.000000
     37         42.799726   0.000000
     38         42.799726   0.000000
     39         43.986872   0.000000
     40         43.986872   0.000000
     41         44.632751   0.000000
     42         44.632751   0.000000
     43         47.848220   0.000000
     44         47.848220   0.000000
     45         52.998608   0.000000
     46         52.998608   0.000000
     47         53.115431   0.000000
     48         53.115431   0.000000
 
  0.2500000E+00  0.2500000E+00  0.0000000E+00  0.2343750E-01
      1        -43.325599   1.000000
      2        -43.130230   1.000000
      3        -19.866049   1.000000
      4        -19.445922   1.000000
      5        -19.428833   1.000000
      6        -19.239720   1.000000
      7        -18.987510   1.000000
      8        -18.786372   1.000000
      9          6.968171   1.000000
     10          8.257907   1.000000
     11          9.196673   1.000000
     12         10.203857   1.000000
     13         10.843729   0.997929
     14         11.758692   0.000000
     15         12.662506   0.000000
     16         13.577925   0.000000
     17         13.657080   0.000000
     18         14.311367   0.000000
     19         16.788186   0.000000
     20         18.788316   0.000000
     21         21.824690   0.000000
     22         24.514974   0.000000
     23         25.198229   0.000000
     24         26.672997   0.000000
     25         27.693747   0.000000
     26         28.963716   0.000000
     27         29.839196   0.000000
     28         31.733986   0.000000
     29         33.376240   0.000000
     30         33.778880   0.000000
     31         35.584952   0.000000
     32         35.698810   0.000000
     33         36.699318   0.000000
     34         38.945980   0.000000
     35         41.577476   0.000000
     36         42.141079   0.000000
     37         42.345279   0.000000
     38         43.627061   0.000000
     39         43.825333   0.000000
     40         45.057292   0.000000
     41         47.571323   0.000000
     42         48.280873   0.000000
     43         48.951772   0.000000
     44         49.278875   0.000000
     45         51.577676   0.000000
     46         52.781979   0.000000
     47         53.493780   0.000000
     48         55.144929   0.000000
 
  0.3750000E+00  0.2500000E+00  0.0000000E+00  0.4687500E-01
      1        -43.274792   1.000000
      2        -43.168920   1.000000
      3        -19.903731   1.000000
      4        -19.679304   1.000000
      5        -19.322017   1.000000
      6        -19.082550   1.000000
      7        -19.073935   1.000000
      8        -18.826741   1.000000
      9          7.506082   1.000000
     10          8.212999   1.000000
     11         10.000639   1.000000
     12         10.062144   1.000000
     13         10.781520   0.999998
     14         10.936166   0.599710
     15         12.683632   0.000000
     16         13.469282   0.000000
     17         14.638275   0.000000
     18         14.817231   0.000000
     19         16.507631   0.000000
     20         17.270557   0.000000
     21         22.885109   0.000000
     22         24.381483   0.000000
     23         25.786638   0.000000
     24         26.128735   0.000000
     25         26.146145   0.000000
     26         30.099387   0.000000
     27         30.342993   0.000000
     28         32.027329   0.000000
     29         32.078929   0.000000
     30         34.374061   0.000000
     31         35.827348   0.000000
     32         35.984574   0.000000
     33         37.129633   0.000000
     34         38.156831   0.000000
     35         40.873458   0.000000
     36         42.390327   0.000000
     37         43.062897   0.000000
     38         43.329223   0.000000
     39         43.568126   0.000000
     40         43.865441   0.000000
     41         46.791240   0.000000
     42         48.226667   0.000000
     43         48.414844   0.000000
     44         48.854597   0.000000
     45         49.226556   0.000000
     46         53.341303   0.000000
     47         53.597657   0.000000
     48         53.635327   0.000000
 
  0.5000000E+00  0.2500000E+00  0.0000000E+00  0.2343750E-01
      1        -43.219343   1.000000
      2        -43.219343   1.000000
      3        -19.841986   1.000000
      4        -19.841986   1.000000
      5        -19.199747   1.000000
      6        -19.199747   1.000000
      7        -18.929594   1.000000
      8        -18.929594   1.000000
      9          7.927402   1.000000
     10          7.927402   1.000000
     11         10.186366   1.000000
     12         10.186366   1.000000
     13         10.709418   1.000000
     14         10.709418   1.000000
     15         13.213650   0.000000
     16         13.213650   0.000000
     17         15.671792   0.000000
     18         15.671792   0.000000
     19         15.683369   0.000000
     20         15.683369   0.000000
     21         23.705679   0.000000
     22         23.705679   0.000000
     23         25.462534   0.000000
     24         25.462534   0.000000
     25         28.386243   0.000000
     26         28.386243   0.000000
     27         31.027811   0.000000
     28         31.027811   0.000000
     29         33.991954   0.000000
     30         33.991954   0.000000
     31         35.676005   0.000000
     32         35.676005   0.000000
     33         37.630844   0.000000
     34         37.630844   0.000000
     35         41.169415   0.000000
     36         41.169415   0.000000
     37         43.818451   0.000000
     38         43.818451   0.000000
     39         44.115831   0.000000
     40         44.115831   0.000000
     41         46.258347   0.000000
     42         46.258347   0.000000
     43         47.967515   0.000000
     44         47.967515   0.000000
     45         50.597637   0.000000
     46         50.597637   0.000000
     47         53.517417   0.000000
     48         53.517417   0.000000
 
  0.3750000E+00  0.3750000E+00  0.0000000E+00  0.2343750E-01
      1        -43.244021   1.000000
      2        -43.186644   1.000000
      3        -20.006824   1.000000
      4        -19.887094   1.000000
      5        -19.258945   1.000000
      6        -19.128926   1.000000
      7        -18.926292   1.000000
      8        -18.790654   1.000000
      9          7.419610   1.000000
     10          7.760508   1.000000
     11          9.572195   1.000000
     12          9.966848   1.000000
     13         11.267906   0.000000
     14         11.854877   0.000000
     15         13.180984   0.000000
     16         14.115685   0.000000
     17         14.637499   0.000000
     18         15.837351   0.000000
     19         16.780045   0.000000
     20         17.059169   0.000000
     21         22.440612   0.000000
     22         23.384169   0.000000
     23         24.190656   0.000000
     24         24.385371   0.000000
     25         26.510198   0.000000
     26         29.450963   0.000000
     27         30.734386   0.000000
     28         32.667938   0.000000
     29         33.222781   0.000000
     30         34.778093   0.000000
     31         35.411079   0.000000
     32         35.790209   0.000000
     33         36.806655   0.000000
     34         39.222706   0.000000
     35         41.520916   0.000000
     36         42.401325   0.000000
     37         42.421851   0.000000
     38         43.423384   0.000000
     39         43.444870   0.000000
     40         45.009385   0.000000
     41         45.651383   0.000000
     42         46.106630   0.000000
     43         48.586005   0.000000
     44         49.064628   0.000000
     45         51.201019   0.000000
     46         52.409563   0.000000
     47         52.864267   0.000000
     48         53.589164   0.000000
 
  0.5000000E+00  0.3750000E+00  0.0000000E+00  0.2343750E-01
      1        -43.212629   1.000000
      2        -43.212629   1.000000
      3        -20.004441   1.000000
      4        -20.004441   1.000000
      5        -19.190592   1.000000
      6        -19.190592   1.000000
      7        -18.827410   1.000000
      8        -18.827410   1.000000
      9          7.469690   1.000000
     10          7.469690   1.000000
     11          9.554452   1.000000
     12          9.554452   1.000000
     13         12.115268   0.000000
     14         12.115268   0.000000
     15         13.911572   0.000000
     16         13.911572   0.000000
     17         15.378087   0.000000
     18         15.378087   0.000000
     19         16.751112   0.000000
     20         16.751112   0.000000
     21         22.888862   0.000000
     22         22.888862   0.000000
     23         23.452416   0.000000
     24         23.452416   0.000000
     25         27.702347   0.000000
     26         27.702347   0.000000
     27         31.723834   0.000000
     28         31.723834   0.000000
     29         34.630286   0.000000
     30         34.630286   0.000000
     31         36.216333   0.000000
     32         36.216333   0.000000
     33         37.577184   0.000000
     34         37.577184   0.000000
     35         41.410623   0.000000
     36         41.410623   0.000000
     37         42.811713   0.000000
     38         42.811713   0.000000
     39         43.872745   0.000000
     40         43.872745   0.000000
     41         47.285617   0.000000
     42         47.285617   0.000000
     43         49.057570   0.000000
     44         49.057570   0.000000
     45         50.310775   0.000000
     46         50.310775   0.000000
     47         52.842828   0.000000
     48         52.842828   0.000000
 
  0.5000000E+00  0.5000000E+00  0.0000000E+00  0.5859375E-02
      1        -43.209843   1.000000
      2        -43.209843   1.000000
      3        -20.064107   1.000000
      4        -20.064107   1.000000
      5        -19.186619   1.000000
      6        -19.186619   1.000000
      7        -18.792773   1.000000
      8        -18.792773   1.000000
      9          7.295451   1.000000
     10          7.295451   1.000000
     11          9.335948   1.000000
     12          9.335948   1.000000
     13         13.133209   0.000000
     14         13.133209   0.000000
     15         14.184151   0.000000
     16         14.184151   0.000000
     17         14.851079   0.000000
     18         14.851079   0.000000
     19         17.176484   0.000000
     20         17.176484   0.000000
     21         22.498539   0.000000
     22         22.498539   0.000000
     23         22.734715   0.000000
     24         22.734715   0.000000
     25         27.368676   0.000000
     26         27.368676   0.000000
     27         31.802693   0.000000
     28         31.802693   0.000000
     29         35.186475   0.000000
     30         35.186475   0.000000
     31         36.353499   0.000000
     32         36.353499   0.000000
     33         39.497855   0.000000
     34         39.497855   0.000000
     35         39.881940   0.000000
     36         39.881940   0.000000
     37         40.780555   0.000000
     38         40.780555   0.000000
     39         44.151582   0.000000
     40         44.151582   0.000000
     41         48.810104   0.000000
     42         48.810104   0.000000
     43         50.474526   0.000000
     44         50.474526   0.000000
     45         51.055582   0.000000
     46         51.055582   0.000000
     47         51.491165   0.000000
     48         51.491165   0.000000
 
  0.1250000E+00  0.1250000E+00  0.1250000E+00  0.1562500E-01
      1        -43.390924   1.000000
      2        -43.083432   1.000000
      3        -19.684941   1.000000
      4        -19.684941   1.000000
      5        -19.430978   1.000000
      6        -19.089645   1.000000
      7        -18.817233   1.000000
      8        -18.817233   1.000000
      9          5.937216   1.000000
     10          7.950269   1.000000
     11          7.950269   1.000000
     12         10.852194   0.995702
     13         10.852194   0.995702
     14         12.387712   0.000000
     15         13.058630   0.000000
     16         13.930239   0.000000
     17         13.930239   0.000000
     18         15.572926   0.000000
     19         15.572926   0.000000
     20         20.980945   0.000000
     21         20.980945   0.000000
     22         21.240091   0.000000
     23         25.727446   0.000000
     24         26.530131   0.000000
     25         26.530131   0.000000
     26         30.325839   0.000000
     27         30.325839   0.000000
     28         31.393854   0.000000
     29         33.354800   0.000000
     30         33.354800   0.000000
     31         34.360295   0.000000
     32         34.772895   0.000000
     33         40.374228   0.000000
     34         40.728925   0.000000
     35         41.607959   0.000000
     36         41.607959   0.000000
     37         44.538132   0.000000
     38         44.538132   0.000000
     39         45.048022   0.000000
     40         45.048022   0.000000
     41         47.048269   0.000000
     42         47.048269   0.000000
     43         50.318273   0.000000
     44         50.576294   0.000000
     45         50.804189   0.000000
     46         53.907264   0.000000
     47         53.907264   0.000000
     48         54.147206   0.000000
 
  0.2500000E+00  0.1250000E+00  0.1250000E+00  0.4687500E-01
      1        -43.349258   1.000000
      2        -43.113611   1.000000
      3        -19.761006   1.000000
      4        -19.581135   1.000000
      5        -19.299250   1.000000
      6        -19.289960   1.000000
      7        -18.916339   1.000000
      8        -18.829561   1.000000