 DBCSR| CPU Multiplication driver                                           BLAS (U)
 DBCSR| Multrec recursion limit                                              512 (U)
 DBCSR| Multiplication stack size                                           1000 (D)
 DBCSR| Maximum elements for images                                    UNLIMITED (U)
 DBCSR| Multiplicative factor virtual images                                   1 (U)
 DBCSR| Use multiplication densification                                       T (D)
 DBCSR| Multiplication size stacks                                             3 (U)
 DBCSR| Use memory pool for CPU allocation                                     F (U)
 DBCSR| Number of 3D layers                                               SINGLE (U)
 DBCSR| Use MPI memory allocation                                              F (U)
 DBCSR| Use RMA algorithm                                                      F (U)
 DBCSR| Use Communication thread                                               T (U)
 DBCSR| Communication thread load                                             45 (D)
 DBCSR| MPI: My process id                                                     0
 DBCSR| MPI: Number of processes                                               8
 DBCSR| OMP: Current number of threads                                        12
 DBCSR| OMP: Max number of threads                                            12
 DBCSR| Split modifier for TAS multiplication algorithm                  1.0E+00 (U)


  **** **** ******  **  PROGRAM STARTED AT               2025-08-04 22:57:45.578
 ***** ** ***  *** **   PROGRAM STARTED ON                          i04r11c06s01
 **    ****   ******    PROGRAM STARTED BY                               di38fab
 ***** **    ** ** **   PROGRAM PROCESS ID                               3564911
  **** **  *******  **  PROGRAM STARTED IN /hppfs/scratch/04/di38fab/09_GTH/Delt
                                           a_Set/Zn/aug-DZVP-MOLOPT-GTH-tier-2/8
                                           x8x8

 CP2K| version string:                 CP2K version 2025.1 (Development Version)
 CP2K| source code revision number:                                  git:3130539
 CP2K| cp2kflags: omp libint fftw3 libxc parallel scalapack max_contr=4         
 CP2K| is freely available from                            https://www.cp2k.org/
 CP2K| Program compiled at                         Tue Jun  3 16:14:32 CEST 2025
 CP2K| Program compiled on                                               login01
 CP2K| Program compiled for                                        Supermuc-foss
 CP2K| Data directory path                  /hppfs/work/pn36zo/di38fab/cp2k/data
 CP2K| Input file name                                                    GW.inp

 GLOBAL| Force Environment number                                              1
 GLOBAL| Basis set file name            /hppfs/scratch/04/di38fab/09_GTH/BASIS_A
 GLOBAL| Potential file name            /hppfs/work/pn36zo/di38fab/cp2k/data/GTH
 GLOBAL| MM Potential file name                                     MM_POTENTIAL
 GLOBAL| Coordinate file name                                             Zn.cif
 GLOBAL| Method name                                                        CP2K
 GLOBAL| Project name                                                       WSe2
 GLOBAL| Run type                                                         ENERGY
 GLOBAL| FFT library                                                       FFTW3
 GLOBAL| Diagonalization library                                       ScaLAPACK
 GLOBAL| Cholesky decomposition library                                ScaLAPACK
 GLOBAL| DGEMM library                                                      BLAS
 GLOBAL| Orthonormality check for eigenvectors                          DISABLED
 GLOBAL| Matrix multiplication library                                 ScaLAPACK
 GLOBAL| All-to-all communication in single precision                          F
 GLOBAL| FFTs using library dependent lengths                                  F
 GLOBAL| Grid backend                                                       AUTO
 GLOBAL| Global print level                                               MEDIUM
 GLOBAL| MPI I/O enabled                                                       T
 GLOBAL| Total number of message passing processes                             8
 GLOBAL| Number of threads for this process                                   12
 GLOBAL| This output is from process                                           0
 GLOBAL| OpenMP stack size per thread (OMP_STACKSIZE)                    default
 GLOBAL| CPU model name             Intel(R) Xeon(R) Platinum 8174 CPU @ 3.10GHz

 MEMORY| system memory details [Kb]
 MEMORY|                        rank 0           min           max       average
 MEMORY| MemTotal             98436664      98436660      98436664      98436662
 MEMORY| MemFree              84520760      84520760      86250308      85385534
 MEMORY| Buffers                     0             0             0             0
 MEMORY| Cached                2376356       2350300       2376356       2363328
 MEMORY| Slab                  1267436        988060       1267436       1127748
 MEMORY| SReclaimable           278984        221788        278984        250386
 MEMORY| MemLikelyFree        87176100      87176100      88822396      87999248


 *** Fundamental physical constants (SI units) ***

 *** Literature: B. J. Mohr and B. N. Taylor,
 ***             CODATA recommended values of the fundamental physical
 ***             constants: 2006, Web Version 5.1
 ***             http://physics.nist.gov/constants

 Speed of light in vacuum [m/s]                             2.99792458000000E+08
 Magnetic constant or permeability of vacuum [N/A**2]       1.25663706143592E-06
 Electric constant or permittivity of vacuum [F/m]          8.85418781762039E-12
 Planck constant (h) [J*s]                                  6.62606896000000E-34
 Planck constant (h-bar) [J*s]                              1.05457162825177E-34
 Elementary charge [C]                                      1.60217648700000E-19
 Electron mass [kg]                                         9.10938215000000E-31
 Electron g factor [ ]                                     -2.00231930436220E+00
 Proton mass [kg]                                           1.67262163700000E-27
 Fine-structure constant                                    7.29735253760000E-03
 Rydberg constant [1/m]                                     1.09737315685270E+07
 Avogadro constant [1/mol]                                  6.02214179000000E+23
 Boltzmann constant [J/K]                                   1.38065040000000E-23
 Atomic mass unit [kg]                                      1.66053878200000E-27
 Bohr radius [m]                                            5.29177208590000E-11

 *** Conversion factors ***

 [u] -> [a.u.]                                              1.82288848426455E+03
 [Angstrom] -> [Bohr] = [a.u.]                              1.88972613288564E+00
 [a.u.] = [Bohr] -> [Angstrom]                              5.29177208590000E-01
 [a.u.] -> [s]                                              2.41888432650478E-17
 [a.u.] -> [fs]                                             2.41888432650478E-02
 [a.u.] -> [J]                                              4.35974393937059E-18
 [a.u.] -> [N]                                              8.23872205491840E-08
 [a.u.] -> [K]                                              3.15774647902944E+05
 [a.u.] -> [kJ/mol]                                         2.62549961709828E+03
 [a.u.] -> [kcal/mol]                                       6.27509468713739E+02
 [a.u.] -> [Pa]                                             2.94210107994716E+13
 [a.u.] -> [bar]                                            2.94210107994716E+08
 [a.u.] -> [atm]                                            2.90362800883016E+08
 [a.u.] -> [eV]                                             2.72113838565563E+01
 [a.u.] -> [Hz]                                             6.57968392072181E+15
 [a.u.] -> [1/cm] (wave numbers)                            2.19474631370540E+05
 [a.u./Bohr**2] -> [1/cm]                                   5.14048714338585E+03
 

 CELL_TOP| Volume [angstrom^3]:                                        30.701548
 CELL_TOP| Vector a [angstrom     2.662     0.000     0.000   |a| =     2.661690
 CELL_TOP| Vector b [angstrom     1.331     2.305     0.000   |b| =     2.661690
 CELL_TOP| Vector c [angstrom     0.000     0.000     5.004   |c| =     5.003970
 CELL_TOP| Angle (b,c), alpha [degree]:                                90.000000
 CELL_TOP| Angle (a,c), beta  [degree]:                                90.000000
 CELL_TOP| Angle (a,b), gamma [degree]:                                60.000000
 CELL_TOP| Numerically orthorhombic:                                          NO
 CELL_TOP| Periodicity                                                       XYZ

 CELL_CIF| Volume [angstrom^3]:                                        30.701548
 CELL_CIF| Vector a [angstrom     2.662     0.000     0.000   |a| =     2.661690
 CELL_CIF| Vector b [angstrom     1.331     2.305     0.000   |b| =     2.661690
 CELL_CIF| Vector c [angstrom     0.000     0.000     5.004   |c| =     5.003970
 CELL_CIF| Angle (b,c), alpha [degree]:                                90.000000
 CELL_CIF| Angle (a,c), beta  [degree]:                                90.000000
 CELL_CIF| Angle (a,b), gamma [degree]:                                60.000000
 CELL_CIF| Numerically orthorhombic:                                          NO
 CELL_CIF| Periodicity                                                       XYZ

 GENERATE|  Preliminary Number of Bonds generated:                             0
 GENERATE|  Achieved consistency in connectivity generation.

 CELL| Volume [angstrom^3]:                                            30.701548
 CELL| Vector a [angstrom]:       2.662     0.000     0.000   |a| =     2.661690
 CELL| Vector b [angstrom]:       1.331     2.305     0.000   |b| =     2.661690
 CELL| Vector c [angstrom]:       0.000     0.000     5.004   |c| =     5.003970
 CELL| Angle (b,c), alpha [degree]:                                    90.000000
 CELL| Angle (a,c), beta  [degree]:                                    90.000000
 CELL| Angle (a,b), gamma [degree]:                                    60.000000
 CELL| Numerically orthorhombic:                                              NO
 CELL| Periodicity                                                           XYZ

 CELL_REF| Volume [angstrom^3]:                                        30.701548
 CELL_REF| Vector a [angstrom     2.662     0.000     0.000   |a| =     2.661690
 CELL_REF| Vector b [angstrom     1.331     2.305     0.000   |b| =     2.661690
 CELL_REF| Vector c [angstrom     0.000     0.000     5.004   |c| =     5.003970
 CELL_REF| Angle (b,c), alpha [degree]:                                90.000000
 CELL_REF| Angle (a,c), beta  [degree]:                                90.000000
 CELL_REF| Angle (a,b), gamma [degree]:                                60.000000
 CELL_REF| Numerically orthorhombic:                                          NO
 CELL_REF| Periodicity                                                       XYZ

 *** WARNING in cryssym.F:180 :: Symmetry library SPGLIB not available ***


 *******************************************************************************
                                    Kpoints
 *******************************************************************************
 BRILLOUIN| K-point scheme                                        Monkhorst-Pack
 BRILLOUIN| K-Point grid                                             8    8    8
 BRILLOUIN| Accuracy in Symmetry determination                      0.100000E-05
 BRILLOUIN| K-Point point group symmetrization                               OFF
 BRILLOUIN| Wavefunction type                                            COMPLEX
 BRILLOUIN| List of Kpoints [2 Pi/Bohr]                                      256
 BRILLOUIN| Number           Weight            X              Y              Z
 BRILLOUIN|     1           0.00391       -0.43750       -0.43750       -0.43750
 BRILLOUIN|     2           0.00391       -0.43750       -0.43750       -0.31250
 BRILLOUIN|     3           0.00391       -0.43750       -0.43750       -0.18750
 BRILLOUIN|     4           0.00391       -0.43750       -0.43750       -0.06250
 BRILLOUIN|     5           0.00391       -0.43750       -0.43750        0.06250
 BRILLOUIN|     6           0.00391       -0.43750       -0.43750        0.18750
 BRILLOUIN|     7           0.00391       -0.43750       -0.43750        0.31250
 BRILLOUIN|     8           0.00391       -0.43750       -0.43750        0.43750
 BRILLOUIN|     9           0.00391       -0.43750       -0.31250       -0.43750
 BRILLOUIN|    10           0.00391       -0.43750       -0.31250       -0.31250
 BRILLOUIN|    11           0.00391       -0.43750       -0.31250       -0.18750
 BRILLOUIN|    12           0.00391       -0.43750       -0.31250       -0.06250
 BRILLOUIN|    13           0.00391       -0.43750       -0.31250        0.06250
 BRILLOUIN|    14           0.00391       -0.43750       -0.31250        0.18750
 BRILLOUIN|    15           0.00391       -0.43750       -0.31250        0.31250
 BRILLOUIN|    16           0.00391       -0.43750       -0.31250        0.43750
 BRILLOUIN|    17           0.00391       -0.43750       -0.18750       -0.43750
 BRILLOUIN|    18           0.00391       -0.43750       -0.18750       -0.31250
 BRILLOUIN|    19           0.00391       -0.43750       -0.18750       -0.18750
 BRILLOUIN|    20           0.00391       -0.43750       -0.18750       -0.06250
 BRILLOUIN|    21           0.00391       -0.43750       -0.18750        0.06250
 BRILLOUIN|    22           0.00391       -0.43750       -0.18750        0.18750
 BRILLOUIN|    23           0.00391       -0.43750       -0.18750        0.31250
 BRILLOUIN|    24           0.00391       -0.43750       -0.18750        0.43750
 BRILLOUIN|    25           0.00391       -0.43750       -0.06250       -0.43750
 BRILLOUIN|    26           0.00391       -0.43750       -0.06250       -0.31250
 BRILLOUIN|    27           0.00391       -0.43750       -0.06250       -0.18750
 BRILLOUIN|    28           0.00391       -0.43750       -0.06250       -0.06250
 BRILLOUIN|    29           0.00391       -0.43750       -0.06250        0.06250
 BRILLOUIN|    30           0.00391       -0.43750       -0.06250        0.18750
 BRILLOUIN|    31           0.00391       -0.43750       -0.06250        0.31250
 BRILLOUIN|    32           0.00391       -0.43750       -0.06250        0.43750
 BRILLOUIN|    33           0.00391       -0.43750        0.06250       -0.43750
 BRILLOUIN|    34           0.00391       -0.43750        0.06250       -0.31250
 BRILLOUIN|    35           0.00391       -0.43750        0.06250       -0.18750
 BRILLOUIN|    36           0.00391       -0.43750        0.06250       -0.06250
 BRILLOUIN|    37           0.00391       -0.43750        0.06250        0.06250
 BRILLOUIN|    38           0.00391       -0.43750        0.06250        0.18750
 BRILLOUIN|    39           0.00391       -0.43750        0.06250        0.31250
 BRILLOUIN|    40           0.00391       -0.43750        0.06250        0.43750
 BRILLOUIN|    41           0.00391       -0.43750        0.18750       -0.43750
 BRILLOUIN|    42           0.00391       -0.43750        0.18750       -0.31250
 BRILLOUIN|    43           0.00391       -0.43750        0.18750       -0.18750
 BRILLOUIN|    44           0.00391       -0.43750        0.18750       -0.06250
 BRILLOUIN|    45           0.00391       -0.43750        0.18750        0.06250
 BRILLOUIN|    46           0.00391       -0.43750        0.18750        0.18750
 BRILLOUIN|    47           0.00391       -0.43750        0.18750        0.31250
 BRILLOUIN|    48           0.00391       -0.43750        0.18750        0.43750
 BRILLOUIN|    49           0.00391       -0.43750        0.31250       -0.43750
 BRILLOUIN|    50           0.00391       -0.43750        0.31250       -0.31250
 BRILLOUIN|    51           0.00391       -0.43750        0.31250       -0.18750
 BRILLOUIN|    52           0.00391       -0.43750        0.31250       -0.06250
 BRILLOUIN|    53           0.00391       -0.43750        0.31250        0.06250
 BRILLOUIN|    54           0.00391       -0.43750        0.31250        0.18750
 BRILLOUIN|    55           0.00391       -0.43750        0.31250        0.31250
 BRILLOUIN|    56           0.00391       -0.43750        0.31250        0.43750
 BRILLOUIN|    57           0.00391       -0.43750        0.43750       -0.43750
 BRILLOUIN|    58           0.00391       -0.43750        0.43750       -0.31250
 BRILLOUIN|    59           0.00391       -0.43750        0.43750       -0.18750
 BRILLOUIN|    60           0.00391       -0.43750        0.43750       -0.06250
 BRILLOUIN|    61           0.00391       -0.43750        0.43750        0.06250
 BRILLOUIN|    62           0.00391       -0.43750        0.43750        0.18750
 BRILLOUIN|    63           0.00391       -0.43750        0.43750        0.31250
 BRILLOUIN|    64           0.00391       -0.43750        0.43750        0.43750
 BRILLOUIN|    65           0.00391       -0.31250       -0.43750       -0.43750
 BRILLOUIN|    66           0.00391       -0.31250       -0.43750       -0.31250
 BRILLOUIN|    67           0.00391       -0.31250       -0.43750       -0.18750
 BRILLOUIN|    68           0.00391       -0.31250       -0.43750       -0.06250
 BRILLOUIN|    69           0.00391       -0.31250       -0.43750        0.06250
 BRILLOUIN|    70           0.00391       -0.31250       -0.43750        0.18750
 BRILLOUIN|    71           0.00391       -0.31250       -0.43750        0.31250
 BRILLOUIN|    72           0.00391       -0.31250       -0.43750        0.43750
 BRILLOUIN|    73           0.00391       -0.31250       -0.31250       -0.43750
 BRILLOUIN|    74           0.00391       -0.31250       -0.31250       -0.31250
 BRILLOUIN|    75           0.00391       -0.31250       -0.31250       -0.18750
 BRILLOUIN|    76           0.00391       -0.31250       -0.31250       -0.06250
 BRILLOUIN|    77           0.00391       -0.31250       -0.31250        0.06250
 BRILLOUIN|    78           0.00391       -0.31250       -0.31250        0.18750
 BRILLOUIN|    79           0.00391       -0.31250       -0.31250        0.31250
 BRILLOUIN|    80           0.00391       -0.31250       -0.31250        0.43750
 BRILLOUIN|    81           0.00391       -0.31250       -0.18750       -0.43750
 BRILLOUIN|    82           0.00391       -0.31250       -0.18750       -0.31250
 BRILLOUIN|    83           0.00391       -0.31250       -0.18750       -0.18750
 BRILLOUIN|    84           0.00391       -0.31250       -0.18750       -0.06250
 BRILLOUIN|    85           0.00391       -0.31250       -0.18750        0.06250
 BRILLOUIN|    86           0.00391       -0.31250       -0.18750        0.18750
 BRILLOUIN|    87           0.00391       -0.31250       -0.18750        0.31250
 BRILLOUIN|    88           0.00391       -0.31250       -0.18750        0.43750
 BRILLOUIN|    89           0.00391       -0.31250       -0.06250       -0.43750
 BRILLOUIN|    90           0.00391       -0.31250       -0.06250       -0.31250
 BRILLOUIN|    91           0.00391       -0.31250       -0.06250       -0.18750
 BRILLOUIN|    92           0.00391       -0.31250       -0.06250       -0.06250
 BRILLOUIN|    93           0.00391       -0.31250       -0.06250        0.06250
 BRILLOUIN|    94           0.00391       -0.31250       -0.06250        0.18750
 BRILLOUIN|    95           0.00391       -0.31250       -0.06250        0.31250
 BRILLOUIN|    96           0.00391       -0.31250       -0.06250        0.43750
 BRILLOUIN|    97           0.00391       -0.31250        0.06250       -0.43750
 BRILLOUIN|    98           0.00391       -0.31250        0.06250       -0.31250
 BRILLOUIN|    99           0.00391       -0.31250        0.06250       -0.18750
 BRILLOUIN|   100           0.00391       -0.31250        0.06250       -0.06250
 BRILLOUIN|   101           0.00391       -0.31250        0.06250        0.06250
 BRILLOUIN|   102           0.00391       -0.31250        0.06250        0.18750
 BRILLOUIN|   103           0.00391       -0.31250        0.06250        0.31250
 BRILLOUIN|   104           0.00391       -0.31250        0.06250        0.43750
 BRILLOUIN|   105           0.00391       -0.31250        0.18750       -0.43750
 BRILLOUIN|   106           0.00391       -0.31250        0.18750       -0.31250
 BRILLOUIN|   107           0.00391       -0.31250        0.18750       -0.18750
 BRILLOUIN|   108           0.00391       -0.31250        0.18750       -0.06250
 BRILLOUIN|   109           0.00391       -0.31250        0.18750        0.06250
 BRILLOUIN|   110           0.00391       -0.31250        0.18750        0.18750
 BRILLOUIN|   111           0.00391       -0.31250        0.18750        0.31250
 BRILLOUIN|   112           0.00391       -0.31250        0.18750        0.43750
 BRILLOUIN|   113           0.00391       -0.31250        0.31250       -0.43750
 BRILLOUIN|   114           0.00391       -0.31250        0.31250       -0.31250
 BRILLOUIN|   115           0.00391       -0.31250        0.31250       -0.18750
 BRILLOUIN|   116           0.00391       -0.31250        0.31250       -0.06250
 BRILLOUIN|   117           0.00391       -0.31250        0.31250        0.06250
 BRILLOUIN|   118           0.00391       -0.31250        0.31250        0.18750
 BRILLOUIN|   119           0.00391       -0.31250        0.31250        0.31250
 BRILLOUIN|   120           0.00391       -0.31250        0.31250        0.43750
 BRILLOUIN|   121           0.00391       -0.31250        0.43750       -0.43750
 BRILLOUIN|   122           0.00391       -0.31250        0.43750       -0.31250
 BRILLOUIN|   123           0.00391       -0.31250        0.43750       -0.18750
 BRILLOUIN|   124           0.00391       -0.31250        0.43750       -0.06250
 BRILLOUIN|   125           0.00391       -0.31250        0.43750        0.06250
 BRILLOUIN|   126           0.00391       -0.31250        0.43750        0.18750
 BRILLOUIN|   127           0.00391       -0.31250        0.43750        0.31250
 BRILLOUIN|   128           0.00391       -0.31250        0.43750        0.43750
 BRILLOUIN|   129           0.00391       -0.18750       -0.43750       -0.43750
 BRILLOUIN|   130           0.00391       -0.18750       -0.43750       -0.31250
 BRILLOUIN|   131           0.00391       -0.18750       -0.43750       -0.18750
 BRILLOUIN|   132           0.00391       -0.18750       -0.43750       -0.06250
 BRILLOUIN|   133           0.00391       -0.18750       -0.43750        0.06250
 BRILLOUIN|   134           0.00391       -0.18750       -0.43750        0.18750
 BRILLOUIN|   135           0.00391       -0.18750       -0.43750        0.31250
 BRILLOUIN|   136           0.00391       -0.18750       -0.43750        0.43750
 BRILLOUIN|   137           0.00391       -0.18750       -0.31250       -0.43750
 BRILLOUIN|   138           0.00391       -0.18750       -0.31250       -0.31250
 BRILLOUIN|   139           0.00391       -0.18750       -0.31250       -0.18750
 BRILLOUIN|   140           0.00391       -0.18750       -0.31250       -0.06250
 BRILLOUIN|   141           0.00391       -0.18750       -0.31250        0.06250
 BRILLOUIN|   142           0.00391       -0.18750       -0.31250        0.18750
 BRILLOUIN|   143           0.00391       -0.18750       -0.31250        0.31250
 BRILLOUIN|   144           0.00391       -0.18750       -0.31250        0.43750
 BRILLOUIN|   145           0.00391       -0.18750       -0.18750       -0.43750
 BRILLOUIN|   146           0.00391       -0.18750       -0.18750       -0.31250
 BRILLOUIN|   147           0.00391       -0.18750       -0.18750       -0.18750
 BRILLOUIN|   148           0.00391       -0.18750       -0.18750       -0.06250
 BRILLOUIN|   149           0.00391       -0.18750       -0.18750        0.06250
 BRILLOUIN|   150           0.00391       -0.18750       -0.18750        0.18750
 BRILLOUIN|   151           0.00391       -0.18750       -0.18750        0.31250
 BRILLOUIN|   152           0.00391       -0.18750       -0.18750        0.43750
 BRILLOUIN|   153           0.00391       -0.18750       -0.06250       -0.43750
 BRILLOUIN|   154           0.00391       -0.18750       -0.06250       -0.31250
 BRILLOUIN|   155           0.00391       -0.18750       -0.06250       -0.18750
 BRILLOUIN|   156           0.00391       -0.18750       -0.06250       -0.06250
 BRILLOUIN|   157           0.00391       -0.18750       -0.06250        0.06250
 BRILLOUIN|   158           0.00391       -0.18750       -0.06250        0.18750
 BRILLOUIN|   159           0.00391       -0.18750       -0.06250        0.31250
 BRILLOUIN|   160           0.00391       -0.18750       -0.06250        0.43750
 BRILLOUIN|   161           0.00391       -0.18750        0.06250       -0.43750
 BRILLOUIN|   162           0.00391       -0.18750        0.06250       -0.31250
 BRILLOUIN|   163           0.00391       -0.18750        0.06250       -0.18750
 BRILLOUIN|   164           0.00391       -0.18750        0.06250       -0.06250
 BRILLOUIN|   165           0.00391       -0.18750        0.06250        0.06250
 BRILLOUIN|   166           0.00391       -0.18750        0.06250        0.18750
 BRILLOUIN|   167           0.00391       -0.18750        0.06250        0.31250
 BRILLOUIN|   168           0.00391       -0.18750        0.06250        0.43750
 BRILLOUIN|   169           0.00391       -0.18750        0.18750       -0.43750
 BRILLOUIN|   170           0.00391       -0.18750        0.18750       -0.31250
 BRILLOUIN|   171           0.00391       -0.18750        0.18750       -0.18750
 BRILLOUIN|   172           0.00391       -0.18750        0.18750       -0.06250
 BRILLOUIN|   173           0.00391       -0.18750        0.18750        0.06250
 BRILLOUIN|   174           0.00391       -0.18750        0.18750        0.18750
 BRILLOUIN|   175           0.00391       -0.18750        0.18750        0.31250
 BRILLOUIN|   176           0.00391       -0.18750        0.18750        0.43750
 BRILLOUIN|   177           0.00391       -0.18750        0.31250       -0.43750
 BRILLOUIN|   178           0.00391       -0.18750        0.31250       -0.31250
 BRILLOUIN|   179           0.00391       -0.18750        0.31250       -0.18750
 BRILLOUIN|   180           0.00391       -0.18750        0.31250       -0.06250
 BRILLOUIN|   181           0.00391       -0.18750        0.31250        0.06250
 BRILLOUIN|   182           0.00391       -0.18750        0.31250        0.18750
 BRILLOUIN|   183           0.00391       -0.18750        0.31250        0.31250
 BRILLOUIN|   184           0.00391       -0.18750        0.31250        0.43750
 BRILLOUIN|   185           0.00391       -0.18750        0.43750       -0.43750
 BRILLOUIN|   186           0.00391       -0.18750        0.43750       -0.31250
 BRILLOUIN|   187           0.00391       -0.18750        0.43750       -0.18750
 BRILLOUIN|   188           0.00391       -0.18750        0.43750       -0.06250
 BRILLOUIN|   189           0.00391       -0.18750        0.43750        0.06250
 BRILLOUIN|   190           0.00391       -0.18750        0.43750        0.18750
 BRILLOUIN|   191           0.00391       -0.18750        0.43750        0.31250
 BRILLOUIN|   192           0.00391       -0.18750        0.43750        0.43750
 BRILLOUIN|   193           0.00391       -0.06250       -0.43750       -0.43750
 BRILLOUIN|   194           0.00391       -0.06250       -0.43750       -0.31250
 BRILLOUIN|   195           0.00391       -0.06250       -0.43750       -0.18750
 BRILLOUIN|   196           0.00391       -0.06250       -0.43750       -0.06250
 BRILLOUIN|   197           0.00391       -0.06250       -0.43750        0.06250
 BRILLOUIN|   198           0.00391       -0.06250       -0.43750        0.18750
 BRILLOUIN|   199           0.00391       -0.06250       -0.43750        0.31250
 BRILLOUIN|   200           0.00391       -0.06250       -0.43750        0.43750
 BRILLOUIN|   201           0.00391       -0.06250       -0.31250       -0.43750
 BRILLOUIN|   202           0.00391       -0.06250       -0.31250       -0.31250
 BRILLOUIN|   203           0.00391       -0.06250       -0.31250       -0.18750
 BRILLOUIN|   204           0.00391       -0.06250       -0.31250       -0.06250
 BRILLOUIN|   205           0.00391       -0.06250       -0.31250        0.06250
 BRILLOUIN|   206           0.00391       -0.06250       -0.31250        0.18750
 BRILLOUIN|   207           0.00391       -0.06250       -0.31250        0.31250
 BRILLOUIN|   208           0.00391       -0.06250       -0.31250        0.43750
 BRILLOUIN|   209           0.00391       -0.06250       -0.18750       -0.43750
 BRILLOUIN|   210           0.00391       -0.06250       -0.18750       -0.31250
 BRILLOUIN|   211           0.00391       -0.06250       -0.18750       -0.18750
 BRILLOUIN|   212           0.00391       -0.06250       -0.18750       -0.06250
 BRILLOUIN|   213           0.00391       -0.06250       -0.18750        0.06250
 BRILLOUIN|   214           0.00391       -0.06250       -0.18750        0.18750
 BRILLOUIN|   215           0.00391       -0.06250       -0.18750        0.31250
 BRILLOUIN|   216           0.00391       -0.06250       -0.18750        0.43750
 BRILLOUIN|   217           0.00391       -0.06250       -0.06250       -0.43750
 BRILLOUIN|   218           0.00391       -0.06250       -0.06250       -0.31250
 BRILLOUIN|   219           0.00391       -0.06250       -0.06250       -0.18750
 BRILLOUIN|   220           0.00391       -0.06250       -0.06250       -0.06250
 BRILLOUIN|   221           0.00391       -0.06250       -0.06250        0.06250
 BRILLOUIN|   222           0.00391       -0.06250       -0.06250        0.18750
 BRILLOUIN|   223           0.00391       -0.06250       -0.06250        0.31250
 BRILLOUIN|   224           0.00391       -0.06250       -0.06250        0.43750
 BRILLOUIN|   225           0.00391       -0.06250        0.06250       -0.43750
 BRILLOUIN|   226           0.00391       -0.06250        0.06250       -0.31250
 BRILLOUIN|   227           0.00391       -0.06250        0.06250       -0.18750
 BRILLOUIN|   228           0.00391       -0.06250        0.06250       -0.06250
 BRILLOUIN|   229           0.00391       -0.06250        0.06250        0.06250
 BRILLOUIN|   230           0.00391       -0.06250        0.06250        0.18750
 BRILLOUIN|   231           0.00391       -0.06250        0.06250        0.31250
 BRILLOUIN|   232           0.00391       -0.06250        0.06250        0.43750
 BRILLOUIN|   233           0.00391       -0.06250        0.18750       -0.43750
 BRILLOUIN|   234           0.00391       -0.06250        0.18750       -0.31250
 BRILLOUIN|   235           0.00391       -0.06250        0.18750       -0.18750
 BRILLOUIN|   236           0.00391       -0.06250        0.18750       -0.06250
 BRILLOUIN|   237           0.00391       -0.06250        0.18750        0.06250
 BRILLOUIN|   238           0.00391       -0.06250        0.18750        0.18750
 BRILLOUIN|   239           0.00391       -0.06250        0.18750        0.31250
 BRILLOUIN|   240           0.00391       -0.06250        0.18750        0.43750
 BRILLOUIN|   241           0.00391       -0.06250        0.31250       -0.43750
 BRILLOUIN|   242           0.00391       -0.06250        0.31250       -0.31250
 BRILLOUIN|   243           0.00391       -0.06250        0.31250       -0.18750
 BRILLOUIN|   244           0.00391       -0.06250        0.31250       -0.06250
 BRILLOUIN|   245           0.00391       -0.06250        0.31250        0.06250
 BRILLOUIN|   246           0.00391       -0.06250        0.31250        0.18750
 BRILLOUIN|   247           0.00391       -0.06250        0.31250        0.31250
 BRILLOUIN|   248           0.00391       -0.06250        0.31250        0.43750
 BRILLOUIN|   249           0.00391       -0.06250        0.43750       -0.43750
 BRILLOUIN|   250           0.00391       -0.06250        0.43750       -0.31250
 BRILLOUIN|   251           0.00391       -0.06250        0.43750       -0.18750
 BRILLOUIN|   252           0.00391       -0.06250        0.43750       -0.06250
 BRILLOUIN|   253           0.00391       -0.06250        0.43750        0.06250
 BRILLOUIN|   254           0.00391       -0.06250        0.43750        0.18750
 BRILLOUIN|   255           0.00391       -0.06250        0.43750        0.31250
 BRILLOUIN|   256           0.00391       -0.06250        0.43750        0.43750
 *******************************************************************************

 *******************************************************************************
 *******************************************************************************
 **                                                                           **
 **     #####                         ##              ##                      **
 **    ##   ##            ##          ##              ##                      **
 **   ##     ##                       ##            ######                    **
 **   ##     ##  ##   ##  ##   #####  ##  ##   ####   ##    #####    #####    **
 **   ##     ##  ##   ##  ##  ##      ## ##   ##      ##   ##   ##  ##   ##   **
 **   ##  ## ##  ##   ##  ##  ##      ####     ###    ##   ######   ######    **
 **    ##  ###   ##   ##  ##  ##      ## ##      ##   ##   ##       ##        **
 **     #######   #####   ##   #####  ##  ##  ####    ##    #####   ##        **
 **           ##                                                    ##        **
 **                                                                           **
 **                                                ... make the atoms dance   **
 **                                                                           **
 **            Copyright (C) by CP2K developers group (2000-2025)             **
 **                      J. Chem. Phys. 152, 194103 (2020)                    **
 **                                                                           **
 *******************************************************************************

 DFT| Spin restricted Kohn-Sham (RKS) calculation                            RKS
 DFT| Multiplicity                                                             1
 DFT| Number of spin states                                                    1
 DFT| Charge                                                                   0
 DFT| Self-interaction correction (SIC)                                       NO
 DFT| Cutoffs: density                                              1.000000E-10
 DFT|          gradient                                             1.000000E-10
 DFT|          tau                                                  1.000000E-10
 DFT|          cutoff_smoothing_range                               0.000000E+00
 DFT| XC density smoothing                                                  NONE
 DFT| XC derivatives                                                          PW

 FUNCTIONAL| PBE:
 FUNCTIONAL| J.P.Perdew, K.Burke, M.Ernzerhof, Phys. Rev. Letter, vol. 77, n 18,
 FUNCTIONAL|  pp. 3865-3868, (1996) {spin unpolarized}                          


 QS| Method:                                                                 GPW
 QS| Density plane wave grid type                        NON-SPHERICAL FULLSPACE
 QS| Number of grid levels:                                                    4
 QS| Density cutoff [a.u.]:                                                500.0
 QS| Multi grid cutoff [a.u.]: 1) grid level                               500.0
 QS|                           2) grid level                               166.7
 QS|                           3) grid level                                55.6
 QS|                           4) grid level                                18.5
 QS| Grid level progression factor:                                          3.0
 QS| Relative density cutoff [a.u.]:                                        50.0
 QS| Interaction thresholds: eps_pgf_orb:                                1.0E-16
 QS|                         eps_filter_matrix:                          0.0E+00
 QS|                         eps_core_charge:                            1.0E-18
 QS|                         eps_rho_gspace:                             1.0E-16
 QS|                         eps_rho_rspace:                             1.0E-16
 QS|                         eps_gvg_rspace:                             1.0E-08
 QS|                         eps_ppl:                                    1.0E-02
 QS|                         eps_ppnl:                                   1.0E-10


 ATOMIC KIND INFORMATION

  1. Atomic kind: Zn                                    Number of atoms:       2

     Orbital Basis Set                                aug-DZVP-MOLOPT-GTH-tier-2

       Number of orbital shell sets:                                           1
       Number of orbital shells:                                              12
       Number of primitive Cartesian functions:                                6
       Number of Cartesian basis functions:                                   65
       Number of spherical basis functions:                                   50
       Norm type:                                                              2

       Normalised Cartesian orbitals:

                        Set   Shell   Orbital            Exponent    Coefficient

                          1       1    2s                0.047979      -0.036796
                                                         0.139193      -0.094463
                                                         0.376911      -0.022564
                                                         1.000684       0.163207
                                                         2.638267      -0.041030
                                                         6.104275       0.016727

                          1       2    3s                0.047979      -0.111349
                                                         0.139193       0.128448
                                                         0.376911       0.343049
                                                         1.000684      -0.735262
                                                         2.638267       0.294581
                                                         6.104275      -0.056747

                          1       3    4s                0.047979      -0.075560
                                                         0.139193      -0.001685
                                                         0.376911       0.030829
                                                         1.000684       0.000000
                                                         2.638267       0.000000
                                                         6.104275       0.000000

                          1       4    3px               0.047979      -0.033041
                                                         0.139193      -0.002357
                                                         0.376911       0.082133
                                                         1.000684      -0.079217
                                                         2.638267      -0.103883
                                                         6.104275       0.035380
                          1       4    3py               0.047979      -0.033041
                                                         0.139193      -0.002357
                                                         0.376911       0.082133
                                                         1.000684      -0.079217
                                                         2.638267      -0.103883
                                                         6.104275       0.035380
                          1       4    3pz               0.047979      -0.033041
                                                         0.139193      -0.002357
                                                         0.376911       0.082133
                                                         1.000684      -0.079217
                                                         2.638267      -0.103883
                                                         6.104275       0.035380

                          1       5    4px               0.047979       0.002583
                                                         0.139193       0.080547
                                                         0.376911       0.185414
                                                         1.000684      -0.257608
                                                         2.638267      -0.061965
                                                         6.104275       0.010518
                          1       5    4py               0.047979       0.002583
                                                         0.139193       0.080547
                                                         0.376911       0.185414
                                                         1.000684      -0.257608
                                                         2.638267      -0.061965
                                                         6.104275       0.010518
                          1       5    4pz               0.047979       0.002583
                                                         0.139193       0.080547
                                                         0.376911       0.185414
                                                         1.000684      -0.257608
                                                         2.638267      -0.061965
                                                         6.104275       0.010518

                          1       6    5px               0.047979      -0.037829
                                                         0.139193       0.044523
                                                         0.376911       0.175460
                                                         1.000684       0.000000
                                                         2.638267       0.000000
                                                         6.104275       0.000000
                          1       6    5py               0.047979      -0.037829
                                                         0.139193       0.044523
                                                         0.376911       0.175460
                                                         1.000684       0.000000
                                                         2.638267       0.000000
                                                         6.104275       0.000000
                          1       6    5pz               0.047979      -0.037829
                                                         0.139193       0.044523
                                                         0.376911       0.175460
                                                         1.000684       0.000000
                                                         2.638267       0.000000
                                                         6.104275       0.000000

                          1       7    4dx2              0.047979      -0.000038
                                                         0.139193       0.001869
                                                         0.376911       0.050447
                                                         1.000684       0.543951
                                                         2.638267       3.627180
                                                         6.104275      13.464071
                          1       7    4dxy              0.047979      -0.000066
                                                         0.139193       0.003237
                                                         0.376911       0.087377
                                                         1.000684       0.942150
                                                         2.638267       6.282461
                                                         6.104275      23.320455
                          1       7    4dxz              0.047979      -0.000066
                                                         0.139193       0.003237
                                                         0.376911       0.087377
                                                         1.000684       0.942150
                                                         2.638267       6.282461
                                                         6.104275      23.320455
                          1       7    4dy2              0.047979      -0.000038
                                                         0.139193       0.001869
                                                         0.376911       0.050447
                                                         1.000684       0.543951
                                                         2.638267       3.627180
                                                         6.104275      13.464071
                          1       7    4dyz              0.047979      -0.000066
                                                         0.139193       0.003237
                                                         0.376911       0.087377
                                                         1.000684       0.942150
                                                         2.638267       6.282461
                                                         6.104275      23.320455
                          1       7    4dz2              0.047979      -0.000038
                                                         0.139193       0.001869
                                                         0.376911       0.050447
                                                         1.000684       0.543951
                                                         2.638267       3.627180
                                                         6.104275      13.464071

                          1       8    5dx2              0.047979       0.001127
                                                         0.139193       0.024138
                                                         0.376911       0.183788
                                                         1.000684      -0.199622
                                                         2.638267      -1.316925
                                                         6.104275      -2.364570
                          1       8    5dxy              0.047979       0.001951
                                                         0.139193       0.041808
                                                         0.376911       0.318331
                                                         1.000684      -0.345755
                                                         2.638267      -2.280981
                                                         6.104275      -4.095555
                          1       8    5dxz              0.047979       0.001951
                                                         0.139193       0.041808
                                                         0.376911       0.318331
                                                         1.000684      -0.345755
                                                         2.638267      -2.280981
                                                         6.104275      -4.095555
                          1       8    5dy2              0.047979       0.001127
                                                         0.139193       0.024138
                                                         0.376911       0.183788
                                                         1.000684      -0.199622
                                                         2.638267      -1.316925
                                                         6.104275      -2.364570
                          1       8    5dyz              0.047979       0.001951
                                                         0.139193       0.041808
                                                         0.376911       0.318331
                                                         1.000684      -0.345755
                                                         2.638267      -2.280981
                                                         6.104275      -4.095555
                          1       8    5dz2              0.047979       0.001127
                                                         0.139193       0.024138
                                                         0.376911       0.183788
                                                         1.000684      -0.199622
                                                         2.638267      -1.316925
                                                         6.104275      -2.364570

                          1       9    6dx2              0.047979       0.002077
                                                         0.139193       0.015203
                                                         0.376911       0.196840
                                                         1.000684       0.000000
                                                         2.638267       0.000000
                                                         6.104275       0.000000
                          1       9    6dxy              0.047979       0.003597
                                                         0.139193       0.026332
                                                         0.376911       0.340937
                                                         1.000684       0.000000
                                                         2.638267       0.000000
                                                         6.104275       0.000000
                          1       9    6dxz              0.047979       0.003597
                                                         0.139193       0.026332
                                                         0.376911       0.340937
                                                         1.000684       0.000000
                                                         2.638267       0.000000
                                                         6.104275       0.000000
                          1       9    6dy2              0.047979       0.002077
                                                         0.139193       0.015203
                                                         0.376911       0.196840
                                                         1.000684       0.000000
                                                         2.638267       0.000000
                                                         6.104275       0.000000
                          1       9    6dyz              0.047979       0.003597
                                                         0.139193       0.026332
                                                         0.376911       0.340937
                                                         1.000684       0.000000
                                                         2.638267       0.000000
                                                         6.104275       0.000000
                          1       9    6dz2              0.047979       0.002077
                                                         0.139193       0.015203
                                                         0.376911       0.196840
                                                         1.000684       0.000000
                                                         2.638267       0.000000
                                                         6.104275       0.000000

                          1      10    5fx3              0.047979       0.000291
                                                         0.139193       0.009474
                                                         0.376911       0.071793
                                                         1.000684       0.131964
                                                         2.638267       0.062463
                                                         6.104275      -0.134501
                          1      10    5fx2y             0.047979       0.000650
                                                         0.139193       0.021185
                                                         0.376911       0.160535
                                                         1.000684       0.295080
                                                         2.638267       0.139671
                                                         6.104275      -0.300754
                          1      10    5fx2z             0.047979       0.000650
                                                         0.139193       0.021185
                                                         0.376911       0.160535
                                                         1.000684       0.295080
                                                         2.638267       0.139671
                                                         6.104275      -0.300754
                          1      10    5fxy2             0.047979       0.000650
                                                         0.139193       0.021185
                                                         0.376911       0.160535
                                                         1.000684       0.295080
                                                         2.638267       0.139671
                                                         6.104275      -0.300754
                          1      10    5fxyz             0.047979       0.001126
                                                         0.139193       0.036694
                                                         0.376911       0.278055
                                                         1.000684       0.511094
                                                         2.638267       0.241918
                                                         6.104275      -0.520922
                          1      10    5fxz2             0.047979       0.000650
                                                         0.139193       0.021185
                                                         0.376911       0.160535
                                                         1.000684       0.295080
                                                         2.638267       0.139671
                                                         6.104275      -0.300754
                          1      10    5fy3              0.047979       0.000291
                                                         0.139193       0.009474
                                                         0.376911       0.071793
                                                         1.000684       0.131964
                                                         2.638267       0.062463
                                                         6.104275      -0.134501
                          1      10    5fy2z             0.047979       0.000650
                                                         0.139193       0.021185
                                                         0.376911       0.160535
                                                         1.000684       0.295080
                                                         2.638267       0.139671
                                                         6.104275      -0.300754
                          1      10    5fyz2             0.047979       0.000650
                                                         0.139193       0.021185
                                                         0.376911       0.160535
                                                         1.000684       0.295080
                                                         2.638267       0.139671
                                                         6.104275      -0.300754
                          1      10    5fz3              0.047979       0.000291
                                                         0.139193       0.009474
                                                         0.376911       0.071793
                                                         1.000684       0.131964
                                                         2.638267       0.062463
                                                         6.104275      -0.134501

                          1      11    6fx3              0.047979       0.000345
                                                         0.139193       0.009450
                                                         0.376911       0.075509
                                                         1.000684       0.000000
                                                         2.638267       0.000000
                                                         6.104275       0.000000
                          1      11    6fx2y             0.047979       0.000771
                                                         0.139193       0.021131
                                                         0.376911       0.168842
                                                         1.000684       0.000000
                                                         2.638267       0.000000
                                                         6.104275       0.000000
                          1      11    6fx2z             0.047979       0.000771
                                                         0.139193       0.021131
                                                         0.376911       0.168842
                                                         1.000684       0.000000
                                                         2.638267       0.000000
                                                         6.104275       0.000000
                          1      11    6fxy2             0.047979       0.000771
                                                         0.139193       0.021131
                                                         0.376911       0.168842
                                                         1.000684       0.000000
                                                         2.638267       0.000000
                                                         6.104275       0.000000
                          1      11    6fxyz             0.047979       0.001336
                                                         0.139193       0.036600
                                                         0.376911       0.292443
                                                         1.000684       0.000000
                                                         2.638267       0.000000
                                                         6.104275       0.000000
                          1      11    6fxz2             0.047979       0.000771
                                                         0.139193       0.021131
                                                         0.376911       0.168842
                                                         1.000684       0.000000
                                                         2.638267       0.000000
                                                         6.104275       0.000000
                          1      11    6fy3              0.047979       0.000345
                                                         0.139193       0.009450
                                                         0.376911       0.075509
                                                         1.000684       0.000000
                                                         2.638267       0.000000
                                                         6.104275       0.000000
                          1      11    6fy2z             0.047979       0.000771
                                                         0.139193       0.021131
                                                         0.376911       0.168842
                                                         1.000684       0.000000
                                                         2.638267       0.000000
                                                         6.104275       0.000000
                          1      11    6fyz2             0.047979       0.000771
                                                         0.139193       0.021131
                                                         0.376911       0.168842
                                                         1.000684       0.000000
                                                         2.638267       0.000000
                                                         6.104275       0.000000
                          1      11    6fz3              0.047979       0.000345
                                                         0.139193       0.009450
                                                         0.376911       0.075509
                                                         1.000684       0.000000
                                                         2.638267       0.000000
                                                         6.104275       0.000000

                          1      12    6gx4              0.047979       0.000034
                                                         0.139193       0.004499
                                                         0.376911       0.002432
                                                         1.000684       0.000000
                                                         2.638267       0.000000
                                                         6.104275       0.000000
                          1      12    6gx3y             0.047979       0.000090
                                                         0.139193       0.011903
                                                         0.376911       0.006435
                                                         1.000684       0.000000
                                                         2.638267       0.000000
                                                         6.104275       0.000000
                          1      12    6gx3z             0.047979       0.000090
                                                         0.139193       0.011903
                                                         0.376911       0.006435
                                                         1.000684       0.000000
                                                         2.638267       0.000000
                                                         6.104275       0.000000
                          1      12    6gx2y2            0.047979       0.000116
                                                         0.139193       0.015366
                                                         0.376911       0.008308
                                                         1.000684       0.000000
                                                         2.638267       0.000000
                                                         6.104275       0.000000
                          1      12    6gx2yz            0.047979       0.000202
                                                         0.139193       0.026615
                                                         0.376911       0.014390
                                                         1.000684       0.000000
                                                         2.638267       0.000000
                                                         6.104275       0.000000
                          1      12    6gx2z2            0.047979       0.000116
                                                         0.139193       0.015366
                                                         0.376911       0.008308
                                                         1.000684       0.000000
                                                         2.638267       0.000000
                                                         6.104275       0.000000
                          1      12    6gxy3             0.047979       0.000090
                                                         0.139193       0.011903
                                                         0.376911       0.006435
                                                         1.000684       0.000000
                                                         2.638267       0.000000
                                                         6.104275       0.000000
                          1      12    6gxy2z            0.047979       0.000202
                                                         0.139193       0.026615
                                                         0.376911       0.014390
                                                         1.000684       0.000000
                                                         2.638267       0.000000
                                                         6.104275       0.000000
                          1      12    6gxyz2            0.047979       0.000202
                                                         0.139193       0.026615
                                                         0.376911       0.014390
                                                         1.000684       0.000000
                                                         2.638267       0.000000
                                                         6.104275       0.000000
                          1      12    6gxz3             0.047979       0.000090
                                                         0.139193       0.011903
                                                         0.376911       0.006435
                                                         1.000684       0.000000
                                                         2.638267       0.000000
                                                         6.104275       0.000000
                          1      12    6gy4              0.047979       0.000034
                                                         0.139193       0.004499
                                                         0.376911       0.002432
                                                         1.000684       0.000000
                                                         2.638267       0.000000
                                                         6.104275       0.000000
                          1      12    6gy3z             0.047979       0.000090
                                                         0.139193       0.011903
                                                         0.376911       0.006435
                                                         1.000684       0.000000
                                                         2.638267       0.000000
                                                         6.104275       0.000000
                          1      12    6gy2z2            0.047979       0.000116
                                                         0.139193       0.015366
                                                         0.376911       0.008308
                                                         1.000684       0.000000
                                                         2.638267       0.000000
                                                         6.104275       0.000000
                          1      12    6gyz3             0.047979       0.000090
                                                         0.139193       0.011903
                                                         0.376911       0.006435
                                                         1.000684       0.000000
                                                         2.638267       0.000000
                                                         6.104275       0.000000
                          1      12    6gz4              0.047979       0.000034
                                                         0.139193       0.004499
                                                         0.376911       0.002432
                                                         1.000684       0.000000
                                                         2.638267       0.000000
                                                         6.104275       0.000000

       Atomic covalent radius [Angstrom]:                                  1.250

       Atomic van der Waals radius [Angstrom]:                             1.390

     GTH Potential information for                                       GTH-PBE

       Description:                       Goedecker-Teter-Hutter pseudopotential
                                           Goedecker et al., PRB 54, 1703 (1996)
                                          Hartwigsen et al., PRB 58, 3641 (1998)
                                                      Krack, TCA 114, 145 (2005)

       Gaussian exponent of the core charge distribution:               1.922338
       Electronic configuration (s p d ...):                           2   0  10

       Parameters of the local part of the GTH pseudopotential:

                          rloc        C1          C2          C3          C4
                        0.510000

       Parameters of the non-local part of the GTH (SOC) pseudopotential:

                   l      r(l)      h(i,j,l)
                                    k(i,j,l)
                   0    0.400316   11.530041   -8.791898    3.145086
                                   -8.791898   16.465775   -8.120578
                                    3.145086   -8.120578    6.445509
                   1    0.543182    2.597195   -0.594263
                                   -0.594263    0.703141
                                    0.100174   -0.106933
                                   -0.106933    0.126525
                   2    0.250959  -14.466958
                                    0.012727


 MOLECULE KIND INFORMATION


 All atoms are their own molecule, skipping detailed information


 TOTAL NUMBERS AND MAXIMUM NUMBERS

  Total number of            - Atomic kinds:                                   1
                             - Atoms:                                          2
                             - Shell sets:                                     2
                             - Shells:                                        24
                             - Primitive Cartesian functions:                 12
                             - Cartesian basis functions:                    130
                             - Spherical basis functions:                    100

  Maximum angular momentum of the orbital basis functions:                     4


 MODULE QUICKSTEP: ATOMIC COORDINATES IN ANGSTROM

   Atom Kind Element         X             Y             Z       Z(eff)     Mass
      1    1 Zn   30      0.000000      0.000000      0.000000  12.0000  65.3800
      2    1 Zn   30      1.330832      0.768356      2.501985  12.0000  65.3800



 SCF PARAMETERS         Density guess:                                    ATOMIC
                        --------------------------------------------------------
                        max_scf:                                             500
                        max_scf_history:                                       0
                        max_diis:                                              4
                        --------------------------------------------------------
                        eps_scf:                                        1.00E-09
                        eps_scf_history:                                0.00E+00
                        eps_diis:                                       1.00E-01
                        eps_eigval:                                     1.00E-05
                        --------------------------------------------------------
                        level_shift [a.u.]:                             0.000000
                        added MOs                                        88    0
                        --------------------------------------------------------
                        Mixing method:                            BROYDEN_MIXING
                                                charge density mixing in g-space
                        --------------------------------------------------------
                        Smear method:                                FERMI_DIRAC
                        Electronic temperature [K]:                        300.0
                        Electronic temperature [a.u.]:                  9.50E-04
                        Accuracy threshold:                             1.00E-10
                        --------------------------------------------------------
                        No outer SCF

 PW_GRID| Information for grid number                                          1
 PW_GRID| Grid distributed over                                     8 processors
 PW_GRID| Real space group dimensions                                     8    1
 PW_GRID| the grid is blocked:                                                NO
 PW_GRID| Cutoff [a.u.]                                                    500.0
 PW_GRID| spherical cutoff:                                                   NO
 PW_GRID|   Bounds   1            -27      26                Points:          54
 PW_GRID|   Bounds   2            -27      26                Points:          54
 PW_GRID|   Bounds   3            -48      47                Points:          96
 PW_GRID| Volume element (a.u.^3)  0.7401E-03     Volume (a.u.^3)       207.1843
 PW_GRID| Grid span                                                    FULLSPACE
 PW_GRID|   Distribution                         Average         Max         Min
 PW_GRID|   G-Vectors                            34992.0       34992       34992
 PW_GRID|   G-Rays                                 648.0         648         648
 PW_GRID|   Real Space Points                    34992.0       36288       31104

 PW_GRID| Information for grid number                                          2
 PW_GRID| Number of the reference grid                                         1
 PW_GRID| Grid distributed over                                     8 processors
 PW_GRID| Real space group dimensions                                     8    1
 PW_GRID| the grid is blocked:                                                NO
 PW_GRID| Cutoff [a.u.]                                                    166.7
 PW_GRID| spherical cutoff:                                                   NO
 PW_GRID|   Bounds   1            -15      14                Points:          30
 PW_GRID|   Bounds   2            -15      14                Points:          30
 PW_GRID|   Bounds   3            -30      29                Points:          60
 PW_GRID| Volume element (a.u.^3)  0.3837E-02     Volume (a.u.^3)       207.1843
 PW_GRID| Grid span                                                    FULLSPACE
 PW_GRID|   Distribution                         Average         Max         Min
 PW_GRID|   G-Vectors                             6750.0        6810        6690
 PW_GRID|   G-Rays                                 225.0         227         223
 PW_GRID|   Real Space Points                     6750.0        7200        5400

 PW_GRID| Information for grid number                                          3
 PW_GRID| Number of the reference grid                                         1
 PW_GRID| Grid distributed over                                     8 processors
 PW_GRID| Real space group dimensions                                     8    1
 PW_GRID| the grid is blocked:                                                NO
 PW_GRID| Cutoff [a.u.]                                                     55.6
 PW_GRID| spherical cutoff:                                                   NO
 PW_GRID|   Bounds   1             -9       8                Points:          18
 PW_GRID|   Bounds   2             -9       8                Points:          18
 PW_GRID|   Bounds   3            -16      15                Points:          32
 PW_GRID| Volume element (a.u.^3)  0.1998E-01     Volume (a.u.^3)       207.1843
 PW_GRID| Grid span                                                    FULLSPACE
 PW_GRID|   Distribution                         Average         Max         Min
 PW_GRID|   G-Vectors                             1296.0        1332        1260
 PW_GRID|   G-Rays                                  72.0          74          70
 PW_GRID|   Real Space Points                     1296.0        1728        1152

 PW_GRID| Information for grid number                                          4
 PW_GRID| Number of the reference grid                                         1
 PW_GRID| Grid distributed over                                     8 processors
 PW_GRID| Real space group dimensions                                     8    1
 PW_GRID| the grid is blocked:                                                NO
 PW_GRID| Cutoff [a.u.]                                                     18.5
 PW_GRID| spherical cutoff:                                                   NO
 PW_GRID|   Bounds   1             -4       4                Points:           9
 PW_GRID|   Bounds   2             -4       4                Points:           9
 PW_GRID|   Bounds   3            -10       9                Points:          20
 PW_GRID| Volume element (a.u.^3)  0.1279         Volume (a.u.^3)       207.1843
 PW_GRID| Grid span                                                    FULLSPACE
 PW_GRID|   Distribution                         Average         Max         Min
 PW_GRID|   G-Vectors                              202.5         234         162
 PW_GRID|   G-Rays                                  22.5          26          18
 PW_GRID|   Real Space Points                      202.5         360         180

 POISSON| Solver                                                        PERIODIC
 POISSON| Periodicity                                                        XYZ

 RS_GRID| Information for grid number                                          1
 RS_GRID|   Bounds   1            -27      26                Points:          54
 RS_GRID|   Bounds   2            -27      26                Points:          54
 RS_GRID|   Bounds   3            -48      47                Points:          96
 RS_GRID| Real space fully replicated
 RS_GRID| Group size                                                           1

 RS_GRID| Information for grid number                                          2
 RS_GRID|   Bounds   1            -15      14                Points:          30
 RS_GRID|   Bounds   2            -15      14                Points:          30
[...]
       1     Zn       1         12.000000                             -0.000000
       2     Zn       1         12.000000                              0.000000
 # Total charge                             24.000000                 -0.000000

 !-----------------------------------------------------------------------------!

 !-----------------------------------------------------------------------------!
                           Hirshfeld Charges

  #Atom  Element  Kind  Ref Charge     Population                    Net charge
      1       Zn     1      12.000         12.000                        -0.000
      2       Zn     1      12.000         12.000                         0.000

  Total Charge                                                           -0.000
 !-----------------------------------------------------------------------------!

 KPOINTS| Band Structure Calculation
 KPOINTS| Number of k-point sets                                               1
 KPOINTS| Number of added MOs/bands                                           -1
 KPOINTS| Number of k-points in set    1                                     148
 KPOINTS| In units of b-vector [2pi/Bohr]
 KPOINTS| Special point     1 not specifi     0.000000     0.000000     0.000000
 KPOINTS| Special point     2 not specifi     0.500000     0.000000     0.000000
 KPOINTS| Special point     3 not specifi     0.333333     0.333333     0.000000
 KPOINTS| Special point     4 not specifi     0.000000     0.000000     0.000000
 KPOINTS| Time for k-point line                                           26.257

 ENERGY| Total FORCE_EVAL ( QS ) energy [hartree]           -121.052425377155245

 -------------------------------------------------------------------------------
 -                                                                             -
 -                                DBCSR STATISTICS                             -
 -                                                                             -
 -------------------------------------------------------------------------------
 COUNTER                                    TOTAL       BLAS       SMM       ACC
 flops inhomo. stacks                           0       0.0%      0.0%      0.0%
 flops total                         0.000000E+00       0.0%      0.0%      0.0%
 flops max/rank                      0.000000E+00       0.0%      0.0%      0.0%
 matmuls inhomo. stacks                         0       0.0%      0.0%      0.0%
 matmuls total                                  0       0.0%      0.0%      0.0%
 number of processed stacks                     0       0.0%      0.0%      0.0%
 average stack size                                     0.0       0.0       0.0
 marketing flops                     0.000000E+00
 -------------------------------------------------------------------------------
 -                                                                             -
 -                      DBCSR MESSAGE PASSING PERFORMANCE                      -
 -                                                                             -
 -------------------------------------------------------------------------------
 ROUTINE             CALLS      AVE VOLUME [Bytes]
 MP_Bcast                1                     12.
 MP_Allreduce           19                     21.
 MP_Alltoall        650904                  15391.
 -------------------------------------------------------------------------------

 -------------------------------------------------------------------------------
 -                                                                             -
 -                                DBM STATISTICS                               -
 -                                                                             -
 -------------------------------------------------------------------------------
    M  x    N  x    K                                          COUNT     PERCENT
 -------------------------------------------------------------------------------

 -------------------------------------------------------------------------------
 -                                                                             -
 -                                GRID STATISTICS                              -
 -                                                                             -
 -------------------------------------------------------------------------------
 LP    KERNEL             BACKEND                              COUNT     PERCENT
 8     collocate general  CPU                                1105156      50.98%
 8     integrate general  CPU                                1062650      49.02%
 0     collocate general  CPU                                      4       0.00%
 0     integrate general  CPU                                      2       0.00%
 -------------------------------------------------------------------------------

 MEMORY| Estimated peak process memory [MiB]                                1995

 -------------------------------------------------------------------------------
 ----                             MULTIGRID INFO                            ----
 -------------------------------------------------------------------------------
 count for grid        1:          71148          cutoff [a.u.]          500.00
 count for grid        2:          60452          cutoff [a.u.]          166.67
 count for grid        3:          51528          cutoff [a.u.]           55.56
 count for grid        4:          49872          cutoff [a.u.]           18.52
 total gridlevel count  :         233000

 -------------------------------------------------------------------------------
 -                                                                             -
 -                         MESSAGE PASSING PERFORMANCE                         -
 -                                                                             -
 -------------------------------------------------------------------------------

 ROUTINE             CALLS      AVE VOLUME [Bytes]
 MP_Group                6
 MP_Bcast           234138                   1538.
 MP_Allreduce       363681                     23.
 MP_Sync                 4
 MP_Alltoall           455                1573988.
 MP_SendRecv           742                  94910.
 MP_ISendRecv          707                  93124.
 MP_Wait            161623
 MP_comm_split           4
 MP_ISend           171404                   2286.
 MP_IRecv           273536                   1435.
 -------------------------------------------------------------------------------


 -------------------------------------------------------------------------------
 -                                                                             -
 -                           R E F E R E N C E S                               -
 -                                                                             -
 -------------------------------------------------------------------------------
 
 CP2K version 2025.1 (Development Version), the CP2K developers group (2025).
 CP2K is freely available from https://www.cp2k.org/ .
 
 T. D. Kuehne, M. Iannuzzi, M. Del Ben, V. V. Rybkin, P. Seewald, F. Stein, T. 
 Laino, R. Z. Khaliullin, O. Schuett, F. Schiffmann, D. Golze, J. Wilhelm, S. 
 Chulkov, M. H. Bani-Hashemian, V. Weber, U. Borstnik, M. Taillefumier, A. S. 
 Jakobovits, A. Lazzaro, H. Pabst, T. Mueller, R. Schade, M. Guidon, S. 
 Andermatt, N. Holmberg, G. K. Schenter, A. Hehn, A. Bussy, F. Belleflamme, G. 
 Tabacchi, A. Gloess, M. Lass, I. Bethune, C. J. Mundy, C. Plessl, M. Watkins, 
 J. VandeVondele, M. Krack, J. Hutter.
 J. Chem. Phys. 152, 194103 (2020).
 CP2K: An electronic structure and molecular dynamics software package - 
 Quickstep: Efficient and accurate electronic structure calculations.
 https://doi.org/10.1063/5.0007045

 O. Schuett, P. Messmer, J. Hutter, J. VandeVondele.
 Electronic Structure Calculations on Graphics Processing Units, 173-190 (2016).
 GPU-Accelerated Sparse Matrix-Matrix Multiplication for Linear Scaling Density 
 Functional Theory.
 https://doi.org/10.1002/9781118670712.ch8

 J. Hutter, M. Iannuzzi, F. Schiffmann, J. VandeVondele.
 WIREs Comput Mol Sci. 4, 15-25 (2014).
 CP2K: atomistic simulations of condensed matter systems.
 https://doi.org/10.1002/wcms.1159

 U. Borstnik, J. VandeVondele, V. Weber, J. Hutter.
 Parallel Comput. 40, 47-58 (2014).
 Sparse matrix multiplication: The distributed block-compressed sparse row 
 library.
 https://doi.org/10.1016/j.parco.2014.03.012

 J. VandeVondele, J. Hutter.
 J. Chem. Phys. 127, 114105 (2007).
 Gaussian basis sets for accurate calculations on molecular systems in gas and 
 condensed phases.
 https://doi.org/10.1063/1.2770708

 J. VandeVondele, M. Krack, F. Mohamed, M. Parrinello, T. Chassaing, J. Hutter.
 Comput. Phys. Commun. 167, 103-128 (2005).
 QUICKSTEP: Fast and accurate density functional calculations using a mixed 
 Gaussian and plane waves approach.
 https://doi.org/10.1016/j.cpc.2004.12.014

 M. Krack.
 Theor. Chem. Acc. 114, 145-152 (2005).
 Pseudopotentials for H to Kr optimized for gradient-corrected 
 exchange-correlation functionals.
 https://doi.org/10.1007/s00214-005-0655-y

 M. Frigo, S. G. Johnson.
 Proc. IEEE 93, 216-231 (2005).
 The design and implementation of FFTW3.
 https://doi.org/10.1109/JPROC.2004.840301

 C. Hartwigsen, S. Goedecker, J. Hutter.
 Phys. Rev. B 58, 3641-3662 (1998).
 Relativistic separable dual-space Gaussian pseudopotentials from H to Rn.
 https://doi.org/10.1103/PhysRevB.58.3641

 G. Lippert, J. Hutter, M. Parrinello.
 Mol. Phys. 92, 477-487 (1997).
 A hybrid Gaussian and plane wave density functional scheme.
 https://doi.org/10.1080/002689797170220

 S. Goedecker, M. Teter, J. Hutter.
 Phys. Rev. B 54, 1703-1710 (1996).
 Separable dual-space Gaussian pseudopotentials.
 https://doi.org/10.1103/PhysRevB.54.1703

 J. P. Perdew, K. Burke, M. Ernzerhof.
 Phys. Rev. Lett. 77, 3865-3868 (1996).
 Generalized gradient approximation made simple.
 https://doi.org/10.1103/PhysRevLett.77.3865


 -------------------------------------------------------------------------------
 -                                                                             -
 -                                T I M I N G                                  -
 -                                                                             -
 -------------------------------------------------------------------------------
 SUBROUTINE                       CALLS  ASD         SELF TIME        TOTAL TIME
                                MAXIMUM       AVERAGE  MAXIMUM  AVERAGE  MAXIMUM
 CP2K                                 1  1.0    0.033    0.035 1907.929 1907.929
 qs_energies                          1  2.0    0.021    0.060 1907.666 1907.692
 scf_env_do_scf                       1  3.0    0.000    0.000 1859.273 1859.273
 scf_env_do_scf_inner_loop           25  4.0    0.104    0.111 1859.273 1859.273
 do_general_diag_kp                  26  5.9    0.152    0.203 1766.198 1783.645
 qs_scf_new_mos_kp                   25  5.0    0.000    0.000 1740.084 1757.513
 mp_alltoall_i22                 110716  8.7 1423.027 1750.097 1423.027 1750.097
 dbcsr_desymmetrize_deep          62054  7.4    1.028    1.638  993.658 1220.623
 rskp_transform                   13096  6.9  208.498 1116.049  208.498 1116.049
 dbcsr_complete_redistribute      48662  8.0    1.830    2.375  452.002  551.947
 kpoint_density_transform            25  7.0    0.128    0.163  543.200  544.893
 copy_fm_to_dbcsr                 12800  8.0    0.078    0.096  439.903  539.506
 transform_dmat                    6400  8.0   99.971  536.030   99.971  536.030
 qs_ks_update_qs_env                 25  5.0    0.000    0.000   25.025  102.317
 rebuild_ks_matrix                   25  6.0    0.000    0.000   19.598   96.891
 qs_ks_build_kohn_sham_matrix        25  7.0    0.199    0.209   19.598   96.890
 sum_up_and_integrate                25  8.0    0.000    0.000   18.148   95.237
 integrate_v_rspace                  25  9.0    0.260    1.390   18.147   95.236
 grid_integrate_task_list            25 10.0   17.559   93.719   17.559   93.719
 transfer_rs2pw                     106  8.0    0.001    0.002   75.510   92.930
 transfer_rs2pw_500                  28  8.9    0.030    0.034   75.482   92.899
 mp_sendrecv_dv                     742 10.0   75.471   92.890   75.471   92.890
 qs_rho_update_rho_low               26  5.0    0.000    0.000   82.658   82.710
 calculate_rho_elec                  26  6.0    0.031    0.130   82.657   82.710
 density_rs2pw                       26  7.0    0.001    0.001   67.207   82.653
 grid_collocate_task_list            26  7.0   15.418   82.174   15.418   82.174
 copy_dbcsr_to_fm                 35862  6.7    0.380    0.424   21.599   22.119
 cp_dbcsr_alloc_block_from_nbl    33997  5.0    2.408   12.520    2.667   13.754
 qs_energies_init_hamiltonians        1  3.0    0.000    0.000   12.828   12.828
 build_core_hamiltonian_matrix        1  4.0    0.017    0.018    2.210   10.578
 qs_env_update_s_mstruct              1  4.0    0.000    0.000    8.822   10.405
 calculate_rho_core                   1  5.0    0.001    0.002    8.378   10.355
 mp_sum_d                        242365  9.0    8.083    9.699    8.083    9.699
 dbcsr_dot                       241751  8.0    1.378    3.388    8.450    9.192
 write_kpoints_restart               25  5.0    0.060    0.070    8.314    8.315
 init_scf_run                         1  3.0    0.000    0.000    6.346    7.080
 scf_env_initial_rho_setup            1  4.0    0.000    0.000    6.346    7.080
 mp_alltoall_d11v                332148  9.2    5.346    5.723    5.346    5.723
 cp_fm_start_copy_general         38992  7.3    0.860    1.124    5.468    5.634
 self_consistency_check              25  5.0    0.172    0.178    5.116    5.507
 cp_cfm_geeig_canon                 837  6.9    0.008    0.009    5.388    5.456
 evaluate_core_matrix_traces         25  6.0    0.000    0.000    5.426    5.426
 calculate_ptrace_kp                 50  7.0    0.179    0.185    5.426    5.426
 cp_sm_mix                       120875  6.0    0.520    1.614    4.678    5.187
 dbcsr_finalize                  188380  7.6    0.705    0.816    4.696    4.975
 cp_cfm_heevd                      1674  7.9    0.002    0.003    4.844    4.911
 cp_cfm_heevd_base                 1674  8.9    4.841    4.908    4.841    4.908
 mp_max_d                        120877  7.0    3.865    4.629    3.865    4.629
 mixing_allocate                      1  3.0    0.028    0.030    0.834    4.018
 calculate_first_density_matrix       1  5.0    0.003    0.003    3.221    3.955
 calculate_atomic_block_dm            1  6.0    0.001    0.001    3.207    3.946
 dbcsr_create_new                435152  7.6    2.626    3.428    2.893    3.737
 build_core_ppnl                      1  5.0    0.730    3.681    0.730    3.681
 hybrid_alltoall_any              62054  8.4    0.257    0.281    3.423    3.636
 mp_allgather_i                   77984  8.3    3.102    3.325    3.102    3.325
 cp_fm_write_unformatted           9670  6.0    2.060    2.840    2.330    3.134
 mp_cart_sub                      71726  8.7    3.076    3.101    3.076    3.101
 dbcsr_merge_all                  48662 10.0    1.850    2.109    2.838    3.048
 dbcsr_copy                      259385  6.6    1.484    1.823    2.114    2.661
 build_overlap_matrix_low             1  5.0    0.104    0.432    0.500    2.408
 build_kinetic_matrix_low             1  5.0    0.097    0.388    0.493    2.363
 mp_alltoall_i11v                208040  8.8    2.137    2.307    2.137    2.307
 calculate_ecore_overlap              1  4.0    0.000    0.000    1.709    2.103
 qs_env_rebuild_rho                   1  5.0    0.000    0.000    0.416    2.003
 qs_rho_rebuild                       1  6.0    0.014    0.015    0.416    2.003
 mp_sum_iv                           24  5.3    1.589    1.956    1.589    1.956
 qs_scf_ensure_work_matrices          1  3.0    0.000    0.000    1.589    1.956
 mp_cart_create                   35869  8.7    1.822    1.903    1.822    1.903
 dbcsr_set                       345715  7.1    0.301    0.323    0.683    1.839
 dbcsr_zero                      345715  8.1    0.382    1.516    0.382    1.516
 copy_fm_to_dbcsr_bc              12800  9.0    0.180    0.213    0.761    1.407
 dbcsr_iterator_start            672827  8.6    1.118    1.167    1.288    1.323
 dbcsr_reserve_blocks             46797  7.4    0.306    1.281    0.325    1.321
 dbcsr_work_create               110716  8.7    0.688    0.780    1.120    1.288
 mp_bcast_iv                     155992  8.3    0.960    1.093    0.960    1.093
 mp_send_dv                        9670  7.0    0.234    0.929    0.234    0.929
 kpoint_set_mo_occupation            25  7.0    0.773    0.781    0.840    0.927
 dbcsr_iterator_stop             672827  8.6    0.722    0.737    0.860    0.880
 dbcsr_data_new                 1242089  9.4    0.716    0.870    0.716    0.870
 dbcsr_work_destroy_all          110716  9.7    0.537    0.545    0.846    0.870
 copy_dbcsr_to_fm_bc              35862  7.7    0.381    0.407    0.839    0.862
 tree_to_linear_d                 48662 11.0    0.757    0.844    0.757    0.844
 dbcsr_data_release             2039024  9.8    0.714    0.799    0.714    0.799
 fft_wrap_pw1pw2                    455 10.0    0.004    0.004    0.559    0.638
 dbcsr_destroy                   193402  7.2    0.314    0.347    0.561    0.635
 fft_wrap_pw1pw2_500                302 11.3    0.019    0.020    0.524    0.601
 cp_fm_finish_copy_general        16148  7.8    0.518    0.536    0.545    0.588
 fft3d_ps                           455 12.0    0.107    0.112    0.497    0.578
 kpoint_density_matrices             25  7.0    0.017    0.018    0.449    0.555
 parallel_gemm_fm                  3200  8.0    0.003    0.003    0.421    0.526
 parallel_gemm_fm_gemm             3200  9.0    0.003    0.003    0.418    0.524
 cp_fm_gemm                        3200 10.0    0.415    0.521    0.415    0.521
 cp_cfm_gemm                       2511  7.9    0.504    0.508    0.504    0.508
 mp_alltoall_z22v                   455 14.0    0.358    0.437    0.358    0.437
 dbcsr_copy_into_existing         17635  8.9    0.136    0.306    0.235    0.413
 potential_pw2rs                     25 10.0    0.001    0.001    0.328    0.408
 quick_finalize                   62054  9.4    0.162    0.208    0.269    0.364
 yz_to_x                            205 12.8    0.009    0.010    0.283    0.363
 mp_bcast_im                      77984  8.3    0.292    0.331    0.292    0.331
 mp_comm_free                    107629  8.7    0.259    0.294    0.259    0.294
 mp_recv_dv                       29010  7.0    0.037    0.294    0.037    0.294
 mp_waitall_1                    161623  8.3    0.138    0.277    0.138    0.277
 qs_vxc_create                       25  8.0    0.000    0.000    0.247    0.248
 xc_vxc_pw_create                    25  9.0    0.008    0.008    0.247    0.247
 dbcsr_iterator_seek             672827  9.6    0.171    0.224    0.171    0.224
 dbcsr_make_index_exist          435152  8.6    0.183    0.213    0.183    0.213
 -------------------------------------------------------------------------------

 The number of warnings for this run is : 1
 
 -------------------------------------------------------------------------------
  **** **** ******  **  PROGRAM ENDED AT                 2025-08-04 23:29:33.837
 ***** ** ***  *** **   PROGRAM RAN ON                              i04r11c06s01
 **    ****   ******    PROGRAM RAN BY                                   di38fab
 ***** **    ** ** **   PROGRAM PROCESS ID                               3564911
  **** **  *******  **  PROGRAM STOPPED IN /hppfs/scratch/04/di38fab/09_GTH/Delt
                                           a_Set/Zn/aug-DZVP-MOLOPT-GTH-tier-2/8
                                           x8x8
