Tc                                      
   1.00000000000000     
     2.761870    0.000000    0.000000
     1.380935    2.391850    0.000000
     0.000000    0.000000    4.419050
   Tc
     2
Direct
  0.000000  0.000000  0.000000
  0.333333  0.333333  0.500000
 
   28   28   40
  150.69      155.46      165.24      169.89      161.08      137.69      105.63      73.359      47.302      29.812    
  19.873      14.848      12.183      10.836      10.427      10.836      12.183      14.848      19.873      29.812    
  47.302      73.359      105.63      137.69      161.08      169.89      165.24      155.46      155.46      162.63    
  169.37      166.26      148.77      119.81      87.001      57.894      36.648      23.609      16.714      13.196    
  11.302      10.475      10.475      11.302      13.196      16.714      23.609      36.648      57.894      87.000    
  119.81      148.77      166.26      169.37      162.63      155.46      165.24      169.37      167.52      153.85    
  128.51      97.087      66.911      43.188      27.544      18.747      14.262      11.827      10.597      10.224    
  10.597      11.827      14.262      18.747      27.544      43.188      66.911      97.087      128.50      153.85    
  167.52      169.37      165.24      162.71      169.89      166.26      153.85      131.40      102.39      72.932    
  48.329      31.055      20.725      15.281      12.359      10.767      10.072      10.072      10.767      12.359    
  15.281      20.725      31.055      48.329      72.932      102.39      131.40      153.85      166.26      169.89    
  169.57      169.57      161.08      148.77      128.51      102.39      75.041      51.154      33.489      22.320    
  16.153      12.835      10.949      9.9958      9.7065      9.9958      10.949      12.835      16.153      22.320    
  33.489      51.154      75.042      102.39      128.51      148.77      161.08      166.58      167.95      166.58    
  137.69      119.81      97.087      72.932      51.154      34.359      23.214      16.752      13.192      11.108    
  9.9673      9.4695      9.4695      9.9673      11.108      13.192      16.751      23.214      34.359      51.154    
  72.932      97.088      119.81      137.69      149.15      154.47      154.47      149.16      105.63      87.001    
  66.911      48.329      33.489      23.214      16.966      13.384      11.215      9.9619      9.3279      9.1357    
  9.3279      9.9620      11.215      13.384      16.966      23.214      33.488      48.328      66.911      87.001    
  105.63      120.18      129.19      132.20      129.19      120.18      73.359      57.894      43.188      31.055    
  22.320      16.752      13.384      11.252      9.9632      9.2545      8.9451      8.9451      9.2544      9.9632    
  11.252      13.384      16.752      22.320      31.055      43.188      57.894      73.360      87.308      97.701    
  103.20      103.20      97.701      87.308      47.302      36.648      27.544      20.725      16.153      13.192    
  11.215      9.9632      9.2320      8.8599      8.7470      8.8598      9.2318      9.9630      11.215      13.193    
  16.154      20.726      27.544      36.648      47.302      58.104      67.370      73.592      75.779      73.592    
  67.370      58.104      29.812      23.609      18.747      15.281      12.835      11.108      9.9619      9.2545    
  8.8599      8.6865      8.6865      8.8599      9.2543      9.9616      11.108      12.835      15.281      18.747    
  23.609      29.812      36.769      43.473      48.775      51.701      51.701      48.776      43.474      36.769    
  19.873      16.714      14.262      12.359      10.949      9.9673      9.3279      8.9451      8.7470      8.6865    
  8.7472      8.9453      9.3279      9.9670      10.949      12.359      14.262      16.714      19.873      23.669    
  27.695      31.307      33.822      34.724      33.823      31.308      27.695      23.669      14.848      13.196    
  11.827      10.767      9.9958      9.4695      9.1357      8.9451      8.8598      8.8599      8.9453      9.1361    
  9.4697      9.9958      10.767      11.827      13.195      14.848      16.741      18.817      20.847      22.491    
  23.414      23.414      22.490      20.847      18.817      16.741      12.183      11.302      10.597      10.072    
  9.7065      9.4695      9.3279      9.2544      9.2318      9.2543      9.3279      9.4697      9.7069      10.072    
  10.597      11.302      12.183      13.203      14.286      15.329      16.224      16.839      17.059      16.839    
  16.223      15.329      14.286      13.203      10.836      10.475      10.224      10.072      9.9958      9.9673    
  9.9620      9.9632      9.9630      9.9616      9.9670      9.9958      10.072      10.225      10.476      10.836    
  11.296      11.821      12.357      12.840      13.204      13.399      13.399      13.203      12.840      12.358    
  11.821      11.296      10.427      10.475      10.597      10.767      10.949      11.108      11.215      11.252    
  11.215      11.108      10.949      10.767      10.597      10.476      10.428      10.463      10.572      10.730    
  10.903      11.056      11.160      11.197      11.160      11.057      10.904      10.730      10.572      10.462    
  10.836      11.302      11.827      12.359      12.835      13.192      13.384      13.384      13.193      12.835    
  12.359      11.827      11.302      10.836      10.463      10.192      10.017      9.9186      9.8711      9.8530    
  9.8480      9.8482      9.8533      9.8715      9.9186      10.017      10.192      10.462      12.183      13.196    
  14.262      15.281      16.153      16.751      16.966      16.752      16.154      15.281      14.262      13.195    
  12.183      11.296      10.572      10.017      9.6189      9.3507      9.1847      9.0963      9.0688      9.0964    
  9.1847      9.3505      9.6185      10.017      10.572      11.296      14.848      16.714      18.747      20.725    
  22.320      23.214      23.214      22.320      20.726      18.747      16.714      14.848      13.203      11.821    
  10.730      9.9186      9.3507      8.9810      8.7647      8.6663      8.6662      8.7645      8.9807      9.3504    
  9.9186      10.730      11.821      13.203      19.873      23.609      27.544      31.055      33.489      34.359    
  33.488      31.055      27.544      23.609      19.873      16.741      14.286      12.357      10.903      9.8711    
  9.1847      8.7647      8.5431      8.4744      8.5429      8.7645      9.1847      9.8714      10.904      12.358    
  14.286      16.741      29.812      36.648      43.188      48.329      51.154      51.154      48.328      43.188    
  36.648      29.812      23.669      18.817      15.329      12.840      11.056      9.8530      9.0963      8.6663    
  8.4744      8.4744      8.6663      9.0964      9.8533      11.057      12.840      15.329      18.816      23.669    
  47.302      57.894      66.911      72.932      75.042      72.932      66.911      57.894      47.302      36.769    
  27.695      20.847      16.224      13.204      11.160      9.8480      9.0688      8.6662      8.5429      8.6663    
  9.0690      9.8482      11.160      13.203      16.223      20.847      27.695      36.769      73.359      87.000    
  97.087      102.39      102.39      97.088      87.001      73.360      58.104      43.473      31.307      22.491    
  16.839      13.399      11.197      9.8482      9.0964      8.7645      8.7645      9.0964      9.8482      11.197    
  13.399      16.839      22.491      31.308      43.474      58.105      105.63      119.81      128.50      131.40    
  128.51      119.81      105.63      87.308      67.370      48.775      33.822      23.414      17.059      13.399    
  11.160      9.8533      9.1847      8.9807      9.1847      9.8533      11.160      13.399      17.059      23.414    
  33.822      48.776      67.370      87.308      137.69      148.77      153.85      153.85      148.77      137.69    
  120.18      97.701      73.592      51.701      34.724      23.414      16.839      13.203      11.057      9.8715    
  9.3505      9.3504      9.8714      11.057      13.203      16.839      23.414      34.724      51.701      73.592    
  97.701      120.18      161.08      166.26      167.52      166.26      161.08      149.15      129.19      103.20    
  75.779      51.701      33.823      22.490      16.223      12.840      10.904      9.9186      9.6185      9.9186    
  10.904      12.840      16.223      22.491      33.822      51.701      75.779      103.20      129.19      149.16    
  169.89      169.37      169.37      169.89      166.58      154.47      132.20      103.20      73.592      48.776    
  31.308      20.847      15.329      12.358      10.730      10.017      10.017      10.730      12.358      15.329    
  20.847      31.308      48.776      73.592      103.20      132.20      154.48      166.58      165.24      162.63    
  165.24      169.57      167.95      154.47      129.19      97.701      67.370      43.474      27.695      18.817    
  14.286      11.821      10.572      10.192      10.572      11.821      14.286      18.816      27.695      43.474    
  67.370      97.701      129.19      154.48      167.95      169.57      155.46      155.46      162.71      169.57    
  166.58      149.16      120.18      87.308      58.104      36.769      23.669      16.741      13.203      11.296    
  10.462      10.462      11.296      13.203      16.741      23.669      36.769      58.105      87.308      120.18    
  149.16      166.58      169.57      162.71      156.51      160.29      167.57      169.32      158.31      133.99    
  102.12      70.683      45.582      28.855      19.392      14.592      12.019      10.718      10.323      10.718    
  12.019      14.592      19.392      28.855      45.582      70.684      102.12      133.99      158.31      169.32    
  167.57      160.29      160.29      165.73      169.81      164.25      145.33      116.14      83.947      55.783    
  35.400      22.961      16.393      13.007      11.177      10.377      10.377      11.177      13.007      16.393    
  22.961      35.400      55.783      83.946      116.14      145.33      164.25      169.81      165.73      160.29    
  167.57      169.81      165.82      150.65      124.82      93.808      64.499      41.678      26.724      18.343    
  14.046      11.692      10.501      10.140      10.501      11.692      14.046      18.343      26.724      41.678    
  64.499      93.808      124.82      150.65      165.82      169.81      167.57      165.79      169.32      164.25    
  150.65      127.72      99.017      70.337      46.623      30.085      20.236      15.036      12.212      10.670    
  9.9964      9.9963      10.670      12.212      15.036      20.236      30.085      46.624      70.337      99.017    
  127.72      150.65      164.25      169.32      169.98      169.98      158.31      145.33      124.82      99.017    
  72.385      49.345      32.418      21.762      15.878      12.676      10.849      9.9240      9.6432      9.9238    
  10.849      12.676      15.878      21.762      32.418      49.346      72.386      99.018      124.82      145.33    
  158.31      164.51      166.19      164.52      133.99      116.14      93.808      70.337      49.345      33.253    
  22.617      16.454      13.025      11.004      9.8962      9.4123      9.4122      9.8962      11.004      13.025    
  16.453      22.617      33.253      49.346      70.337      93.809      116.14      133.99      145.65      151.17    
  151.17      145.65      102.12      83.947      64.499      46.623      32.418      22.617      16.659      13.212    
  11.108      9.8901      9.2729      9.0856      9.2728      9.8902      11.108      13.212      16.659      22.617    
  32.418      46.623      64.499      83.947      102.12      116.44      125.38      128.38      125.38      116.44    
  70.683      55.783      41.678      30.085      21.762      16.454      13.212      11.144      9.8906      9.1998    
  8.8976      8.8975      9.1997      9.8907      11.144      13.212      16.454      21.762      30.085      41.677    
  55.782      70.684      84.188      94.298      99.663      99.663      94.297      84.188      45.582      35.400    
  26.724      20.236      15.878      13.025      11.108      9.8906      9.1772      8.8131      8.7023      8.8129    
  9.1770      9.8905      11.108      13.025      15.878      20.237      26.724      35.400      45.581      55.937    
  64.845      70.842      72.953      70.842      64.845      55.937      28.855      22.961      18.343      15.036    
  12.676      11.004      9.8901      9.1998      8.8131      8.6424      8.6424      8.8130      9.1996      9.8899    
  11.004      12.676      15.037      18.343      22.961      28.855      35.477      41.871      46.936      49.735    
  49.735      46.937      41.872      35.477      19.392      16.393      14.046      12.212      10.849      9.8962    
  9.2729      8.8976      8.7023      8.6424      8.7024      8.8978      9.2729      9.8959      10.849      12.212    
  14.046      16.393      19.392      22.988      26.803      30.231      32.619      33.476      32.619      30.231    
  26.804      22.988      14.592      13.007      11.692      10.670      9.9240      9.4123      9.0856      8.8975    
  8.8129      8.8130      8.8978      9.0860      9.4126      9.9239      10.670      11.691      13.007      14.592    
  16.395      18.358      20.276      21.827      22.698      22.698      21.827      20.275      18.358      16.394    
  12.019      11.177      10.501      9.9964      9.6432      9.4122      9.2728      9.1997      9.1770      9.1996    
  9.2729      9.4126      9.6436      9.9967      10.501      11.176      12.019      12.993      14.027      15.019    
  15.865      16.444      16.651      16.444      15.864      15.018      14.027      12.993      10.718      10.377    
  10.140      9.9963      9.9238      9.8962      9.8902      9.8907      9.8905      9.8899      9.8959      9.9239    
  9.9967      10.140      10.378      10.718      11.152      11.649      12.156      12.612      12.956      13.141    
  13.140      12.956      12.612      12.157      11.649      11.153      10.323      10.377      10.501      10.670    
  10.849      11.004      11.108      11.144      11.108      11.004      10.849      10.670      10.501      10.378    
  10.323      10.348      10.444      10.587      10.745      10.885      10.980      11.014      10.981      10.886    
  10.746      10.587      10.444      10.348      10.718      11.177      11.692      12.212      12.676      13.025    
  13.212      13.212      13.025      12.676      12.212      11.691      11.176      10.718      10.348      10.078    
  9.8998      9.7956      9.7422      9.7189      9.7110      9.7112      9.7193      9.7426      9.7957      9.8995    
  10.077      10.348      12.019      13.007      14.046      15.036      15.878      16.453      16.659      16.454    
  15.878      15.037      14.046      13.007      12.019      11.152      10.444      9.8998      9.5067      9.2403    
  9.0740      8.9847      8.9568      8.9848      9.0741      9.2401      9.5062      9.8994      10.444      11.153    
  14.592      16.393      18.343      20.236      21.762      22.617      22.617      21.762      20.237      18.343    
  16.393      14.592      12.993      11.649      10.587      9.7956      9.2403      8.8775      8.6644      8.5671    
  8.5670      8.6642      8.8772      9.2400      9.7955      10.587      11.649      12.994      19.392      22.961    
  26.724      30.085      32.418      33.253      32.418      30.085      26.724      22.961      19.392      16.395    
  14.027      12.156      10.745      9.7422      9.0740      8.6644      8.4477      8.3805      8.4475      8.6641    
  9.0740      9.7424      10.746      12.157      14.027      16.394      28.855      35.400      41.678      46.624    
  49.346      49.346      46.623      41.677      35.400      28.855      22.988      18.358      15.019      12.612    
  10.885      9.7189      8.9847      8.5671      8.3805      8.3805      8.5670      8.9848      9.7192      10.886    
  12.612      15.019      18.358      22.988      45.582      55.783      64.499      70.337      72.386      70.337    
  64.499      55.782      45.581      35.477      26.803      20.276      15.865      12.956      10.980      9.7110    
  8.9568      8.5670      8.4475      8.5670      8.9569      9.7113      10.981      12.956      15.864      20.275    
  26.803      35.477      70.684      83.946      93.808      99.017      99.018      93.809      83.947      70.684    
  55.937      41.871      30.231      21.827      16.444      13.141      11.014      9.7112      8.9848      8.6642    
  8.6641      8.9848      9.7113      11.014      13.140      16.444      21.827      30.231      41.872      55.937    
  102.12      116.14      124.82      127.72      124.82      116.14      102.12      84.188      64.845      46.936    
  32.619      22.698      16.651      13.140      10.981      9.7193      9.0741      8.8772      9.0740      9.7192    
  10.981      13.140      16.651      22.698      32.619      46.937      64.846      84.188      133.99      145.33    
  150.65      150.65      145.33      133.99      116.44      94.298      70.842      49.735      33.476      22.698    
  16.444      12.956      10.886      9.7426      9.2401      9.2400      9.7424      10.886      12.956      16.444    
  22.698      33.476      49.735      70.842      94.297      116.44      158.31      164.25      165.82      164.25    
  158.31      145.65      125.38      99.663      72.953      49.735      32.619      21.827      15.864      12.612    
  10.746      9.7957      9.5062      9.7955      10.746      12.612      15.864      21.827      32.619      49.735    
  72.952      99.662      125.38      145.65      169.32      169.81      169.81      169.32      164.51      151.17    
  128.38      99.663      70.842      46.937      30.231      20.275      15.018      12.157      10.587      9.8995    
  9.8994      10.587      12.157      15.019      20.275      30.231      46.937      70.842      99.662      128.38    
  151.17      164.52      167.57      165.73      167.57      169.98      166.19      151.17      125.38      94.297    
  64.845      41.872      26.804      18.358      14.027      11.649      10.444      10.077      10.444      11.649    
  14.027      18.358      26.803      41.872      64.846      94.297      125.38      151.17      166.19      169.98    
  160.29      160.29      165.79      169.98      164.52      145.65      116.44      84.188      55.937      35.477    
  22.988      16.394      12.993      11.153      10.348      10.348      11.153      12.994      16.394      22.988    
  35.477      55.937      84.188      116.44      145.65      164.52      169.98      165.79      167.17      168.55    
  169.82      164.75      148.83      122.80      92.037      63.197      40.847      26.250      18.084      13.881    
  11.564      10.391      10.034      10.390      11.564      13.881      18.084      26.249      40.847      63.197    
  92.037      122.80      148.83      164.75      169.82      168.55      168.55      169.81      167.60      156.42    
  134.54      105.40      75.311      49.930      31.987      21.204      15.516      12.485      10.832      10.109    
  10.109      10.832      12.485      15.516      21.203      31.986      49.930      75.311      105.40      134.54    
  156.42      167.60      169.82      168.55      169.82      167.60      158.70      140.31      113.87      84.451    
  57.770      37.528      24.495      17.248      13.451      11.322      10.244      9.9163      10.244      11.322    
  13.451      17.248      24.494      37.528      57.770      84.450      113.87      140.31      158.71      167.60    
  169.82      169.85      164.75      156.42      140.31      116.75      89.331      63.063      41.920      27.444    
  18.916      14.369      11.815      10.415      9.8034      9.8031      10.415      11.815      14.369      18.915    
  27.444      41.920      63.063      89.330      116.75      140.31      156.42      164.75      167.69      167.69    
  148.83      134.54      113.87      89.331      64.929      44.348      29.496      20.256      15.136      12.252    
  10.592      9.7495      9.4934      9.7491      10.592      12.252      15.136      20.255      29.497      44.348    
  64.929      89.331      113.87      134.54      148.83      156.55      158.89      156.55      122.80      105.40    
  84.451      63.063      44.348      30.232      21.007      15.654      12.580      10.742      9.7312      9.2890    
  9.2888      9.7310      10.742      12.580      15.654      21.006      30.233      44.348      63.063      84.451    
  105.40      122.80      134.69      140.56      140.56      134.69      92.037      75.311      57.770      41.920    
  29.496      21.007      15.838      12.756      10.841      9.7292      9.1639      8.9920      9.1637      9.7293    
  10.842      12.756      15.838      21.006      29.496      41.920      57.770      75.311      92.037      105.52    
  114.11      117.04      114.11      105.52      63.197      49.930      37.528      27.444      20.256      15.654    
  12.756      10.876      9.7309      9.0973      8.8194      8.8192      9.0971      9.7312      10.876      12.756    
  15.654      20.256      27.443      37.527      49.930      63.197      75.380      84.614      89.559      89.558    
  84.613      75.379      40.847      31.987      24.495      18.916      15.136      12.580      10.841      9.7309    
  9.0765      8.7410      8.6386      8.7407      9.0764      9.7310      10.841      12.580      15.136      18.916    
  24.494      31.986      40.846      49.937      57.821      63.163      65.051      63.163      57.821      49.937    
  26.250      21.204      17.248      14.369      12.252      10.742      9.7292      9.0973      8.7410      8.5829    
  8.5828      8.7408      9.0971      9.7290      10.741      12.252      14.369      17.248      21.204      26.250    
  31.945      37.476      41.880      44.320      44.321      41.880      37.477      31.946      18.084      15.516    
  13.451      11.815      10.592      9.7312      9.1639      8.8194      8.6386      8.5828      8.6386      8.8194    
  9.1639      9.7309      10.591      11.814      13.451      15.516      18.084      21.139      24.380      27.300    
  29.340      30.073      29.341      27.301      24.380      21.138      13.881      12.485      11.322      10.415    
  9.7495      9.2890      8.9920      8.8192      8.7407      8.7408      8.8194      8.9924      9.2892      9.7492    
  10.415      11.322      12.485      13.881      15.444      17.110      18.723      20.026      20.758      20.758    
  20.026      18.723      17.109      15.443      11.564      10.832      10.244      9.8034      9.4934      9.2888    
  9.1637      9.0971      9.0764      9.0971      9.1639      9.2892      9.4938      9.8035      10.244      10.831    
  11.563      12.409      13.305      14.161      14.878      15.364      15.537      15.364      14.878      14.160    
  13.305      12.409      10.391      10.109      9.9163      9.8031      9.7491      9.7310      9.7293      9.7312    
  9.7310      9.7290      9.7309      9.7492      9.8035      9.9168      10.109      10.390      10.753      11.169    
  11.595      11.978      12.267      12.422      12.422      12.267      11.978      11.595      11.169      10.753    
  10.034      10.109      10.244      10.415      10.592      10.742      10.842      10.876      10.841      10.741    
  10.591      10.415      10.244      10.109      10.034      10.029      10.086      10.186      10.303      10.407    
  10.479      10.504      10.479      10.407      10.303      10.187      10.086      10.028      10.390      10.832    
  11.322      11.815      12.252      12.580      12.756      12.756      12.580      12.252      11.814      11.322    
  10.831      10.390      10.029      9.7568      9.5691      9.4499      9.3800      9.3427      9.3268      9.3269    
  9.3431      9.3804      9.4501      9.5690      9.7563      10.028      11.564      12.485      13.451      14.369    
  15.136      15.654      15.838      15.654      15.136      14.369      13.451      12.485      11.563      10.753    
  10.086      9.5691      9.1905      8.9291      8.7620      8.6702      8.6412      8.6704      8.7622      8.9289    
  9.1901      9.5687      10.086      10.753      13.881      15.516      17.248      18.915      20.255      21.006    
  21.006      20.256      18.916      17.248      15.516      13.881      12.409      11.169      10.186      9.4499    
  8.9291      8.5851      8.3806      8.2864      8.2864      8.3805      8.5848      8.9287      9.4497      10.186    
  11.169      12.409      18.084      21.203      24.494      27.444      29.497      30.233      29.496      27.443    
  24.494      21.204      18.084      15.444      13.305      11.595      10.303      9.3800      8.7620      8.3806    
  8.1777      8.1144      8.1775      8.3804      8.7619      9.3801      10.303      11.596      13.305      15.444    
  26.249      31.986      37.528      41.920      44.348      44.348      41.920      37.527      31.986      26.250    
  21.139      17.110      14.161      11.978      10.407      9.3427      8.6702      8.2864      8.1144      8.1143    
  8.2863      8.6704      9.3430      10.407      11.979      14.161      17.109      21.138      40.847      49.930    
  57.770      63.063      64.929      63.063      57.770      49.930      40.846      31.945      24.380      18.723    
  14.878      12.267      10.479      9.3268      8.6412      8.2864      8.1775      8.2863      8.6413      9.3271    
  10.479      12.267      14.878      18.723      24.380      31.945      63.197      75.311      84.450      89.330    
  89.331      84.451      75.311      63.197      49.937      37.476      27.300      20.026      15.364      12.422    
  10.504      9.3269      8.6704      8.3805      8.3804      8.6704      9.3271      10.504      12.422      15.364    
  20.026      27.300      37.477      49.937      92.037      105.40      113.87      116.75      113.87      105.40    
  92.037      75.380      57.821      41.880      29.340      20.758      15.537      12.422      10.479      9.3431    
  8.7622      8.5848      8.7619      9.3430      10.479      12.422      15.536      20.758      29.341      41.880    
  57.821      75.380      122.80      134.54      140.31      140.31      134.54      122.80      105.52      84.614    
  63.163      44.320      30.073      20.758      15.364      12.267      10.407      9.3804      8.9289      8.9287    
  9.3801      10.407      12.267      15.364      20.758      30.074      44.321      63.163      84.613      105.52    
  148.83      156.42      158.71      156.42      148.83      134.69      114.11      89.559      65.051      44.321    
  29.341      20.026      14.878      11.978      10.303      9.4501      9.1901      9.4497      10.303      11.979    
  14.878      20.026      29.341      44.321      65.050      89.558      114.11      134.69      164.75      167.60    
  167.60      164.75      156.55      140.56      117.04      89.558      63.163      41.880      27.301      18.723    
  14.160      11.595      10.187      9.5690      9.5687      10.186      11.596      14.161      18.723      27.300    
  41.880      63.163      89.558      117.04      140.56      156.55      169.82      169.82      169.82      167.69    
  158.89      140.56      114.11      84.613      57.821      37.477      24.380      17.109      13.305      11.169    
  10.086      9.7563      10.086      11.169      13.305      17.109      24.380      37.477      57.821      84.613    
  114.11      140.56      158.89      167.69      168.55      168.55      169.85      167.69      156.55      134.69    
  105.52      75.379      49.937      31.946      21.138      15.443      12.409      10.753      10.028      10.028    
  10.753      12.409      15.444      21.138      31.945      49.937      75.380      105.52      134.69      156.55    
  167.69      169.85      168.51      167.38      162.48      150.80      130.87      104.68      76.900      52.439    
  34.239      22.683      16.290      12.862      10.912      9.9225      9.6214      9.9219      10.912      12.862    
  16.290      22.683      34.239      52.440      76.901      104.68      130.87      150.80      162.48      167.38    
  167.38      164.34      155.87      139.68      116.13      88.805      62.672      41.657      27.277      18.808    
  14.288      11.741      10.345      9.7331      9.7327      10.344      11.742      14.288      18.808      27.276    
  41.657      62.672      88.805      116.13      139.68      155.87      164.34      167.38      162.48      155.87    
  142.55      122.02      96.570      70.542      48.149      31.754      21.451      15.748      12.608      10.807    
  9.8923      9.6139      9.8917      10.807      12.609      15.748      21.451      31.754      48.149      70.542    
  96.569      122.02      142.55      155.87      162.48      164.34      150.80      139.68      122.02      99.254    
  74.802      52.580      35.333      23.824      17.122      13.430      11.266      10.077      9.5561      9.5557    