Tc                                      
   1.00000000000000     
     2.761870    0.000000    0.000000
     1.380935    2.391850    0.000000
     0.000000    0.000000    4.419050
   Tc
     2
Direct
  0.000000  0.000000  0.000000
  0.333333  0.333333  0.500000
 
   28   28   40
 0.15069155633E+03 0.15545961846E+03 0.16523679049E+03 0.16988758158E+03 0.16108009608E+03
 0.13769332032E+03 0.10562718273E+03 0.73359444605E+02 0.47301955208E+02 0.29812140232E+02
 0.19872868555E+02 0.14847858148E+02 0.12183132673E+02 0.10836113021E+02 0.10427082675E+02
 0.10836100288E+02 0.12183127880E+02 0.14847869511E+02 0.19872877773E+02 0.29812130568E+02
 0.47301939110E+02 0.73359447567E+02 0.10562720623E+03 0.13769333869E+03 0.16108009140E+03
 0.16988756525E+03 0.16523678275E+03 0.15545962049E+03 0.15545961846E+03 0.16262994743E+03
 0.16937025439E+03 0.16626023621E+03 0.14877389579E+03 0.11980882973E+03 0.87000754841E+02
 0.57894074498E+02 0.36648198733E+02 0.23608631800E+02 0.16714017877E+02 0.13195860789E+02
 0.11302164278E+02 0.10475308614E+02 0.10475312225E+02 0.11302170375E+02 0.13195878479E+02
 0.16714085685E+02 0.23608756563E+02 0.36648273559E+02 0.57893916413E+02 0.87000292419E+02
 0.11980826863E+03 0.14877364964E+03 0.16626061782E+03 0.16937117543E+03 0.16263090658E+03
 0.15546002490E+03 0.16523679049E+03 0.16937025439E+03 0.16751579520E+03 0.15385438578E+03
 0.12850509134E+03 0.97087244182E+02 0.66911471682E+02 0.43188219451E+02 0.27544048773E+02
 0.18746728103E+02 0.14261549575E+02 0.11827387246E+02 0.10597290285E+02 0.10223959380E+02
 0.10597290718E+02 0.11827372112E+02 0.14261548309E+02 0.18746812361E+02 0.27544219149E+02
 0.43188323104E+02 0.66911307484E+02 0.97086795197E+02 0.12850463395E+03 0.15385431258E+03
 0.16751627818E+03 0.16937105338E+03 0.16523739458E+03 0.16270757941E+03 0.16988758158E+03
 0.16626023621E+03 0.15385438578E+03 0.13139697064E+03 0.10239245053E+03 0.72932053188E+02
 0.48328897311E+02 0.31055122927E+02 0.20725338358E+02 0.15280958087E+02 0.12359380525E+02
 0.10767134984E+02 0.10071964966E+02 0.10071956425E+02 0.10767104955E+02 0.12359326020E+02
 0.15280899463E+02 0.20725328858E+02 0.31055222054E+02 0.48329114554E+02 0.72932309164E+02
 0.10239260436E+03 0.13139690764E+03 0.15385409955E+03 0.16625984029E+03 0.16988724723E+03
 0.16956935254E+03 0.16956948213E+03 0.16108009608E+03 0.14877389579E+03 0.12850509134E+03
 0.10239245053E+03 0.75041466009E+02 0.51154020204E+02 0.33488576006E+02 0.22320256935E+02
 0.16153092787E+02 0.12834927675E+02 0.10949326311E+02 0.99957580291E+01 0.97065034883E+01
 0.99957640735E+01 0.10949320658E+02 0.12834862861E+02 0.16152933700E+02 0.22320073787E+02
 0.33488564889E+02 0.51154354507E+02 0.75042075734E+02 0.10239296552E+03 0.12850507211E+03
 0.14877319742E+03 0.16107905071E+03 0.16657502121E+03 0.16795316600E+03 0.16657578798E+03
 0.13769332032E+03 0.11980882973E+03 0.97087244182E+02 0.72932053188E+02 0.51154020204E+02
 0.34359076926E+02 0.23213794470E+02 0.16751600916E+02 0.13192473981E+02 0.11107995774E+02
 0.99672636707E+01 0.94694779953E+01 0.94695014243E+01 0.99673275501E+01 0.11108062121E+02
 0.13192460284E+02 0.16751437261E+02 0.23213524500E+02 0.34358882791E+02 0.51154093314E+02
 0.72932398746E+02 0.97087620174E+02 0.11980892525E+03 0.13769303825E+03 0.14915466181E+03
 0.15447473216E+03 0.15447493433E+03 0.14915508980E+03 0.10562718273E+03 0.87000754841E+02
 0.66911471682E+02 0.48328897311E+02 0.33488576006E+02 0.23213794470E+02 0.16965583416E+02
 0.13384126158E+02 0.11214648372E+02 0.99619450296E+01 0.93278844595E+01 0.91357476698E+01
 0.93279012720E+01 0.99620216171E+01 0.11214801670E+02 0.13384282287E+02 0.16965596732E+02
 0.23213557410E+02 0.33488134939E+02 0.48328466360E+02 0.66911313560E+02 0.87001009892E+02
 0.10562777104E+03 0.12018431071E+03 0.12918799333E+03 0.13219839166E+03 0.12918756480E+03
 0.12018365038E+03 0.73359444605E+02 0.57894074498E+02 0.43188219451E+02 0.31055122927E+02
 0.22320256935E+02 0.16751600916E+02 0.13384126158E+02 0.11252052769E+02 0.99632018529E+01
 0.92545034105E+01 0.89451191640E+01 0.89450792002E+01 0.92544315331E+01 0.99632081720E+01
 0.11252222495E+02 0.13384426396E+02 0.16751853040E+02 0.22320229815E+02 0.31054719459E+02
 0.43187620977E+02 0.57893684537E+02 0.73359610212E+02 0.87308256081E+02 0.97701473681E+02
 0.10319824092E+03 0.10319788640E+03 0.97700664111E+02 0.87307550969E+02 0.47301955208E+02
 0.36648198733E+02 0.27544048773E+02 0.20725338358E+02 0.16153092787E+02 0.13192473981E+02
 0.11214648372E+02 0.99632018529E+01 0.92319940495E+01 0.88599288185E+01 0.87470238733E+01
 0.88598365855E+01 0.92318258964E+01 0.99630418699E+01 0.11214646886E+02 0.13192732259E+02
 0.16153526447E+02 0.20725685031E+02 0.27544062770E+02 0.36647869059E+02 0.47301526128E+02
 0.58104090063E+02 0.67369644330E+02 0.73591997953E+02 0.75779117234E+02 0.73591892745E+02
 0.67369630921E+02 0.58104335173E+02 0.29812140232E+02 0.23608631800E+02 0.18746728103E+02
 0.15280958087E+02 0.12834927675E+02 0.11107995774E+02 0.99619450296E+01 0.92545034105E+01
 0.88599288185E+01 0.86864758107E+01 0.86864920969E+01 0.88599102326E+01 0.92543364259E+01
 0.99616365054E+01 0.11107728692E+02 0.12834934103E+02 0.15281322556E+02 0.18747294965E+02
 0.23609088160E+02 0.29812205704E+02 0.36769036541E+02 0.43473352262E+02 0.48775214479E+02
 0.51700905278E+02 0.51701165211E+02 0.48775858565E+02 0.43474049122E+02 0.36769440646E+02
 0.19872868555E+02 0.16714017877E+02 0.14261549575E+02 0.12359380525E+02 0.10949326311E+02
 0.99672636707E+01 0.93278844595E+01 0.89451191640E+01 0.87470238733E+01 0.86864920969E+01
 0.87471871042E+01 0.89453028324E+01 0.93278949844E+01 0.99669971359E+01 0.10948874577E+02
 0.12359013417E+02 0.14261545915E+02 0.16714439692E+02 0.19873461572E+02 0.23669326447E+02
 0.27694807979E+02 0.31307211242E+02 0.33822054315E+02 0.34724039791E+02 0.33822510284E+02
 0.31307738723E+02 0.27694966297E+02 0.23668980376E+02 0.14847858148E+02 0.13195860789E+02
 0.11827387246E+02 0.10767134984E+02 0.99957580291E+01 0.94694779953E+01 0.91357476698E+01
 0.89450792002E+01 0.88598365855E+01 0.88599102326E+01 0.89453028324E+01 0.91360762301E+01
 0.94697487572E+01 0.99957514869E+01 0.10766762735E+02 0.11826822001E+02 0.13195444039E+02
 0.14847841328E+02 0.16741271431E+02 0.18816990030E+02 0.20847440247E+02 0.22490560252E+02
 0.23413555184E+02 0.23413523766E+02 0.22490409744E+02 0.20847093466E+02 0.18816515193E+02
 0.16740916079E+02 0.12183132673E+02 0.11302164278E+02 0.10597290285E+02 0.10071964966E+02
 0.97065034883E+01 0.94695014243E+01 0.93279012720E+01 0.92544315331E+01 0.92318258964E+01
 0.92543364259E+01 0.93278949844E+01 0.94697487572E+01 0.97069488537E+01 0.10072334324E+02
 0.10597299573E+02 0.11301750710E+02 0.12182518832E+02 0.13202724677E+02 0.14286477811E+02
 0.15329055030E+02 0.16223912421E+02 0.16839220091E+02 0.17059300681E+02 0.16838779941E+02
 0.16223292842E+02 0.15328623655E+02 0.14286491260E+02 0.13203173938E+02 0.10836113021E+02
 0.10475308614E+02 0.10223959380E+02 0.10071956425E+02 0.99957640735E+01 0.99673275501E+01
 0.99620216171E+01 0.99632081720E+01 0.99630418699E+01 0.99616365054E+01 0.99669971359E+01
 0.99957514869E+01 0.10072334324E+02 0.10224536014E+02 0.10475731578E+02 0.10836106743E+02
 0.11295566754E+02 0.11820641552E+02 0.12357229863E+02 0.12839616678E+02 0.13203522673E+02
 0.13398884094E+02 0.13398738177E+02 0.13203244014E+02 0.12839533199E+02 0.12357529248E+02
 0.11821185826E+02 0.11295992396E+02 0.10427082675E+02 0.10475312225E+02 0.10597290718E+02
 0.10767104955E+02 0.10949320658E+02 0.11108062121E+02 0.11214801670E+02 0.11252222495E+02
 0.11214646886E+02 0.11107728692E+02 0.10948874577E+02 0.10766762735E+02 0.10597299573E+02
 0.10475731578E+02 0.10427687832E+02 0.10462629585E+02 0.10571661870E+02 0.10729998763E+02
 0.10903347337E+02 0.11056348822E+02 0.11160161291E+02 0.11196809180E+02 0.11160329463E+02
 0.11056697493E+02 0.10903798466E+02 0.10730333377E+02 0.10571639822E+02 0.10462200817E+02
 0.10836100288E+02 0.11302170375E+02 0.11827372112E+02 0.12359326020E+02 0.12834862861E+02
 0.13192460284E+02 0.13384282287E+02 0.13384426396E+02 0.13192732259E+02 0.12834934103E+02
 0.12359013417E+02 0.11826822001E+02 0.11301750710E+02 0.10836106743E+02 0.10462629585E+02
 0.10192286392E+02 0.10017495430E+02 0.99185568072E+01 0.98711442022E+01 0.98529565395E+01
 0.98479976323E+01 0.98481622787E+01 0.98533398780E+01 0.98714785865E+01 0.99185803183E+01
 0.10017128909E+02 0.10191712540E+02 0.10462198087E+02 0.12183127880E+02 0.13195878479E+02
 0.14261548309E+02 0.15280899463E+02 0.16152933700E+02 0.16751437261E+02 0.16965596732E+02
 0.16751853040E+02 0.16153526447E+02 0.15281322556E+02 0.14261545915E+02 0.13195444039E+02
 0.12182518832E+02 0.11295566754E+02 0.10571661870E+02 0.10017495430E+02 0.96189294922E+01
 0.93507151664E+01 0.91847084433E+01 0.90962697839E+01 0.90687897046E+01 0.90963567506E+01
 0.91847056392E+01 0.93504649719E+01 0.96184893360E+01 0.10017136911E+02 0.10571664661E+02
 0.11295987150E+02 0.14847869511E+02 0.16714085685E+02 0.18746812361E+02 0.20725328858E+02
 0.22320073787E+02 0.23213524500E+02 0.23213557410E+02 0.22320229815E+02 0.20725685031E+02
 0.18747294965E+02 0.16714439692E+02 0.14847841328E+02 0.13202724677E+02 0.11820641552E+02
 0.10729998763E+02 0.99185568072E+01 0.93507151664E+01 0.89810320260E+01 0.87647166630E+01
 0.86662994417E+01 0.86662289064E+01 0.87644995955E+01 0.89807071282E+01 0.93504404612E+01
 0.99185539641E+01 0.10730364801E+02 0.11821211107E+02 0.13203154332E+02 0.19872877773E+02
 0.23608756563E+02 0.27544219149E+02 0.31055222054E+02 0.33488564889E+02 0.34358882791E+02
 0.33488134939E+02 0.31054719459E+02 0.27544062770E+02 0.23609088160E+02 0.19873461572E+02
 0.16741271431E+02 0.14286477811E+02 0.12357229863E+02 0.10903347337E+02 0.98711442022E+01
 0.91847084433E+01 0.87647166630E+01 0.85430897165E+01 0.84744308852E+01 0.85429342509E+01
 0.87645403203E+01 0.91846997218E+01 0.98714096017E+01 0.10903797013E+02 0.12357590548E+02
 0.14286470515E+02 0.16740844283E+02 0.29812130568E+02 0.36648273559E+02 0.43188323104E+02
 0.48329114554E+02 0.51154354507E+02 0.51154093314E+02 0.48328466360E+02 0.43187620977E+02
 0.36647869059E+02 0.29812205704E+02 0.23669326447E+02 0.18816990030E+02 0.15329055030E+02
 0.12839616678E+02 0.11056348822E+02 0.98529565395E+01 0.90962697839E+01 0.86662994417E+01
 0.84744308852E+01 0.84744134249E+01 0.86663143950E+01 0.90964323195E+01 0.98532644329E+01
 0.11056621830E+02 0.12839617775E+02 0.15328690101E+02 0.18816411098E+02 0.23668853795E+02
 0.47301939110E+02 0.57893916413E+02 0.66911307484E+02 0.72932309164E+02 0.75042075734E+02
 0.72932398746E+02 0.66911313560E+02 0.57893684537E+02 0.47301526128E+02 0.36769036541E+02
 0.27694807979E+02 0.20847440247E+02 0.16223912421E+02 0.13203522673E+02 0.11160161291E+02
 0.98479976323E+01 0.90687897046E+01 0.86662289064E+01 0.85429342509E+01 0.86663143950E+01
 0.90689557159E+01 0.98481623716E+01 0.11160162103E+02 0.13203252248E+02 0.16223469213E+02
 0.20847101880E+02 0.27694811427E+02 0.36769369309E+02 0.73359447567E+02 0.87000292419E+02
 0.97086795197E+02 0.10239260436E+03 0.10239296552E+03 0.97087620174E+02 0.87001009892E+02
 0.73359610212E+02 0.58104090063E+02 0.43473352262E+02 0.31307211242E+02 0.22490560252E+02
 0.16839220091E+02 0.13398884094E+02 0.11196809180E+02 0.98481622787E+01 0.90963567506E+01
 0.87644995955E+01 0.87645403203E+01 0.90964323195E+01 0.98481623716E+01 0.11196641889E+02
 0.13398575223E+02 0.16838952236E+02 0.22490579562E+02 0.31307625942E+02 0.43473975321E+02
 0.58104500265E+02 0.10562720623E+03 0.11980826863E+03 0.12850463395E+03 0.13139690764E+03
 0.12850507211E+03 0.11980892525E+03 0.10562777104E+03 0.87308256081E+02 0.67369644330E+02
 0.48775214479E+02 0.33822054315E+02 0.23413555184E+02 0.17059300681E+02 0.13398738177E+02
 0.11160329463E+02 0.98533398780E+01 0.91847056392E+01 0.89807071282E+01 0.91846997218E+01
 0.98532644329E+01 0.11160162103E+02 0.13398575223E+02 0.17059304277E+02 0.23413814812E+02
 0.33822494589E+02 0.48775624213E+02 0.67369792921E+02 0.87308018861E+02 0.13769333869E+03
 0.14877364964E+03 0.15385431258E+03 0.15385409955E+03 0.14877319742E+03 0.13769303825E+03
 0.12018431071E+03 0.97701473681E+02 0.73591997953E+02 0.51700905278E+02 0.34724039791E+02
 0.23413523766E+02 0.16838779941E+02 0.13203244014E+02 0.11056697493E+02 0.98714785865E+01
 0.93504649719E+01 0.93504404612E+01 0.98714096017E+01 0.11056621830E+02 0.13203252248E+02
 0.16838952236E+02 0.23413814812E+02 0.34724250793E+02 0.51700828531E+02 0.73591629871E+02
 0.97701075522E+02 0.12018421231E+03 0.16108009140E+03 0.16626061782E+03 0.16751627818E+03
 0.16625984029E+03 0.16107905071E+03 0.14915466181E+03 0.12918799333E+03 0.10319824092E+03
 0.75779117234E+02 0.51701165211E+02 0.33822510284E+02 0.22490409744E+02 0.16223292842E+02
 0.12839533199E+02 0.10903798466E+02 0.99185803183E+01 0.96184893360E+01 0.99185539641E+01
 0.10903797013E+02 0.12839617775E+02 0.16223469213E+02 0.22490579562E+02 0.33822494589E+02
 0.51700828531E+02 0.75778531681E+02 0.10319773987E+03 0.12918799479E+03 0.14915533384E+03
 0.16988756525E+03 0.16937117543E+03 0.16937105338E+03 0.16988724723E+03 0.16657502121E+03
 0.15447473216E+03 0.13219839166E+03 0.10319788640E+03 0.73591892745E+02 0.48775858565E+02
 0.31307738723E+02 0.20847093466E+02 0.15328623655E+02 0.12357529248E+02 0.10730333377E+02
 0.10017128909E+02 0.10017136911E+02 0.10730364801E+02 0.12357590548E+02 0.15328690101E+02
 0.20847101880E+02 0.31307625942E+02 0.48775624213E+02 0.73591629871E+02 0.10319773987E+03
 0.13219846620E+03 0.15447502045E+03 0.16657540554E+03 0.16523678275E+03 0.16263090658E+03
 0.16523739458E+03 0.16956935254E+03 0.16795316600E+03 0.15447493433E+03 0.12918756480E+03
 0.97700664111E+02 0.67369630921E+02 0.43474049122E+02 0.27694966297E+02 0.18816515193E+02
 0.14286491260E+02 0.11821185826E+02 0.10571639822E+02 0.10191712540E+02 0.10571664661E+02
 0.11821211107E+02 0.14286470515E+02 0.18816411098E+02 0.27694811427E+02 0.43473975321E+02
 0.67369792921E+02 0.97701075522E+02 0.12918799479E+03 0.15447502045E+03 0.16795271288E+03
 0.16956856372E+03 0.15545962049E+03 0.15546002490E+03 0.16270757941E+03 0.16956948213E+03
 0.16657578798E+03 0.14915508980E+03 0.12018365038E+03 0.87307550969E+02 0.58104335173E+02
 0.36769440646E+02 0.23668980376E+02 0.16740916079E+02 0.13203173938E+02 0.11295992396E+02
 0.10462200817E+02 0.10462198087E+02 0.11295987150E+02 0.13203154332E+02 0.16740844283E+02
 0.23668853795E+02 0.36769369309E+02 0.58104500265E+02 0.87308018861E+02 0.12018421231E+03
 0.14915533384E+03 0.16657540554E+03 0.16956856372E+03 0.16270662448E+03 0.15651417183E+03
 0.16029152800E+03 0.16756575958E+03 0.16931644065E+03 0.15831462621E+03 0.13398664261E+03
 0.10211707108E+03 0.70683312195E+02 0.45581694323E+02 0.28855338003E+02 0.19391590596E+02
 0.14591832893E+02 0.12019214007E+02 0.10718091870E+02 0.10322772208E+02 0.10717856236E+02
 0.12019209223E+02 0.14592054049E+02 0.19391560295E+02 0.28855059648E+02 0.45581678653E+02
 0.70683619626E+02 0.10211723058E+03 0.13398654818E+03 0.15831462167E+03 0.16931650834E+03
 0.16756553602E+03 0.16029114461E+03 0.16029152800E+03 0.16572615198E+03 0.16981001832E+03
 0.16425027989E+03 0.14533451283E+03 0.11613727666E+03 0.83946647502E+02 0.55782815805E+02
 0.35400210572E+02 0.22961001265E+02 0.16392981855E+02 0.13006970369E+02 0.11176757997E+02
 0.10377225573E+02 0.10377076903E+02 0.11176621575E+02 0.13007160579E+02 0.16393201613E+02
 0.22960934767E+02 0.35400091699E+02 0.55782817027E+02 0.83946396707E+02 0.11613663516E+03
 0.14533415540E+03 0.16425079229E+03 0.16981099972E+03 0.16572684230E+03 0.16029172784E+03
 0.16756575958E+03 0.16981001832E+03 0.16582333223E+03 0.15065235272E+03 0.12481899208E+03
 0.93808470729E+02 0.64499444465E+02 0.41677823720E+02 0.26723827533E+02 0.18342689140E+02
 0.14045544529E+02 0.11691681804E+02 0.10501398212E+02 0.10139899315E+02 0.10501187975E+02
 0.11691684445E+02 0.14045787865E+02 0.18342797713E+02 0.26723784948E+02 0.41677898478E+02
 0.64499433556E+02 0.93807942541E+02 0.12481826608E+03 0.15065229835E+03 0.16582412639E+03
 0.16981094137E+03 0.16756623256E+03 0.16579204567E+03 0.16931644065E+03 0.16425027989E+03
 0.15065235272E+03 0.12772449564E+03 0.99017335818E+02 0.70336572689E+02 0.46623272559E+02
 0.30085308888E+02 0.20236440046E+02 0.15036040397E+02 0.12211963162E+02 0.10670075389E+02
 0.99964219948E+01 0.99962611168E+01 0.10669887375E+02 0.12212054599E+02 0.15036155658E+02
 0.20236335875E+02 0.30085300906E+02 0.46623612663E+02 0.70336871197E+02 0.99017207692E+02
 0.12772421335E+03 0.15065227377E+03 0.16425020920E+03 0.16931615243E+03 0.16997843741E+03
 0.16997863101E+03 0.15831462621E+03 0.14533451283E+03 0.12481899208E+03 0.99017335818E+02
 0.72385173195E+02 0.49345240002E+02 0.32417776733E+02 0.21762295380E+02 0.15877865677E+02
 0.12676317488E+02 0.10849012698E+02 0.99240473713E+01 0.96431969532E+01 0.99238422447E+01
 0.10848973632E+02 0.12676417501E+02 0.15877713749E+02 0.21761968302E+02 0.32417825550E+02
 0.49345795974E+02 0.72385762824E+02 0.99017606575E+02 0.12481892833E+03 0.14533400112E+03
 0.15831361233E+03 0.16451461015E+03 0.16619129991E+03 0.16451553563E+03 0.13398664261E+03
 0.11613727666E+03 0.93808470729E+02 0.70336572689E+02 0.49345240002E+02 0.33252698287E+02
 0.22617208001E+02 0.16453599465E+02 0.13025124062E+02 0.11003883981E+02 0.98962251663E+01
 0.94123462482E+01 0.94122484975E+01 0.98961590456E+01 0.11004041469E+02 0.13025186421E+02
 0.16453280720E+02 0.22616823977E+02 0.33252689044E+02 0.49345541104E+02 0.70336897495E+02
 0.93808753492E+02 0.11613741302E+03 0.13398632347E+03 0.14565047335E+03 0.15116903088E+03
 0.15116941661E+03 0.14565117506E+03 0.10211707108E+03 0.83946647502E+02 0.64499444465E+02
 0.46623272559E+02 0.32417776733E+02 0.22617208001E+02 0.16659160247E+02 0.13212001517E+02
 0.11107610971E+02 0.98901172891E+01 0.92729118742E+01 0.90856236308E+01 0.92728085386E+01
 0.98902227166E+01 0.11107910576E+02 0.13212112437E+02 0.16658954582E+02 0.22616921563E+02
 0.32417507198E+02 0.46622944773E+02 0.64499256885E+02 0.83946942331E+02 0.10211772609E+03
 0.11644288406E+03 0.12537846858E+03 0.12838256601E+03 0.12537830424E+03 0.11644237520E+03
 0.70683312195E+02 0.55782815805E+02 0.41677823720E+02 0.30085308888E+02 0.21762295380E+02
 0.16453599465E+02 0.13212001517E+02 0.11143927742E+02 0.98905678137E+01 0.91997924858E+01
 0.88976468662E+01 0.88975370585E+01 0.91996777659E+01 0.98907133960E+01 0.11144218510E+02
 0.13212202974E+02 0.16453697437E+02 0.21762262207E+02 0.30084929488E+02 0.41677141503E+02
 0.55782395493E+02 0.70683634904E+02 0.84188393036E+02 0.94297591047E+02 0.99662823559E+02
 0.99662545205E+02 0.94296835799E+02 0.84187545900E+02 0.45581694323E+02 0.35400210572E+02
 0.26723827533E+02 0.20236440046E+02 0.15877865677E+02 0.13025124062E+02 0.11107610971E+02
 0.98905678137E+01 0.91771833047E+01 0.88130959781E+01 0.87023309626E+01 0.88129010066E+01
 0.91770223370E+01 0.98905443462E+01 0.11107675013E+02 0.13025335808E+02 0.15878286354E+02
 0.20236794942E+02 0.26723717878E+02 0.35399696628E+02 0.45581274198E+02 0.55937039316E+02
 0.64845463283E+02 0.70842164220E+02 0.72952819607E+02 0.70842031994E+02 0.64845280620E+02
 0.55937071058E+02 0.28855338003E+02 0.22961001265E+02 0.18342689140E+02 0.15036040397E+02
 0.12676317488E+02 0.11003883981E+02 0.98901172891E+01 0.91997924858E+01 0.88130959781E+01
 0.86424427157E+01 0.86423822121E+01 0.88129667259E+01 0.91996266314E+01 0.98898633834E+01
 0.11003635096E+02 0.12676372075E+02 0.15036519539E+02 0.18343286585E+02 0.22961312169E+02
 0.28855251574E+02 0.35476976461E+02 0.41871083199E+02 0.46936411206E+02 0.49734905969E+02
 0.49735173986E+02 0.46937016243E+02 0.41871673698E+02 0.35477362298E+02 0.19391590596E+02
 0.16392981855E+02 0.14045544529E+02 0.12211963162E+02 0.10849012698E+02 0.98962251663E+01
 0.92729118742E+01 0.88976468662E+01 0.87023309626E+01 0.86423822121E+01 0.87024084302E+01
 0.88977672938E+01 0.92729015574E+01 0.98959147271E+01 0.10848530314E+02 0.12211684128E+02
 0.14045703512E+02 0.16393475107E+02 0.19392127550E+02 0.22988160061E+02 0.26803352401E+02
 0.30230596712E+02 0.32618808657E+02 0.33475898339E+02 0.32619367495E+02 0.30231213434E+02
 0.26803559050E+02 0.22987885123E+02 0.14591832893E+02 0.13006970369E+02 0.11691681804E+02
 0.10670075389E+02 0.99240473713E+01 0.94123462482E+01 0.90856236308E+01 0.88975370585E+01
 0.88129010066E+01 0.88129667259E+01 0.88977672938E+01 0.90859800678E+01 0.94125882126E+01
 0.99239262766E+01 0.10669614528E+02 0.11691156804E+02 0.13006672257E+02 0.14591908809E+02
 0.16394539072E+02 0.18358413302E+02 0.20275621718E+02 0.21826609670E+02 0.22698022308E+02
 0.22698074017E+02 0.21826616327E+02 0.20275364965E+02 0.18357940696E+02 0.16394139416E+02
 0.12019214007E+02 0.11176757997E+02 0.10501398212E+02 0.99964219948E+01 0.96431969532E+01
 0.94122484975E+01 0.92728085386E+01 0.91996777659E+01 0.91770223370E+01 0.91996266314E+01
 0.92729015574E+01 0.94125882126E+01 0.96436281881E+01 0.99966722989E+01 0.10501289986E+02
 0.11176300669E+02 0.12018618916E+02 0.12993052305E+02 0.14027228518E+02 0.15018896905E+02
 0.15864500010E+02 0.16444100503E+02 0.16651188842E+02 0.16443721993E+02 0.15863900923E+02
 0.15018398200E+02 0.14027146917E+02 0.12993438801E+02 0.10718091870E+02 0.10377225573E+02
 0.10139899315E+02 0.99962611168E+01 0.99238422447E+01 0.98961590456E+01 0.98902227166E+01
 0.98907133960E+01 0.98905443462E+01 0.98898633834E+01 0.98959147271E+01 0.99239262766E+01
 0.99966722989E+01 0.10140436610E+02 0.10377569829E+02 0.10717989425E+02 0.11152316048E+02
 0.11648869046E+02 0.12156302001E+02 0.12612309598E+02 0.12956139468E+02 0.13140643609E+02
 0.13140481211E+02 0.12955793059E+02 0.12612108998E+02 0.12156508560E+02 0.11649415123E+02
 0.11152821498E+02 0.10322772208E+02 0.10377076903E+02 0.10501187975E+02 0.10669887375E+02
 0.10848973632E+02 0.11004041469E+02 0.11107910576E+02 0.11144218510E+02 0.11107675013E+02
 0.11003635096E+02 0.10848530314E+02 0.10669614528E+02 0.10501289986E+02 0.10377569829E+02
 0.10323381165E+02 0.10348185825E+02 0.10443844818E+02 0.10586995723E+02 0.10745249252E+02
 0.10885369941E+02 0.10980495432E+02 0.11014058635E+02 0.10980607593E+02 0.10885634649E+02
 0.10745658121E+02 0.10587387511E+02 0.10443945807E+02 0.10347845896E+02 0.10717856236E+02
 0.11176621575E+02 0.11691684445E+02 0.12212054599E+02 0.12676417501E+02 0.13025186421E+02
 0.13212112437E+02 0.13212202974E+02 0.13025335808E+02 0.12676372075E+02 0.12211684128E+02
 0.11691156804E+02 0.11176300669E+02 0.10717989425E+02 0.10348185825E+02 0.10077792430E+02
 0.98998009928E+01 0.97955811056E+01 0.97422098776E+01 0.97189086073E+01 0.97110055357E+01
 0.97111713547E+01 0.97193008036E+01 0.97425800254E+01 0.97956827391E+01 0.98995239681E+01
 0.10077246597E+02 0.10347682230E+02 0.12019209223E+02 0.13007160579E+02 0.14045787865E+02
 0.15036155658E+02 0.15877713749E+02 0.16453280720E+02 0.16658954582E+02 0.16453697437E+02
 0.15878286354E+02 0.15036519539E+02 0.14045703512E+02 0.13006672257E+02 0.12018618916E+02
 0.11152316048E+02 0.10443844818E+02 0.98998009928E+01 0.95066535843E+01 0.92402881224E+01
 0.90740196619E+01 0.89846871473E+01 0.89567910089E+01 0.89848247518E+01 0.90740936154E+01
 0.92401021629E+01 0.95062274548E+01 0.98993890424E+01 0.10443748984E+02 0.11152650676E+02
 0.14592054049E+02 0.16393201613E+02 0.18342797713E+02 0.20236335875E+02 0.21761968302E+02
 0.22616823977E+02 0.22616921563E+02 0.21762262207E+02 0.20236794942E+02 0.18343286585E+02
 0.16393475107E+02 0.14591908809E+02 0.12993052305E+02 0.11648869046E+02 0.10586995723E+02
 0.97955811056E+01 0.92402881224E+01 0.88774874358E+01 0.86643520141E+01 0.85670632780E+01
 0.85670084934E+01 0.86641723465E+01 0.88771850387E+01 0.92399743087E+01 0.97954791946E+01
 0.10587273798E+02 0.11649435467E+02 0.12993567648E+02 0.19391560295E+02 0.22960934767E+02
 0.26723784948E+02 0.30085300906E+02 0.32417825550E+02 0.33252689044E+02 0.32417507198E+02
 0.30084929488E+02 0.26723717878E+02 0.22961312169E+02 0.19392127550E+02 0.16394539072E+02
 0.14027228518E+02 0.12156302001E+02 0.10745249252E+02 0.97422098776E+01 0.90740196619E+01
 0.86643520141E+01 0.84477377120E+01 0.83805276167E+01 0.84475499695E+01 0.86641445603E+01
 0.90739741988E+01 0.97424088496E+01 0.10745651086E+02 0.12156713996E+02 0.14027353153E+02
 0.16394215793E+02 0.28855059648E+02 0.35400091699E+02 0.41677898478E+02 0.46623612663E+02
 0.49345795974E+02 0.49345541104E+02 0.46622944773E+02 0.41677141503E+02 0.35399696628E+02
 0.28855251574E+02 0.22988160061E+02 0.18358413302E+02 0.15018896905E+02 0.12612309598E+02
 0.10885369941E+02 0.97189086073E+01 0.89846871473E+01 0.85670632780E+01 0.83805276167E+01
 0.83804608681E+01 0.85670047833E+01 0.89848425609E+01 0.97192422167E+01 0.10885654866E+02
 0.12612358629E+02 0.15018631843E+02 0.18357871385E+02 0.22987590719E+02 0.45581678653E+02
 0.55782817027E+02 0.64499433556E+02 0.70336871197E+02 0.72385762824E+02 0.70336897495E+02
 0.64499256885E+02 0.55782395493E+02 0.45581274198E+02 0.35476976461E+02 0.26803352401E+02
 0.20275621718E+02 0.15864500010E+02 0.12956139468E+02 0.10980495432E+02 0.97110055357E+01
 0.89567910089E+01 0.85670084934E+01 0.84475499695E+01 0.85670047833E+01 0.89569497343E+01
 0.97112738978E+01 0.10980566788E+02 0.12955867059E+02 0.15864070076E+02 0.20275281977E+02
 0.26803224098E+02 0.35477126293E+02 0.70683619626E+02 0.83946396707E+02 0.93807942541E+02
 0.99017207692E+02 0.99017606575E+02 0.93808753492E+02 0.83946942331E+02 0.70683634904E+02
 0.55937039316E+02 0.41871083199E+02 0.30230596712E+02 0.21826609670E+02 0.16444100503E+02
 0.13140643609E+02 0.11014058635E+02 0.97111713547E+01 0.89848247518E+01 0.86641723465E+01
 0.86641445603E+01 0.89848425609E+01 0.97112738978E+01 0.11014002476E+02 0.13140282281E+02
 0.16443730470E+02 0.21826622970E+02 0.30230999132E+02 0.41871592596E+02 0.55937399682E+02
 0.10211723058E+03 0.11613663516E+03 0.12481826608E+03 0.12772421335E+03 0.12481892833E+03
 0.11613741302E+03 0.10211772609E+03 0.84188393036E+02 0.64845463283E+02 0.46936411206E+02
 0.32618808657E+02 0.22698022308E+02 0.16651188842E+02 0.13140481211E+02 0.10980607593E+02
 0.97193008036E+01 0.90740936154E+01 0.88771850387E+01 0.90739741988E+01 0.97192422167E+01
 0.10980566788E+02 0.13140282281E+02 0.16651002092E+02 0.22698233329E+02 0.32619389422E+02
 0.46936903460E+02 0.64845584838E+02 0.84188196727E+02 0.13398654818E+03 0.14533415540E+03
 0.15065229835E+03 0.15065227377E+03 0.14533400112E+03 0.13398632347E+03 0.11644288406E+03
 0.94297591047E+02 0.70842164220E+02 0.49734905969E+02 0.33475898339E+02 0.22698074017E+02
 0.16443721993E+02 0.12955793059E+02 0.10885634649E+02 0.97425800254E+01 0.92401021629E+01
 0.92399743087E+01 0.97424088496E+01 0.10885654866E+02 0.12955867059E+02 0.16443730470E+02
 0.22698233329E+02 0.33476267135E+02 0.49735056091E+02 0.70841815095E+02 0.94297135286E+02
 0.11644281507E+03 0.15831462167E+03 0.16425079229E+03 0.16582412639E+03 0.16425020920E+03
 0.15831361233E+03 0.14565047335E+03 0.12537846858E+03 0.99662823559E+02 0.72952819607E+02
 0.49735173986E+02 0.32619367495E+02 0.21826616327E+02 0.15863900923E+02 0.12612108998E+02
 0.10745658121E+02 0.97956827391E+01 0.95062274548E+01 0.97954791946E+01 0.10745651086E+02
 0.12612358629E+02 0.15864070076E+02 0.21826622970E+02 0.32619389422E+02 0.49735056091E+02
 0.72952253425E+02 0.99662132290E+02 0.12537843518E+03 0.14565128336E+03 0.16931650834E+03
 0.16981099972E+03 0.16981094137E+03 0.16931615243E+03 0.16451461015E+03 0.15116903088E+03
 0.12838256601E+03 0.99662545205E+02 0.70842031994E+02 0.46937016243E+02 0.30231213434E+02
 0.20275364965E+02 0.15018398200E+02 0.12156508560E+02 0.10587387511E+02 0.98995239681E+01
 0.98993890424E+01 0.10587273798E+02 0.12156713996E+02 0.15018631843E+02 0.20275281977E+02
 0.30230999132E+02 0.46936903460E+02 0.70841815095E+02 0.99662132290E+02 0.12838242998E+03
 0.15116951248E+03 0.16451529843E+03 0.16756553602E+03 0.16572684230E+03 0.16756623256E+03
 0.16997843741E+03 0.16619129991E+03 0.15116941661E+03 0.12537830424E+03 0.94296835799E+02
 0.64845280620E+02 0.41871673698E+02 0.26803559050E+02 0.18357940696E+02 0.14027146917E+02
 0.11649415123E+02 0.10443945807E+02 0.10077246597E+02 0.10443748984E+02 0.11649435467E+02
 0.14027353153E+02 0.18357871385E+02 0.26803224098E+02 0.41871592596E+02 0.64845584838E+02
 0.94297135286E+02 0.12537843518E+03 0.15116951248E+03 0.16619118280E+03 0.16997782594E+03
 0.16029114461E+03 0.16029172784E+03 0.16579204567E+03 0.16997863101E+03 0.16451553563E+03
 0.14565117506E+03 0.11644237520E+03 0.84187545900E+02 0.55937071058E+02 0.35477362298E+02
 0.22987885123E+02 0.16394139416E+02 0.12993438801E+02 0.11152821498E+02 0.10347845896E+02
 0.10347682230E+02 0.11152650676E+02 0.12993567648E+02 0.16394215793E+02 0.22987590719E+02
 0.35477126293E+02 0.55937399682E+02 0.84188196727E+02 0.11644281507E+03 0.14565128336E+03
 0.16451529843E+03 0.16997782594E+03 0.16579088397E+03 0.16717327259E+03 0.16855390798E+03
 0.16982037797E+03 0.16474671625E+03 0.14883260709E+03 0.12279681559E+03 0.92036528986E+02
 0.63196599605E+02 0.40846880637E+02 0.26249952528E+02 0.18083787851E+02 0.13880574202E+02
 0.11563840551E+02 0.10390617383E+02 0.10033833964E+02 0.10390180697E+02 0.11563835942E+02
 0.13880985006E+02 0.18083722701E+02 0.26249433020E+02 0.40846866069E+02 0.63197180406E+02
 0.92036808060E+02 0.12279661700E+03 0.14883260294E+03 0.16474686137E+03 0.16981996024E+03
 0.16855317628E+03 0.16855390798E+03 0.16981498577E+03 0.16759852764E+03 0.15641935786E+03
 0.13454419738E+03 0.10539904144E+03 0.75310666043E+02 0.49930225211E+02 0.31986571092E+02
 0.21203622906E+02 0.15515720299E+02 0.12484670835E+02 0.10831884516E+02 0.10109055467E+02
 0.10108769987E+02 0.10831620770E+02 0.12485016056E+02 0.15516070600E+02 0.21203372039E+02
 0.31986270416E+02 0.49930381220E+02 0.75310638040E+02 0.10539836430E+03 0.13454375518E+03
 0.15641996468E+03 0.16759950724E+03 0.16981537521E+03 0.16855389673E+03 0.16982037797E+03
 0.16759852764E+03 0.15870483165E+03 0.14031210663E+03 0.11387399252E+03 0.84450579589E+02