   2   2   0   0
  0.1459607E+02  0.2761870E-09  0.2761870E-09  0.4419050E-09  0.5000000E-15
  1.000000000000000E-004
  CAR 
 Tc                                      
     68.53483327    -31.61463530  301     12.29029339      1.00000000
    -31.615  0.0000E+00  0.0000E+00
    -31.281  0.0000E+00  0.0000E+00
    -30.947  0.0000E+00  0.0000E+00
    -30.613  0.0000E+00  0.0000E+00
    -30.279  0.0000E+00  0.0000E+00
    -29.945  0.0000E+00  0.0000E+00
    -29.612  0.0000E+00  0.0000E+00
    -29.278  0.0000E+00  0.0000E+00
    -28.944  0.0000E+00  0.0000E+00
    -28.610  0.0000E+00  0.0000E+00
    -28.276  0.0000E+00  0.0000E+00
    -27.942  0.0000E+00  0.0000E+00
    -27.609  0.0000E+00  0.0000E+00
    -27.275  0.1095E-10  0.3656E-11
    -26.941  0.8765E+00  0.2926E+00
    -26.607  0.8833E+01  0.3242E+01
    -26.273  0.8151E+01  0.5966E+01
    -25.939  0.1619E+02  0.1138E+02
    -25.606  0.1835E+01  0.1200E+02
    -25.272  0.0000E+00  0.1200E+02
    -24.938  0.0000E+00  0.1200E+02
    -24.604  0.0000E+00  0.1200E+02
    -24.270  0.0000E+00  0.1200E+02
    -23.937  0.0000E+00  0.1200E+02
    -23.603  0.0000E+00  0.1200E+02
    -23.269  0.0000E+00  0.1200E+02
    -22.935  0.0000E+00  0.1200E+02
    -22.601  0.0000E+00  0.1200E+02
    -22.267  0.0000E+00  0.1200E+02
    -21.934  0.0000E+00  0.1200E+02
    -21.600  0.0000E+00  0.1200E+02
    -21.266  0.0000E+00  0.1200E+02
    -20.932  0.0000E+00  0.1200E+02
    -20.598  0.0000E+00  0.1200E+02
    -20.264  0.0000E+00  0.1200E+02
    -19.931  0.0000E+00  0.1200E+02
    -19.597  0.0000E+00  0.1200E+02
    -19.263  0.0000E+00  0.1200E+02
    -18.929  0.0000E+00  0.1200E+02
    -18.595  0.0000E+00  0.1200E+02
    -18.261  0.0000E+00  0.1200E+02
    -17.928  0.0000E+00  0.1200E+02
    -17.594  0.0000E+00  0.1200E+02
    -17.260  0.0000E+00  0.1200E+02
    -16.926  0.0000E+00  0.1200E+02
    -16.592  0.0000E+00  0.1200E+02
    -16.258  0.0000E+00  0.1200E+02
    -15.925  0.0000E+00  0.1200E+02
    -15.591  0.0000E+00  0.1200E+02
    -15.257  0.0000E+00  0.1200E+02
    -14.923  0.0000E+00  0.1200E+02
    -14.589  0.0000E+00  0.1200E+02
    -14.255  0.0000E+00  0.1200E+02
    -13.922  0.0000E+00  0.1200E+02
    -13.588  0.0000E+00  0.1200E+02
    -13.254  0.0000E+00  0.1200E+02
    -12.920  0.0000E+00  0.1200E+02
    -12.586  0.0000E+00  0.1200E+02
    -12.252  0.0000E+00  0.1200E+02
    -11.919  0.0000E+00  0.1200E+02
    -11.585  0.0000E+00  0.1200E+02
    -11.251  0.0000E+00  0.1200E+02
    -10.917  0.0000E+00  0.1200E+02
    -10.583  0.0000E+00  0.1200E+02
    -10.249  0.0000E+00  0.1200E+02
     -9.916  0.0000E+00  0.1200E+02
     -9.582  0.0000E+00  0.1200E+02
     -9.248  0.0000E+00  0.1200E+02
     -8.914  0.0000E+00  0.1200E+02
     -8.580  0.0000E+00  0.1200E+02
     -8.246  0.0000E+00  0.1200E+02
     -7.913  0.0000E+00  0.1200E+02
     -7.579  0.0000E+00  0.1200E+02
     -7.245  0.0000E+00  0.1200E+02
     -6.911  0.0000E+00  0.1200E+02
     -6.577  0.0000E+00  0.1200E+02
     -6.243  0.0000E+00  0.1200E+02
     -5.910  0.0000E+00  0.1200E+02
     -5.576  0.0000E+00  0.1200E+02
     -5.242  0.0000E+00  0.1200E+02
     -4.908  0.0000E+00  0.1200E+02
     -4.574  0.0000E+00  0.1200E+02
     -4.240  0.0000E+00  0.1200E+02
     -3.907  0.0000E+00  0.1200E+02
     -3.573  0.0000E+00  0.1200E+02
     -3.239  0.0000E+00  0.1200E+02
     -2.905  0.0000E+00  0.1200E+02
     -2.571  0.0000E+00  0.1200E+02
     -2.237  0.0000E+00  0.1200E+02
     -1.904  0.0000E+00  0.1200E+02
     -1.570  0.0000E+00  0.1200E+02
     -1.236  0.0000E+00  0.1200E+02
     -0.902  0.0000E+00  0.1200E+02
     -0.568  0.0000E+00  0.1200E+02
     -0.234  0.0000E+00  0.1200E+02
      0.099  0.0000E+00  0.1200E+02
      0.433  0.0000E+00  0.1200E+02
      0.767  0.0000E+00  0.1200E+02
      1.101  0.0000E+00  0.1200E+02
      1.435  0.0000E+00  0.1200E+02
      1.769  0.0000E+00  0.1200E+02
      2.102  0.0000E+00  0.1200E+02
      2.436  0.0000E+00  0.1200E+02
      2.770  0.0000E+00  0.1200E+02
      3.104  0.0000E+00  0.1200E+02
      3.438  0.0000E+00  0.1200E+02
      3.772  0.0000E+00  0.1200E+02
      4.105  0.0000E+00  0.1200E+02
      4.439  0.0000E+00  0.1200E+02
      4.773  0.0000E+00  0.1200E+02
      5.107  0.9465E-02  0.1200E+02
      5.441  0.2564E-01  0.1201E+02
      5.774  0.1405E+00  0.1206E+02
      6.108  0.9360E-01  0.1209E+02
      6.442  0.1618E+00  0.1214E+02
      6.776  0.2054E+00  0.1221E+02
      7.110  0.7762E+00  0.1247E+02
      7.444  0.1726E+01  0.1305E+02
      7.777  0.3220E+01  0.1412E+02
      8.111  0.2799E+01  0.1506E+02
      8.445  0.1912E+01  0.1570E+02
      8.779  0.2745E+01  0.1662E+02
      9.113  0.2694E+01  0.1752E+02
      9.447  0.2579E+01  0.1838E+02
      9.780  0.2058E+01  0.1907E+02
     10.114  0.1810E+01  0.1967E+02
     10.448  0.1963E+01  0.2033E+02
     10.782  0.3500E+01  0.2150E+02
     11.116  0.3146E+01  0.2255E+02
     11.450  0.2835E+01  0.2350E+02
     11.783  0.3427E+01  0.2465E+02
     12.117  0.2553E+01  0.2550E+02
     12.451  0.2191E+01  0.2623E+02
     12.785  0.1834E+01  0.2685E+02
     13.119  0.2165E+01  0.2757E+02
     13.453  0.1420E+01  0.2805E+02
     13.786  0.1093E+01  0.2841E+02
     14.120  0.1394E+01  0.2888E+02
     14.454  0.1647E+01  0.2943E+02
     14.788  0.3404E+01  0.3057E+02
     15.122  0.3376E+01  0.3169E+02
     15.456  0.3251E+01  0.3278E+02
     15.789  0.1452E+01  0.3327E+02
     16.123  0.5742E+00  0.3346E+02
     16.457  0.3047E+00  0.3356E+02
     16.791  0.7623E-01  0.3359E+02
     17.125  0.5408E+00  0.3377E+02
     17.459  0.1430E+01  0.3424E+02
     17.792  0.6049E+00  0.3445E+02
     18.126  0.2660E+00  0.3454E+02
     18.460  0.2131E+00  0.3461E+02
     18.794  0.3116E+00  0.3471E+02
     19.128  0.6374E+00  0.3492E+02
     19.462  0.4982E+00  0.3509E+02
     19.795  0.4760E+00  0.3525E+02
     20.129  0.2616E+00  0.3534E+02
     20.463  0.8904E+00  0.3563E+02
     20.797  0.6320E+00  0.3585E+02
     21.131  0.3805E-01  0.3586E+02
     21.465  0.2277E-03  0.3586E+02
     21.798  0.2083E+00  0.3593E+02
     22.132  0.2356E+00  0.3601E+02
     22.466  0.1204E+00  0.3605E+02
     22.800  0.3185E+00  0.3615E+02
     23.134  0.3354E+00  0.3627E+02
     23.468  0.1027E+01  0.3661E+02
     23.801  0.1471E+01  0.3710E+02
     24.135  0.1199E+01  0.3750E+02
     24.469  0.7143E+00  0.3774E+02
     24.803  0.1106E+01  0.3811E+02
     25.137  0.1419E+01  0.3858E+02
     25.471  0.1202E+01  0.3899E+02
     25.804  0.6955E+00  0.3922E+02
     26.138  0.6997E+00  0.3945E+02
     26.472  0.8485E+00  0.3974E+02
     26.806  0.9765E+00  0.4006E+02
     27.140  0.2388E+01  0.4086E+02
     27.474  0.1078E+01  0.4122E+02
     27.807  0.1447E+01  0.4170E+02
     28.141  0.2200E+01  0.4244E+02
     28.475  0.8042E+00  0.4271E+02
     28.809  0.1635E+01  0.4325E+02
     29.143  0.1557E+01  0.4377E+02
     29.477  0.1079E+01  0.4413E+02
     29.810  0.1487E+01  0.4463E+02
     30.144  0.2054E+01  0.4532E+02
     30.478  0.1081E+01  0.4568E+02
     30.812  0.1663E+01  0.4623E+02
     31.146  0.1355E+01  0.4669E+02
     31.480  0.6592E+00  0.4691E+02
     31.813  0.1338E+01  0.4735E+02
     32.147  0.1090E+01  0.4772E+02
     32.481  0.2094E+01  0.4842E+02
     32.815  0.7329E+00  0.4867E+02
     33.149  0.3255E+00  0.4877E+02
     33.483  0.6124E+00  0.4898E+02
     33.816  0.1461E+01  0.4947E+02
     34.150  0.1595E+01  0.5000E+02
     34.484  0.5697E+00  0.5019E+02
     34.818  0.8284E+00  0.5047E+02
     35.152  0.1328E+01  0.5091E+02
     35.486  0.7534E+00  0.5116E+02
     35.819  0.8235E+00  0.5144E+02
     36.153  0.1092E+01  0.5180E+02
     36.487  0.9060E+00  0.5211E+02
     36.821  0.1076E+01  0.5247E+02
     37.155  0.1169E+01  0.5286E+02
     37.488  0.1391E+01  0.5332E+02
     37.822  0.1001E+01  0.5366E+02
     38.156  0.1079E+01  0.5402E+02
     38.490  0.1337E+01  0.5446E+02
     38.824  0.1385E+01  0.5493E+02
     39.158  0.3114E+01  0.5597E+02
     39.491  0.1186E+02  0.5993E+02
     39.825  0.1533E+01  0.6044E+02
     40.159  0.1664E+01  0.6099E+02
     40.493  0.2358E+01  0.6178E+02
     40.827  0.9755E+00  0.6211E+02
     41.161  0.1038E+01  0.6246E+02
     41.494  0.1613E+01  0.6300E+02
     41.828  0.9493E+00  0.6331E+02
     42.162  0.2274E+01  0.6407E+02
     42.496  0.2362E+01  0.6486E+02
     42.830  0.1465E+01  0.6535E+02
     43.164  0.9611E+00  0.6567E+02
     43.497  0.1234E+01  0.6608E+02
     43.831  0.1479E+01  0.6658E+02
     44.165  0.9079E+00  0.6688E+02
     44.499  0.5413E+00  0.6706E+02
     44.833  0.1435E+01  0.6754E+02
     45.167  0.1510E+01  0.6805E+02
     45.500  0.9631E+00  0.6837E+02
     45.834  0.1914E+01  0.6901E+02
     46.168  0.8215E+00  0.6929E+02
     46.502  0.1294E+01  0.6972E+02
     46.836  0.1837E+01  0.7033E+02
     47.170  0.1408E+01  0.7080E+02
     47.503  0.1047E+01  0.7115E+02
     47.837  0.2181E+01  0.7188E+02
     48.171  0.2437E+01  0.7269E+02
     48.505  0.6588E+00  0.7291E+02
     48.839  0.1727E+01  0.7349E+02
     49.173  0.1873E+01  0.7412E+02
     49.506  0.1204E+01  0.7452E+02
     49.840  0.1429E+01  0.7500E+02
     50.174  0.2613E+01  0.7587E+02
     50.508  0.1083E+01  0.7623E+02
     50.842  0.1622E+01  0.7678E+02
     51.176  0.1936E+01  0.7742E+02
     51.509  0.2294E+01  0.7819E+02
     51.843  0.1447E+01  0.7867E+02
     52.177  0.1404E+01  0.7914E+02
     52.511  0.1559E+01  0.7966E+02
     52.845  0.1159E+01  0.8005E+02
     53.179  0.1459E+01  0.8053E+02
     53.512  0.1400E+01  0.8100E+02
     53.846  0.2390E+01  0.8180E+02
     54.180  0.1755E+01  0.8239E+02
     54.514  0.7596E+00  0.8264E+02
     54.848  0.1118E+01  0.8302E+02
     55.182  0.2014E+01  0.8369E+02
     55.515  0.2187E+01  0.8442E+02
     55.849  0.3802E+00  0.8455E+02
     56.183  0.1232E+01  0.8496E+02
     56.517  0.2150E+01  0.8568E+02
     56.851  0.1280E+01  0.8611E+02
     57.185  0.1113E+01  0.8648E+02
     57.518  0.2842E+01  0.8743E+02
     57.852  0.1776E+01  0.8802E+02
     58.186  0.2016E+01  0.8870E+02
     58.520  0.1491E+01  0.8919E+02
     58.854  0.1429E+01  0.8967E+02
     59.188  0.1605E+01  0.9021E+02
     59.521  0.2226E+01  0.9095E+02
     59.855  0.2447E+01  0.9177E+02
     60.189  0.3187E+01  0.9284E+02
     60.523  0.1580E+01  0.9336E+02
     60.857  0.1404E+01  0.9383E+02
     61.191  0.1320E+01  0.9427E+02
     61.524  0.1363E+01  0.9473E+02
     61.858  0.1562E+01  0.9525E+02
     62.192  0.8321E+00  0.9553E+02
     62.526  0.3798E+00  0.9566E+02
     62.860  0.3967E+00  0.9579E+02
     63.194  0.6859E-01  0.9581E+02
     63.527  0.1404E+00  0.9586E+02
     63.861  0.2809E+00  0.9595E+02
     64.195  0.1404E+00  0.9600E+02
     64.529  0.0000E+00  0.9600E+02
     64.863  0.0000E+00  0.9600E+02
     65.197  0.0000E+00  0.9600E+02
     65.530  0.0000E+00  0.9600E+02
     65.864  0.0000E+00  0.9600E+02
     66.198  0.0000E+00  0.9600E+02
     66.532  0.0000E+00  0.9600E+02
     66.866  0.0000E+00  0.9600E+02
     67.200  0.0000E+00  0.9600E+02
     67.533  0.0000E+00  0.9600E+02
     67.867  0.0000E+00  0.9600E+02
     68.201  0.0000E+00  0.9600E+02
     68.535  0.0000E+00  0.9600E+02
