    2    2    1    1
  0.1459607E+02  0.2761870E-09  0.2761870E-09  0.4419050E-09  0.5000000E-15
  1.000000000000000E-004
  CAR 
 Tc                                      
     26     50     48
 
  0.0000000E+00  0.0000000E+00  0.0000000E+00  0.1953125E-02
      1        -27.062387   1.000000
      2        -26.036723   1.000000
      3        -26.036722   1.000000
      4        -25.858677   1.000000
      5        -25.858676   1.000000
      6        -25.805780   1.000000
      7          5.075959   1.000000
      8          7.022306   1.000000
      9         10.818774   1.000000
     10         10.818776   1.000000
     11         10.918046   1.000000
     12         11.520969   1.000000
     13         11.520971   1.000000
     14         12.191988   0.997286
     15         12.191989   0.997286
     16         13.965035   0.000000
     17         14.791515   0.000000
     18         14.791516   0.000000
     19         23.145095   0.000000
     20         26.598064   0.000000
     21         28.791197   0.000000
     22         29.704974   0.000000
     23         34.517814   0.000000
     24         34.517814   0.000000
     25         34.765333   0.000000
     26         34.765334   0.000000
     27         36.162131   0.000000
     28         38.211900   0.000000
     29         38.211901   0.000000
     30         39.198468   0.000000
     31         39.202620   0.000000
     32         41.132946   0.000000
     33         41.132946   0.000000
     34         44.840379   0.000000
     35         45.382793   0.000000
     36         49.245283   0.000000
     37         49.245285   0.000000
     38         50.477987   0.000000
     39         50.477990   0.000000
     40         51.059973   0.000000
     41         54.792912   0.000000
     42         56.856699   0.000000
     43         56.856703   0.000000
     44         57.028840   0.000000
     45         57.028841   0.000000
     46         57.257959   0.000000
     47         60.957365   0.000000
     48         60.957365   0.000000
 
  0.1250000E+00  0.2741550E-17  0.0000000E+00  0.1171875E-01
      1        -27.003722   1.000000
      2        -26.165593   1.000000
      3        -26.078315   1.000000
      4        -25.991930   1.000000
      5        -25.877146   1.000000
      6        -25.831676   1.000000
      7          5.633016   1.000000
      8          7.453843   1.000000
      9         10.088660   1.000000
     10         11.209825   1.000000
     11         11.301843   1.000000
     12         11.331979   1.000000
     13         11.591721   1.000000
     14         11.842987   1.000000
     15         11.967160   1.000000
     16         12.442159   0.000009
     17         15.002543   0.000000
     18         17.320405   0.000000
     19         23.050033   0.000000
     20         27.607862   0.000000
     21         29.432197   0.000000
     22         30.533907   0.000000
     23         31.591579   0.000000
     24         32.552622   0.000000
     25         32.650240   0.000000
     26         35.195038   0.000000
     27         39.054724   0.000000
     28         39.199635   0.000000
     29         39.200865   0.000000
     30         39.899844   0.000000
     31         40.138604   0.000000
     32         40.152912   0.000000
     33         41.653989   0.000000
     34         42.330632   0.000000
     35         44.412393   0.000000
     36         45.779876   0.000000
     37         48.441081   0.000000
     38         50.687281   0.000000
     39         51.463761   0.000000
     40         51.599773   0.000000
     41         55.356886   0.000000
     42         55.409792   0.000000
     43         57.253669   0.000000
     44         57.512348   0.000000
     45         57.967858   0.000000
     46         59.558943   0.000000
     47         60.424499   0.000000
     48         60.838207   0.000000
 
  0.2500000E+00  0.5483101E-17  0.0000000E+00  0.1171875E-01
      1        -26.845725   1.000000
      2        -26.476540   1.000000
      3        -26.298758   1.000000
      4        -26.173857   1.000000
      5        -25.926142   1.000000
      6        -25.910171   1.000000
      7          6.915520   1.000000
      8          7.941654   1.000000
      9          9.468874   1.000000
     10          9.728910   1.000000
     11         10.911606   1.000000
     12         11.185126   1.000000
     13         11.814316   1.000000
     14         12.628406   0.000000
     15         12.773569   0.000000
     16         13.180391   0.000000
     17         15.323265   0.000000
     18         20.385219   0.000000
     19         22.714353   0.000000
     20         26.867178   0.000000
     21         28.426666   0.000000
     22         29.491332   0.000000
     23         31.350541   0.000000
     24         31.416228   0.000000
     25         33.394443   0.000000
     26         37.134071   0.000000
     27         37.340577   0.000000
     28         37.341132   0.000000
     29         38.216771   0.000000
     30         39.198863   0.000000
     31         39.200061   0.000000
     32         41.082331   0.000000
     33         43.056629   0.000000
     34         43.061055   0.000000
     35         44.259907   0.000000
     36         45.558365   0.000000
     37         48.196610   0.000000
     38         49.963205   0.000000
     39         52.955676   0.000000
     40         53.031640   0.000000
     41         53.873574   0.000000
     42         56.945145   0.000000
     43         57.231062   0.000000
     44         58.194772   0.000000
     45         58.239356   0.000000
     46         59.581478   0.000000
     47         60.005006   0.000000
     48         60.469980   0.000000
 
  0.3750000E+00  0.2738897E-16  0.0000000E+00  0.1171875E-01
      1        -26.785102   1.000000
      2        -26.643124   1.000000
      3        -26.587852   1.000000
      4        -26.264068   1.000000
      5        -26.032174   1.000000
      6        -25.978294   1.000000
      7          7.338087   1.000000
      8          7.816183   1.000000
      9          8.186714   1.000000
     10         10.630325   1.000000
     11         10.663005   1.000000
     12         11.383554   1.000000
     13         11.481409   1.000000
     14         14.308447   0.000000
     15         14.710912   0.000000
     16         14.944635   0.000000
     17         15.506396   0.000000
     18         22.035512   0.000000
     19         23.147738   0.000000
     20         23.489729   0.000000
     21         26.598510   0.000000
     22         26.764338   0.000000
     23         29.838076   0.000000
     24         31.240295   0.000000
     25         34.161219   0.000000
     26         35.013291   0.000000
     27         38.697955   0.000000
     28         39.080294   0.000000
     29         39.199240   0.000000
     30         39.200181   0.000000
     31         39.815728   0.000000
     32         40.256807   0.000000
     33         42.208748   0.000000
     34         45.064545   0.000000
     35         46.033137   0.000000
     36         48.995294   0.000000
     37         49.433818   0.000000
     38         49.987471   0.000000
     39         50.089932   0.000000
     40         53.248563   0.000000
     41         53.257261   0.000000
     42         53.523998   0.000000
     43         57.759191   0.000000
     44         57.951228   0.000000
     45         58.519295   0.000000
     46         59.448678   0.000000
     47         60.491831   0.000000
     48         61.031490   0.000000
 
  0.5000000E+00  0.1096620E-16  0.0000000E+00  0.5859375E-02
      1        -26.911796   1.000000
      2        -26.703352   1.000000
      3        -26.523534   1.000000
      4        -26.300229   1.000000
      5        -26.118034   1.000000
      6        -26.000450   1.000000
      7          7.109061   1.000000
      8          7.740526   1.000000
      9          7.825984   1.000000
     10         10.471278   1.000000
     11         11.224483   1.000000
     12         11.381998   1.000000
     13         11.847660   1.000000
     14         15.146393   0.000000
     15         15.558051   0.000000
     16         15.565942   0.000000
     17         17.480818   0.000000
     18         19.247995   0.000000
     19         23.599702   0.000000
     20         24.506977   0.000000
     21         25.237576   0.000000
     22         26.130619   0.000000
     23         27.328278   0.000000
     24         30.611713   0.000000
     25         32.528207   0.000000
     26         36.029805   0.000000
     27         39.198730   0.000000
     28         39.199513   0.000000
     29         39.397979   0.000000
     30         41.348560   0.000000
     31         41.552846   0.000000
     32         41.604312   0.000000
     33         42.464352   0.000000
     34         45.034808   0.000000
     35         47.525378   0.000000
     36         48.874612   0.000000
     37         49.038214   0.000000
     38         49.040489   0.000000
     39         49.382644   0.000000
     40         51.526263   0.000000
     41         52.033606   0.000000
     42         53.857488   0.000000
     43         57.590786   0.000000
     44         57.743038   0.000000
     45         58.552886   0.000000
     46         58.963483   0.000000
     47         59.901767   0.000000
     48         61.144716   0.000000
 
  0.2500000E+00  0.1250000E+00  0.0000000E+00  0.1171875E-01
      1        -26.895099   1.000000
      2        -26.344522   1.000000
      3        -26.276788   1.000000
      4        -26.094568   1.000000
      5        -25.939499   1.000000
      6        -25.884092   1.000000
      7          6.607743   1.000000
      8          8.084682   1.000000
      9          9.409874   1.000000
     10         10.037256   1.000000
     11         10.964819   1.000000
     12         11.039459   1.000000
     13         12.018344   1.000000
     14         12.216354   0.981750
     15         12.337316   0.091757
     16         13.052354   0.000000
     17         15.152717   0.000000
     18         19.621074   0.000000
     19         22.843456   0.000000
     20         28.139025   0.000000
     21         29.084213   0.000000
     22         29.619844   0.000000
     23         30.367108   0.000000
     24         31.793000   0.000000
     25         32.633224   0.000000
     26         36.324235   0.000000
     27         37.844644   0.000000
     28         37.875979   0.000000
     29         39.198551   0.000000
     30         39.200814   0.000000
     31         41.072948   0.000000
     32         41.804625   0.000000
     33         42.095403   0.000000
     34         42.568445   0.000000
     35         43.875247   0.000000
     36         44.073478   0.000000
     37         48.109605   0.000000
     38         48.874563   0.000000
     39         52.042228   0.000000
     40         53.615658   0.000000
     41         54.696681   0.000000
     42         56.752064   0.000000
     43         57.363655   0.000000
     44         57.576358   0.000000
     45         58.308819   0.000000
     46         58.427117   0.000000
     47         60.971814   0.000000
     48         61.583508   0.000000
 
  0.3750000E+00  0.1250000E+00  0.0000000E+00  0.2343750E-01
      1        -26.710898   1.000000
      2        -26.629180   1.000000
      3        -26.512126   1.000000
      4        -26.240351   1.000000
      5        -26.024115   1.000000
      6        -25.987868   1.000000
      7          7.833176   1.000000
      8          8.145500   1.000000
      9          8.645597   1.000000
     10          9.496014   1.000000
     11         10.516009   1.000000
     12         11.148682   1.000000
     13         11.703707   1.000000
     14         13.027021   0.000000
     15         14.004835   0.000000
     16         14.954559   0.000000
     17         15.276942   0.000000
     18         22.462771   0.000000
     19         22.696518   0.000000
     20         24.819843   0.000000
     21         26.400139   0.000000
     22         27.883198   0.000000
     23         31.106858   0.000000
     24         31.600173   0.000000
     25         33.767281   0.000000
     26         35.457211   0.000000
     27         36.406411   0.000000
     28         39.199397   0.000000
     29         39.201047   0.000000
     30         39.635494   0.000000
     31         40.260708   0.000000
     32         40.792085   0.000000
     33         42.732902   0.000000
     34         43.965785   0.000000
     35         44.954345   0.000000
     36         46.043101   0.000000
     37         48.633933   0.000000
     38         48.877904   0.000000
     39         51.161320   0.000000
     40         52.228441   0.000000
     41         55.418011   0.000000
     42         56.693087   0.000000
     43         56.702531   0.000000
     44         58.145312   0.000000
     45         59.228289   0.000000
     46         59.287055   0.000000
     47         60.439147   0.000000
     48         61.449671   0.000000
 
  0.5000000E+00  0.1250000E+00  0.0000000E+00  0.2343750E-01
      1        -26.844118   1.000000
      2        -26.648927   1.000000
      3        -26.526120   1.000000
      4        -26.354837   1.000000
      5        -26.115382   1.000000
      6        -26.078842   1.000000
      7          7.612681   1.000000
      8          7.853345   1.000000
      9          8.188553   1.000000
     10         10.368790   1.000000
     11         10.633036   1.000000
     12         11.194474   1.000000
     13         11.794823   1.000000
     14         14.561966   0.000000
     15         15.129465   0.000000
     16         15.333387   0.000000
     17         17.192672   0.000000
     18         20.731115   0.000000
     19         23.671415   0.000000
     20         24.238431   0.000000
     21         24.805125   0.000000
     22         26.884214   0.000000
     23         28.394363   0.000000
     24         30.463079   0.000000
     25         32.043436   0.000000
     26         37.139072   0.000000
     27         38.648919   0.000000
     28         38.986633   0.000000
     29         39.200206   0.000000
     30         39.200827   0.000000
     31         41.708680   0.000000
     32         42.351318   0.000000
     33         42.367096   0.000000
     34         45.494710   0.000000
     35         47.124945   0.000000
     36         47.221915   0.000000
     37         48.593122   0.000000
     38         48.771726   0.000000
     39         50.457700   0.000000
     40         52.226864   0.000000
     41         53.625245   0.000000
     42         55.351198   0.000000
     43         56.178880   0.000000
     44         56.238327   0.000000
     45         58.600905   0.000000
     46         59.160718   0.000000
     47         59.733454   0.000000
     48         60.108326   0.000000
 
  0.5000000E+00  0.2500000E+00  0.0000000E+00  0.1171875E-01
      1        -26.727151   1.000000
      2        -26.636209   1.000000
      3        -26.528578   1.000000
      4        -26.378189   1.000000
      5        -26.195505   1.000000
      6        -26.112990   1.000000
      7          7.984078   1.000000
      8          8.523674   1.000000
      9          8.826592   1.000000
     10          9.311054   1.000000
     11         10.205900   1.000000
     12         11.217013   1.000000
     13         11.719324   1.000000
     14         13.566094   0.000000
     15         15.109452   0.000000
     16         15.146803   0.000000
     17         17.266926   0.000000
     18         22.144947   0.000000
     19         22.959625   0.000000
     20         23.869393   0.000000
     21         25.108842   0.000000
     22         27.840600   0.000000
     23         29.550319   0.000000
     24         30.244246   0.000000
     25         31.228838   0.000000
     26         36.619293   0.000000
     27         37.185284   0.000000
     28         39.199028   0.000000
     29         39.200482   0.000000
     30         41.390427   0.000000
     31         42.116474   0.000000
     32         43.033367   0.000000
     33         43.058152   0.000000
     34         43.200517   0.000000
     35         43.818660   0.000000
     36         47.499512   0.000000
     37         48.070263   0.000000
     38         48.975089   0.000000
     39         50.272845   0.000000
     40         53.043785   0.000000
     41         55.005180   0.000000
     42         56.334596   0.000000
     43         57.326333   0.000000
     44         57.434185   0.000000
     45         58.901198   0.000000
     46         59.621726   0.000000
     47         60.698412   0.000000
     48         60.806934   0.000000
 
 -0.3750000E+00  0.2500000E+00  0.0000000E+00  0.1171875E-01
      1        -26.780174   1.000000
      2        -26.580756   1.000000
      3        -26.518794   1.000000
      4        -26.393520   1.000000
      5        -26.277194   1.000000
      6        -26.223933   1.000000
      7          7.726066   1.000000
      8          8.562376   1.000000
      9          8.839609   1.000000
     10          9.880701   1.000000
     11         10.323664   1.000000
     12         10.771655   1.000000
     13         12.147192   0.999974
     14         14.412678   0.000000
     15         14.931034   0.000000
     16         15.037516   0.000000
     17         19.130216   0.000000
     18         19.991534   0.000000
     19         21.560824   0.000000
     20         25.570970   0.000000
     21         26.922203   0.000000
     22         27.782249   0.000000
     23         28.049408   0.000000
     24         29.236899   0.000000
     25         29.556466   0.000000
     26         37.077224   0.000000
     27         38.223068   0.000000
     28         39.199534   0.000000
     29         39.202470   0.000000
     30         40.262119   0.000000
     31         40.945330   0.000000
     32         42.366782   0.000000
     33         43.534067   0.000000
     34         44.993446   0.000000
     35         47.340354   0.000000
     36         47.380903   0.000000
     37         47.781405   0.000000
     38         50.891992   0.000000
     39         51.861945   0.000000
     40         52.473909   0.000000
     41         53.743869   0.000000
     42         54.440834   0.000000
     43         55.098265   0.000000
     44         57.976738   0.000000
     45         58.499762   0.000000
     46         58.974619   0.000000
     47         59.537803   0.000000
     48         59.918550   0.000000
 
 -0.1800227E-33 -0.1720767E-32  0.1250000E+00  0.3906250E-02
      1        -27.017433   1.000000
      2        -26.030050   1.000000
      3        -26.030049   1.000000
      4        -25.865703   1.000000
      5        -25.865702   1.000000
      6        -25.856816   1.000000
      7          5.245652   1.000000
      8          7.072022   1.000000
      9         10.733027   1.000000
     10         10.733029   1.000000
     11         10.828077   1.000000
     12         11.420037   1.000000
     13         11.420038   1.000000
     14         12.417940   0.000153
     15         12.417940   0.000153
     16         13.464110   0.000000
     17         14.801888   0.000000
     18         14.801889   0.000000
     19         23.820318   0.000000
     20         26.246556   0.000000
     21         29.208574   0.000000
     22         29.512858   0.000000
     23         33.171432   0.000000
     24         33.171432   0.000000
     25         36.547506   0.000000
     26         36.547506   0.000000
     27         36.945368   0.000000
     28         37.118700   0.000000
     29         37.118700   0.000000
     30         39.198628   0.000000
     31         39.202047   0.000000
     32         42.067357   0.000000
     33         42.067357   0.000000
     34         42.216033   0.000000
     35         47.780509   0.000000
     36         49.308850   0.000000
     37         49.308852   0.000000
     38         49.488202   0.000000
     39         50.525026   0.000000
     40         50.525029   0.000000
     41         54.449824   0.000000
     42         56.734146   0.000000
     43         56.734151   0.000000
     44         57.168112   0.000000
     45         57.168114   0.000000
     46         58.097112   0.000000
     47         60.136710   0.000000
     48         60.136711   0.000000
 
  0.1250000E+00  0.8398875E-17  0.1250000E+00  0.2343750E-01
      1        -26.964896   1.000000
      2        -26.155949   1.000000
      3        -26.070851   1.000000
      4        -26.020131   1.000000
      5        -25.884980   1.000000
      6        -25.856773   1.000000
      7          5.788514   1.000000
      8          7.515795   1.000000
      9         10.108905   1.000000
     10         10.877684   1.000000
     11         11.053766   1.000000
     12         11.135670   1.000000
     13         11.822632   1.000000
     14         11.876915   1.000000
     15         12.200685   0.994370
     16         12.542328   0.000000
     17         14.980667   0.000000
     18         16.873035   0.000000
     19         23.774004   0.000000
     20         27.271066   0.000000
     21         29.839167   0.000000
     22         30.037169   0.000000
     23         31.395194   0.000000
     24         32.346077   0.000000
     25         33.572867   0.000000
     26         35.533145   0.000000
     27         37.357417   0.000000
     28         39.199539   0.000000
     29         39.200300   0.000000
     30         39.311653   0.000000
     31         40.320977   0.000000
     32         41.273153   0.000000
     33         42.169875   0.000000
     34         42.329135   0.000000
     35         44.956636   0.000000
     36         45.763745   0.000000
     37         48.617522   0.000000
     38         50.543162   0.000000
     39         51.070926   0.000000
     40         51.529768   0.000000
     41         54.621775   0.000000
     42         55.080900   0.000000
     43         55.139142   0.000000
     44         58.610114   0.000000
     45         59.279844   0.000000
     46         59.656764   0.000000
     47         59.912801   0.000000
     48         61.519246   0.000000
 
  0.2500000E+00  0.1114043E-16  0.1250000E+00  0.2343750E-01
      1        -26.835378   1.000000
      2        -26.449737   1.000000
      3        -26.326155   1.000000
      4        -26.164570   1.000000
      5        -25.935651   1.000000
      6        -25.921028   1.000000
      7          6.976427   1.000000
      8          8.028875   1.000000
      9          9.409641   1.000000
     10          9.769154   1.000000
     11         10.692080   1.000000
     12         11.228180   1.000000
     13         11.841625   1.000000
     14         12.714680   0.000000
     15         12.932933   0.000000
     16         13.091629   0.000000
     17         15.244745   0.000000
     18         19.382730   0.000000
     19         23.704300   0.000000
     20         26.971995   0.000000
     21         28.541975   0.000000
     22         29.709882   0.000000
     23         30.556187   0.000000
     24         32.220127   0.000000
     25         33.754518   0.000000
     26         36.219415   0.000000
     27         36.670528   0.000000
     28         37.387764   0.000000
     29         38.456375   0.000000
     30         39.199230   0.000000
     31         39.200183   0.000000
     32         41.920436   0.000000
     33         42.226072   0.000000
     34         43.804148   0.000000
     35         44.231085   0.000000
     36         45.607634   0.000000
     37         49.266251   0.000000
     38         49.581503   0.000000
     39         52.005478   0.000000
     40         52.704271   0.000000
     41         53.671553   0.000000
     42         55.947945   0.000000
     43         56.405807   0.000000
     44         57.469153   0.000000
     45         58.209160   0.000000
     46         60.413234   0.000000
     47         60.649732   0.000000
     48         61.794193   0.000000
 
  0.3750000E+00  0.3304630E-16  0.1250000E+00  0.2343750E-01
      1        -26.840899   1.000000
      2        -26.638546   1.000000
      3        -26.539768   1.000000
      4        -26.253378   1.000000
      5        -26.027177   1.000000
      6        -25.989375   1.000000
      7          7.301363   1.000000
      8          7.601600   1.000000
      9          8.644344   1.000000
     10          9.971900   1.000000
     11         10.782617   1.000000
     12         11.425033   1.000000
     13         12.094028   1.000000
     14         14.344820   0.000000
     15         14.524405   0.000000
     16         14.851253   0.000000
     17         15.414239   0.000000
     18         20.682750   0.000000
     19         23.571399   0.000000
     20         24.347672   0.000000
     21         26.972488   0.000000
     22         26.999948   0.000000
     23         29.609719   0.000000
     24         31.593798   0.000000
     25         33.974470   0.000000
     26         34.838426   0.000000
     27         38.036641   0.000000
     28         38.935742   0.000000
     29         39.199492   0.000000
     30         39.200560   0.000000
     31         39.537948   0.000000
     32         41.658456   0.000000
     33         42.242441   0.000000
     34         44.641767   0.000000
     35         45.642114   0.000000
     36         47.148886   0.000000
     37         50.047278   0.000000
     38         50.859085   0.000000
     39         51.134510   0.000000
     40         52.838914   0.000000
     41         53.653851   0.000000
     42         54.148933   0.000000
     43         56.788745   0.000000
     44         56.836573   0.000000
     45         57.878252   0.000000
     46         59.425818   0.000000
     47         59.773068   0.000000
     48         61.599167   0.000000
 
  0.5000000E+00  0.1662353E-16  0.1250000E+00  0.1171875E-01
      1        -26.943048   1.000000
      2        -26.740996   1.000000
      3        -26.467416   1.000000
      4        -26.289085   1.000000
      5        -26.102213   1.000000
      6        -26.012154   1.000000
      7          7.182938   1.000000
      8          7.240615   1.000000
      9          8.461490   1.000000
     10         10.100073   1.000000
     11         10.604370   1.000000
     12         11.814716   1.000000
     13         12.612639   0.000000
     14         15.050980   0.000000
     15         15.352875   0.000000
     16         15.553315   0.000000
     17         17.164455   0.000000
     18         19.055778   0.000000
     19         23.527685   0.000000
     20         24.264271   0.000000
     21         25.672490   0.000000
     22         26.403379   0.000000
     23         27.748239   0.000000
     24         30.922379   0.000000
     25         32.384777   0.000000
     26         35.712158   0.000000
     27         39.153298   0.000000
     28         39.199949   0.000000
     29         39.202441   0.000000
     30         41.168684   0.000000
     31         41.200385   0.000000
     32         41.516294   0.000000
     33         43.430523   0.000000
     34         44.564810   0.000000
     35         47.133565   0.000000
     36         48.045567   0.000000
     37         48.912032   0.000000
     38         49.436343   0.000000
     39         49.773215   0.000000
     40         51.620871   0.000000
     41         53.045252   0.000000
     42         54.091672   0.000000
     43         55.988523   0.000000
     44         58.061004   0.000000
     45         58.121277   0.000000
     46         59.857996   0.000000
     47         59.991533   0.000000
     48         61.601361   0.000000
 
  0.2500000E+00  0.1250000E+00  0.1250000E+00  0.2343750E-01
      1        -26.871788   1.000000
      2        -26.325207   1.000000
      3        -26.288243   1.000000
      4        -26.108657   1.000000
      5        -25.948189   1.000000
      6        -25.895121   1.000000
      7          6.719837   1.000000
      8          8.165929   1.000000
      9          9.454683   1.000000
     10          9.834579   1.000000
     11         10.875859   1.000000
     12         11.070526   1.000000
     13         11.853939   1.000000
     14         12.158648   0.999902
     15         12.712114   0.000000
     16         13.029972   0.000000
     17         15.107505   0.000000
     18         18.819307   0.000000
     19         23.734896   0.000000
     20         28.110682   0.000000
     21         28.965764   0.000000
     22         29.679959   0.000000
     23         30.150677   0.000000
     24         32.520473   0.000000
     25         33.071865   0.000000
     26         35.508301   0.000000
     27         36.657666   0.000000
     28         38.913633   0.000000
     29         39.198588   0.000000
     30         39.200504   0.000000
     31         40.167892   0.000000
     32         41.148905   0.000000
     33         42.553218   0.000000
     34         43.404698   0.000000
     35         44.528250   0.000000
     36         44.661557   0.000000
     37         48.105757   0.000000
     38         49.366085   0.000000
     39         51.269458   0.000000
     40         52.801732   0.000000
     41         52.955934   0.000000
     42         55.466498   0.000000
     43         57.435329   0.000000
     44         57.803164   0.000000
     45         59.622388   0.000000
     46         59.638003   0.000000
     47         61.053774   0.000000
     48         62.378093   0.000000
 
  0.3750000E+00  0.1250000E+00  0.1250000E+00  0.4687500E-01
      1        -26.764333   1.000000
      2        -26.584539   1.000000
      3        -26.491933   1.000000
      4        -26.246338   1.000000
      5        -26.038855   1.000000
      6        -25.978036   1.000000
      7          7.733768   1.000000
      8          8.238244   1.000000