       N       E                     dE             d eps       ncg     rms          rms(c)
DAV:   1    -0.207140416080E+02   -0.20714E+02   -0.17388E-05  2592   0.144E-02    0.906E-03
DAV:   2    -0.207140413752E+02    0.23281E-06   -0.14671E-06  2544   0.420E-03
   1 F= -.20714041E+02 E0= -.20713013E+02  d E =-.205705E-02
       N       E                     dE             ncg
DAV:   1    -0.736588647208E+04   -0.31415E+05     5280
DAV:   2    -0.896803628350E+04   -0.16021E+04     6048
DAV:   3    -0.897031059400E+04   -0.22743E+01     6576
DAV:   4    -0.897031127988E+04   -0.68588E-03     7344
DAV:   5    -0.897031127989E+04   -0.83583E-08     6624
       N       E                     dE             ncg
DAV:   1    -0.776142309556E+04   -0.45930E+05     5664
DAV:   2    -0.907402782467E+04   -0.13126E+04     6048
DAV:   3    -0.907575030685E+04   -0.17225E+01     6816
DAV:   4    -0.907575105083E+04   -0.74398E-03     7392
DAV:   5    -0.907575105084E+04   -0.35725E-08     6240
       N       E                     dE             ncg
DAV:   1    -0.461677563624E+04   -0.18750E+05     4752
DAV:   2    -0.626685852969E+04   -0.16501E+04     6288
DAV:   3    -0.626866691064E+04   -0.18084E+01     5328
DAV:   4    -0.626866762786E+04   -0.71722E-03     7296
DAV:   5    -0.626866762786E+04   -0.50131E-08     5184
