Tc                                      
           1
     2.761870    0.000000    0.000000
     1.380935    2.391850    0.000000
     0.000000    0.000000    4.419050
   Tc
     2
Direct configuration=     1
   0.00000000  0.00000000  0.00000000
   0.33333333  0.33333333  0.50000000
