 DBCSR| CPU Multiplication driver                                           BLAS (U)
 DBCSR| Multrec recursion limit                                              512 (U)
 DBCSR| Multiplication stack size                                           1000 (D)
 DBCSR| Maximum elements for images                                    UNLIMITED (U)
 DBCSR| Multiplicative factor virtual images                                   1 (U)
 DBCSR| Use multiplication densification                                       T (D)
 DBCSR| Multiplication size stacks                                             3 (U)
 DBCSR| Use memory pool for CPU allocation                                     F (U)
 DBCSR| Number of 3D layers                                               SINGLE (U)
 DBCSR| Use MPI memory allocation                                              F (U)
 DBCSR| Use RMA algorithm                                                      F (U)
 DBCSR| Use Communication thread                                               T (U)
 DBCSR| Communication thread load                                             45 (D)
 DBCSR| MPI: My process id                                                     0
 DBCSR| MPI: Number of processes                                               8
 DBCSR| OMP: Current number of threads                                        12
 DBCSR| OMP: Max number of threads                                            12
 DBCSR| Split modifier for TAS multiplication algorithm                  1.0E+00 (U)


  **** **** ******  **  PROGRAM STARTED AT               2025-08-20 16:15:59.089
 ***** ** ***  *** **   PROGRAM STARTED ON                          i01r08c02s01
 **    ****   ******    PROGRAM STARTED BY                               di38fab
 ***** **    ** ** **   PROGRAM PROCESS ID                                 40938
  **** **  *******  **  PROGRAM STARTED IN /hppfs/scratch/04/di38fab/09_GTH/Delt
                                           a_Set/Sb/SZV-MOLOPT-GTH/8x8x8

 CP2K| version string:                 CP2K version 2025.1 (Development Version)
 CP2K| source code revision number:                                  git:3130539
 CP2K| cp2kflags: omp libint fftw3 libxc parallel scalapack max_contr=4         
 CP2K| is freely available from                            https://www.cp2k.org/
 CP2K| Program compiled at                         Tue Jun  3 16:14:32 CEST 2025
 CP2K| Program compiled on                                               login01
 CP2K| Program compiled for                                        Supermuc-foss
 CP2K| Data directory path                  /hppfs/work/pn36zo/di38fab/cp2k/data
 CP2K| Input file name                                                    GW.inp

 GLOBAL| Force Environment number                                              1
 GLOBAL| Basis set file name            /hppfs/scratch/04/di38fab/09_GTH/BASIS_A
 GLOBAL| Potential file name            /hppfs/work/pn36zo/di38fab/cp2k/data/GTH
 GLOBAL| MM Potential file name                                     MM_POTENTIAL
 GLOBAL| Coordinate file name                                             Sb.cif
 GLOBAL| Method name                                                        CP2K
 GLOBAL| Project name                                                       WSe2
 GLOBAL| Run type                                                         ENERGY
 GLOBAL| FFT library                                                       FFTW3
 GLOBAL| Diagonalization library                                       ScaLAPACK
 GLOBAL| Cholesky decomposition library                                ScaLAPACK
 GLOBAL| DGEMM library                                                      BLAS
 GLOBAL| Orthonormality check for eigenvectors                          DISABLED
 GLOBAL| Matrix multiplication library                                 ScaLAPACK
 GLOBAL| All-to-all communication in single precision                          F
 GLOBAL| FFTs using library dependent lengths                                  F
 GLOBAL| Grid backend                                                       AUTO
 GLOBAL| Global print level                                               MEDIUM
 GLOBAL| MPI I/O enabled                                                       T
 GLOBAL| Total number of message passing processes                             8
 GLOBAL| Number of threads for this process                                   12
 GLOBAL| This output is from process                                           0
 GLOBAL| OpenMP stack size per thread (OMP_STACKSIZE)                        64M
 GLOBAL| CPU model name             Intel(R) Xeon(R) Platinum 8174 CPU @ 3.10GHz

 MEMORY| system memory details [Kb]
 MEMORY|                        rank 0           min           max       average
 MEMORY| MemTotal             98436660      98436660      98436660      98436660
 MEMORY| MemFree              87510468      84728748      87510468      86119608
 MEMORY| Buffers                     0             0             0             0
 MEMORY| Cached                2158240       2158240       2423152       2290696
 MEMORY| Slab                   739632        739632       1307272       1023452
 MEMORY| SReclaimable           132536        132536        285792        209164
 MEMORY| MemLikelyFree        89801244      87437692      89801244      88619468


 *** Fundamental physical constants (SI units) ***

 *** Literature: B. J. Mohr and B. N. Taylor,
 ***             CODATA recommended values of the fundamental physical
 ***             constants: 2006, Web Version 5.1
 ***             http://physics.nist.gov/constants

 Speed of light in vacuum [m/s]                             2.99792458000000E+08
 Magnetic constant or permeability of vacuum [N/A**2]       1.25663706143592E-06
 Electric constant or permittivity of vacuum [F/m]          8.85418781762039E-12
 Planck constant (h) [J*s]                                  6.62606896000000E-34
 Planck constant (h-bar) [J*s]                              1.05457162825177E-34
 Elementary charge [C]                                      1.60217648700000E-19
 Electron mass [kg]                                         9.10938215000000E-31
 Electron g factor [ ]                                     -2.00231930436220E+00
 Proton mass [kg]                                           1.67262163700000E-27
 Fine-structure constant                                    7.29735253760000E-03
 Rydberg constant [1/m]                                     1.09737315685270E+07
 Avogadro constant [1/mol]                                  6.02214179000000E+23
 Boltzmann constant [J/K]                                   1.38065040000000E-23
 Atomic mass unit [kg]                                      1.66053878200000E-27
 Bohr radius [m]                                            5.29177208590000E-11

 *** Conversion factors ***

 [u] -> [a.u.]                                              1.82288848426455E+03
 [Angstrom] -> [Bohr] = [a.u.]                              1.88972613288564E+00
 [a.u.] = [Bohr] -> [Angstrom]                              5.29177208590000E-01
 [a.u.] -> [s]                                              2.41888432650478E-17
 [a.u.] -> [fs]                                             2.41888432650478E-02
 [a.u.] -> [J]                                              4.35974393937059E-18
 [a.u.] -> [N]                                              8.23872205491840E-08
 [a.u.] -> [K]                                              3.15774647902944E+05
 [a.u.] -> [kJ/mol]                                         2.62549961709828E+03
 [a.u.] -> [kcal/mol]                                       6.27509468713739E+02
 [a.u.] -> [Pa]                                             2.94210107994716E+13
 [a.u.] -> [bar]                                            2.94210107994716E+08
 [a.u.] -> [atm]                                            2.90362800883016E+08
 [a.u.] -> [eV]                                             2.72113838565563E+01
 [a.u.] -> [Hz]                                             6.57968392072181E+15
 [a.u.] -> [1/cm] (wave numbers)                            2.19474631370540E+05
 [a.u./Bohr**2] -> [1/cm]                                   5.14048714338585E+03
 

 CELL_TOP| Volume [angstrom^3]:                                       190.739125
 CELL_TOP| Vector a [angstrom     4.380     0.000     0.000   |a| =     4.380470
 CELL_TOP| Vector b [angstrom    -2.190     3.794     0.000   |b| =     4.380470
 CELL_TOP| Vector c [angstrom     0.000     0.000    11.478   |c| =    11.478040
 CELL_TOP| Angle (b,c), alpha [degree]:                                90.000000
 CELL_TOP| Angle (a,c), beta  [degree]:                                90.000000
 CELL_TOP| Angle (a,b), gamma [degree]:                               120.000000
 CELL_TOP| Numerically orthorhombic:                                          NO
 CELL_TOP| Periodicity                                                       XYZ

 CELL_CIF| Volume [angstrom^3]:                                       190.739125
 CELL_CIF| Vector a [angstrom     4.380     0.000     0.000   |a| =     4.380470
 CELL_CIF| Vector b [angstrom    -2.190     3.794     0.000   |b| =     4.380470
 CELL_CIF| Vector c [angstrom     0.000     0.000    11.478   |c| =    11.478040
 CELL_CIF| Angle (b,c), alpha [degree]:                                90.000000
 CELL_CIF| Angle (a,c), beta  [degree]:                                90.000000
 CELL_CIF| Angle (a,b), gamma [degree]:                               120.000000
 CELL_CIF| Numerically orthorhombic:                                          NO
 CELL_CIF| Periodicity                                                       XYZ

 GENERATE|  Preliminary Number of Bonds generated:                             0
 GENERATE|  Achieved consistency in connectivity generation.

 CELL| Volume [angstrom^3]:                                           190.739125
 CELL| Vector a [angstrom]:       4.380     0.000     0.000   |a| =     4.380470
 CELL| Vector b [angstrom]:      -2.190     3.794     0.000   |b| =     4.380470
 CELL| Vector c [angstrom]:       0.000     0.000    11.478   |c| =    11.478040
 CELL| Angle (b,c), alpha [degree]:                                    90.000000
 CELL| Angle (a,c), beta  [degree]:                                    90.000000
 CELL| Angle (a,b), gamma [degree]:                                   120.000000
 CELL| Numerically orthorhombic:                                              NO
 CELL| Periodicity                                                           XYZ

 CELL_REF| Volume [angstrom^3]:                                       190.739125
 CELL_REF| Vector a [angstrom     4.380     0.000     0.000   |a| =     4.380470
 CELL_REF| Vector b [angstrom    -2.190     3.794     0.000   |b| =     4.380470
 CELL_REF| Vector c [angstrom     0.000     0.000    11.478   |c| =    11.478040
 CELL_REF| Angle (b,c), alpha [degree]:                                90.000000
 CELL_REF| Angle (a,c), beta  [degree]:                                90.000000
 CELL_REF| Angle (a,b), gamma [degree]:                               120.000000
 CELL_REF| Numerically orthorhombic:                                          NO
 CELL_REF| Periodicity                                                       XYZ

 *** WARNING in cryssym.F:180 :: Symmetry library SPGLIB not available ***


 *******************************************************************************
                                    Kpoints
 *******************************************************************************
 BRILLOUIN| K-point scheme                                        Monkhorst-Pack
 BRILLOUIN| K-Point grid                                             8    8    8
 BRILLOUIN| Accuracy in Symmetry determination                      0.100000E-05
 BRILLOUIN| K-Point point group symmetrization                               OFF
 BRILLOUIN| Wavefunction type                                            COMPLEX
 BRILLOUIN| List of Kpoints [2 Pi/Bohr]                                      256
 BRILLOUIN| Number           Weight            X              Y              Z
 BRILLOUIN|     1           0.00391       -0.43750       -0.43750       -0.43750
 BRILLOUIN|     2           0.00391       -0.43750       -0.43750       -0.31250
 BRILLOUIN|     3           0.00391       -0.43750       -0.43750       -0.18750
 BRILLOUIN|     4           0.00391       -0.43750       -0.43750       -0.06250
 BRILLOUIN|     5           0.00391       -0.43750       -0.43750        0.06250
 BRILLOUIN|     6           0.00391       -0.43750       -0.43750        0.18750
 BRILLOUIN|     7           0.00391       -0.43750       -0.43750        0.31250
 BRILLOUIN|     8           0.00391       -0.43750       -0.43750        0.43750
 BRILLOUIN|     9           0.00391       -0.43750       -0.31250       -0.43750
 BRILLOUIN|    10           0.00391       -0.43750       -0.31250       -0.31250
 BRILLOUIN|    11           0.00391       -0.43750       -0.31250       -0.18750
 BRILLOUIN|    12           0.00391       -0.43750       -0.31250       -0.06250
 BRILLOUIN|    13           0.00391       -0.43750       -0.31250        0.06250
 BRILLOUIN|    14           0.00391       -0.43750       -0.31250        0.18750
 BRILLOUIN|    15           0.00391       -0.43750       -0.31250        0.31250
 BRILLOUIN|    16           0.00391       -0.43750       -0.31250        0.43750
 BRILLOUIN|    17           0.00391       -0.43750       -0.18750       -0.43750
 BRILLOUIN|    18           0.00391       -0.43750       -0.18750       -0.31250
 BRILLOUIN|    19           0.00391       -0.43750       -0.18750       -0.18750
 BRILLOUIN|    20           0.00391       -0.43750       -0.18750       -0.06250
 BRILLOUIN|    21           0.00391       -0.43750       -0.18750        0.06250
 BRILLOUIN|    22           0.00391       -0.43750       -0.18750        0.18750
 BRILLOUIN|    23           0.00391       -0.43750       -0.18750        0.31250
 BRILLOUIN|    24           0.00391       -0.43750       -0.18750        0.43750
 BRILLOUIN|    25           0.00391       -0.43750       -0.06250       -0.43750
 BRILLOUIN|    26           0.00391       -0.43750       -0.06250       -0.31250
 BRILLOUIN|    27           0.00391       -0.43750       -0.06250       -0.18750
 BRILLOUIN|    28           0.00391       -0.43750       -0.06250       -0.06250
 BRILLOUIN|    29           0.00391       -0.43750       -0.06250        0.06250
 BRILLOUIN|    30           0.00391       -0.43750       -0.06250        0.18750
 BRILLOUIN|    31           0.00391       -0.43750       -0.06250        0.31250
 BRILLOUIN|    32           0.00391       -0.43750       -0.06250        0.43750
 BRILLOUIN|    33           0.00391       -0.43750        0.06250       -0.43750
 BRILLOUIN|    34           0.00391       -0.43750        0.06250       -0.31250
 BRILLOUIN|    35           0.00391       -0.43750        0.06250       -0.18750
 BRILLOUIN|    36           0.00391       -0.43750        0.06250       -0.06250
 BRILLOUIN|    37           0.00391       -0.43750        0.06250        0.06250
 BRILLOUIN|    38           0.00391       -0.43750        0.06250        0.18750
 BRILLOUIN|    39           0.00391       -0.43750        0.06250        0.31250
 BRILLOUIN|    40           0.00391       -0.43750        0.06250        0.43750
 BRILLOUIN|    41           0.00391       -0.43750        0.18750       -0.43750
 BRILLOUIN|    42           0.00391       -0.43750        0.18750       -0.31250
 BRILLOUIN|    43           0.00391       -0.43750        0.18750       -0.18750
 BRILLOUIN|    44           0.00391       -0.43750        0.18750       -0.06250
 BRILLOUIN|    45           0.00391       -0.43750        0.18750        0.06250
 BRILLOUIN|    46           0.00391       -0.43750        0.18750        0.18750
 BRILLOUIN|    47           0.00391       -0.43750        0.18750        0.31250
 BRILLOUIN|    48           0.00391       -0.43750        0.18750        0.43750
 BRILLOUIN|    49           0.00391       -0.43750        0.31250       -0.43750
 BRILLOUIN|    50           0.00391       -0.43750        0.31250       -0.31250
 BRILLOUIN|    51           0.00391       -0.43750        0.31250       -0.18750
 BRILLOUIN|    52           0.00391       -0.43750        0.31250       -0.06250
 BRILLOUIN|    53           0.00391       -0.43750        0.31250        0.06250
 BRILLOUIN|    54           0.00391       -0.43750        0.31250        0.18750
 BRILLOUIN|    55           0.00391       -0.43750        0.31250        0.31250
 BRILLOUIN|    56           0.00391       -0.43750        0.31250        0.43750
 BRILLOUIN|    57           0.00391       -0.43750        0.43750       -0.43750
 BRILLOUIN|    58           0.00391       -0.43750        0.43750       -0.31250
 BRILLOUIN|    59           0.00391       -0.43750        0.43750       -0.18750
 BRILLOUIN|    60           0.00391       -0.43750        0.43750       -0.06250
 BRILLOUIN|    61           0.00391       -0.43750        0.43750        0.06250
 BRILLOUIN|    62           0.00391       -0.43750        0.43750        0.18750
 BRILLOUIN|    63           0.00391       -0.43750        0.43750        0.31250
 BRILLOUIN|    64           0.00391       -0.43750        0.43750        0.43750
 BRILLOUIN|    65           0.00391       -0.31250       -0.43750       -0.43750
 BRILLOUIN|    66           0.00391       -0.31250       -0.43750       -0.31250
 BRILLOUIN|    67           0.00391       -0.31250       -0.43750       -0.18750
 BRILLOUIN|    68           0.00391       -0.31250       -0.43750       -0.06250
 BRILLOUIN|    69           0.00391       -0.31250       -0.43750        0.06250
 BRILLOUIN|    70           0.00391       -0.31250       -0.43750        0.18750
 BRILLOUIN|    71           0.00391       -0.31250       -0.43750        0.31250
 BRILLOUIN|    72           0.00391       -0.31250       -0.43750        0.43750
 BRILLOUIN|    73           0.00391       -0.31250       -0.31250       -0.43750
 BRILLOUIN|    74           0.00391       -0.31250       -0.31250       -0.31250
 BRILLOUIN|    75           0.00391       -0.31250       -0.31250       -0.18750
 BRILLOUIN|    76           0.00391       -0.31250       -0.31250       -0.06250
 BRILLOUIN|    77           0.00391       -0.31250       -0.31250        0.06250
 BRILLOUIN|    78           0.00391       -0.31250       -0.31250        0.18750
 BRILLOUIN|    79           0.00391       -0.31250       -0.31250        0.31250
 BRILLOUIN|    80           0.00391       -0.31250       -0.31250        0.43750
 BRILLOUIN|    81           0.00391       -0.31250       -0.18750       -0.43750
 BRILLOUIN|    82           0.00391       -0.31250       -0.18750       -0.31250
 BRILLOUIN|    83           0.00391       -0.31250       -0.18750       -0.18750
 BRILLOUIN|    84           0.00391       -0.31250       -0.18750       -0.06250
 BRILLOUIN|    85           0.00391       -0.31250       -0.18750        0.06250
 BRILLOUIN|    86           0.00391       -0.31250       -0.18750        0.18750
 BRILLOUIN|    87           0.00391       -0.31250       -0.18750        0.31250
 BRILLOUIN|    88           0.00391       -0.31250       -0.18750        0.43750
 BRILLOUIN|    89           0.00391       -0.31250       -0.06250       -0.43750
 BRILLOUIN|    90           0.00391       -0.31250       -0.06250       -0.31250
 BRILLOUIN|    91           0.00391       -0.31250       -0.06250       -0.18750
 BRILLOUIN|    92           0.00391       -0.31250       -0.06250       -0.06250
 BRILLOUIN|    93           0.00391       -0.31250       -0.06250        0.06250
 BRILLOUIN|    94           0.00391       -0.31250       -0.06250        0.18750
 BRILLOUIN|    95           0.00391       -0.31250       -0.06250        0.31250
 BRILLOUIN|    96           0.00391       -0.31250       -0.06250        0.43750
 BRILLOUIN|    97           0.00391       -0.31250        0.06250       -0.43750
 BRILLOUIN|    98           0.00391       -0.31250        0.06250       -0.31250
 BRILLOUIN|    99           0.00391       -0.31250        0.06250       -0.18750
 BRILLOUIN|   100           0.00391       -0.31250        0.06250       -0.06250
 BRILLOUIN|   101           0.00391       -0.31250        0.06250        0.06250
 BRILLOUIN|   102           0.00391       -0.31250        0.06250        0.18750
 BRILLOUIN|   103           0.00391       -0.31250        0.06250        0.31250
 BRILLOUIN|   104           0.00391       -0.31250        0.06250        0.43750
 BRILLOUIN|   105           0.00391       -0.31250        0.18750       -0.43750
 BRILLOUIN|   106           0.00391       -0.31250        0.18750       -0.31250
 BRILLOUIN|   107           0.00391       -0.31250        0.18750       -0.18750
 BRILLOUIN|   108           0.00391       -0.31250        0.18750       -0.06250
 BRILLOUIN|   109           0.00391       -0.31250        0.18750        0.06250
 BRILLOUIN|   110           0.00391       -0.31250        0.18750        0.18750
 BRILLOUIN|   111           0.00391       -0.31250        0.18750        0.31250
 BRILLOUIN|   112           0.00391       -0.31250        0.18750        0.43750
 BRILLOUIN|   113           0.00391       -0.31250        0.31250       -0.43750
 BRILLOUIN|   114           0.00391       -0.31250        0.31250       -0.31250
 BRILLOUIN|   115           0.00391       -0.31250        0.31250       -0.18750
 BRILLOUIN|   116           0.00391       -0.31250        0.31250       -0.06250
 BRILLOUIN|   117           0.00391       -0.31250        0.31250        0.06250
 BRILLOUIN|   118           0.00391       -0.31250        0.31250        0.18750
 BRILLOUIN|   119           0.00391       -0.31250        0.31250        0.31250
 BRILLOUIN|   120           0.00391       -0.31250        0.31250        0.43750
 BRILLOUIN|   121           0.00391       -0.31250        0.43750       -0.43750
 BRILLOUIN|   122           0.00391       -0.31250        0.43750       -0.31250
 BRILLOUIN|   123           0.00391       -0.31250        0.43750       -0.18750
 BRILLOUIN|   124           0.00391       -0.31250        0.43750       -0.06250
 BRILLOUIN|   125           0.00391       -0.31250        0.43750        0.06250
 BRILLOUIN|   126           0.00391       -0.31250        0.43750        0.18750
 BRILLOUIN|   127           0.00391       -0.31250        0.43750        0.31250
 BRILLOUIN|   128           0.00391       -0.31250        0.43750        0.43750
 BRILLOUIN|   129           0.00391       -0.18750       -0.43750       -0.43750
 BRILLOUIN|   130           0.00391       -0.18750       -0.43750       -0.31250
 BRILLOUIN|   131           0.00391       -0.18750       -0.43750       -0.18750
 BRILLOUIN|   132           0.00391       -0.18750       -0.43750       -0.06250
 BRILLOUIN|   133           0.00391       -0.18750       -0.43750        0.06250
 BRILLOUIN|   134           0.00391       -0.18750       -0.43750        0.18750
 BRILLOUIN|   135           0.00391       -0.18750       -0.43750        0.31250
 BRILLOUIN|   136           0.00391       -0.18750       -0.43750        0.43750
 BRILLOUIN|   137           0.00391       -0.18750       -0.31250       -0.43750
 BRILLOUIN|   138           0.00391       -0.18750       -0.31250       -0.31250
 BRILLOUIN|   139           0.00391       -0.18750       -0.31250       -0.18750
 BRILLOUIN|   140           0.00391       -0.18750       -0.31250       -0.06250
 BRILLOUIN|   141           0.00391       -0.18750       -0.31250        0.06250
 BRILLOUIN|   142           0.00391       -0.18750       -0.31250        0.18750
 BRILLOUIN|   143           0.00391       -0.18750       -0.31250        0.31250
 BRILLOUIN|   144           0.00391       -0.18750       -0.31250        0.43750
 BRILLOUIN|   145           0.00391       -0.18750       -0.18750       -0.43750
 BRILLOUIN|   146           0.00391       -0.18750       -0.18750       -0.31250
 BRILLOUIN|   147           0.00391       -0.18750       -0.18750       -0.18750
 BRILLOUIN|   148           0.00391       -0.18750       -0.18750       -0.06250
 BRILLOUIN|   149           0.00391       -0.18750       -0.18750        0.06250
 BRILLOUIN|   150           0.00391       -0.18750       -0.18750        0.18750
 BRILLOUIN|   151           0.00391       -0.18750       -0.18750        0.31250
 BRILLOUIN|   152           0.00391       -0.18750       -0.18750        0.43750
 BRILLOUIN|   153           0.00391       -0.18750       -0.06250       -0.43750
 BRILLOUIN|   154           0.00391       -0.18750       -0.06250       -0.31250
 BRILLOUIN|   155           0.00391       -0.18750       -0.06250       -0.18750
 BRILLOUIN|   156           0.00391       -0.18750       -0.06250       -0.06250
 BRILLOUIN|   157           0.00391       -0.18750       -0.06250        0.06250
 BRILLOUIN|   158           0.00391       -0.18750       -0.06250        0.18750
 BRILLOUIN|   159           0.00391       -0.18750       -0.06250        0.31250
 BRILLOUIN|   160           0.00391       -0.18750       -0.06250        0.43750
 BRILLOUIN|   161           0.00391       -0.18750        0.06250       -0.43750
 BRILLOUIN|   162           0.00391       -0.18750        0.06250       -0.31250
 BRILLOUIN|   163           0.00391       -0.18750        0.06250       -0.18750
 BRILLOUIN|   164           0.00391       -0.18750        0.06250       -0.06250
 BRILLOUIN|   165           0.00391       -0.18750        0.06250        0.06250
 BRILLOUIN|   166           0.00391       -0.18750        0.06250        0.18750
 BRILLOUIN|   167           0.00391       -0.18750        0.06250        0.31250
 BRILLOUIN|   168           0.00391       -0.18750        0.06250        0.43750
 BRILLOUIN|   169           0.00391       -0.18750        0.18750       -0.43750
 BRILLOUIN|   170           0.00391       -0.18750        0.18750       -0.31250
 BRILLOUIN|   171           0.00391       -0.18750        0.18750       -0.18750
 BRILLOUIN|   172           0.00391       -0.18750        0.18750       -0.06250
 BRILLOUIN|   173           0.00391       -0.18750        0.18750        0.06250
 BRILLOUIN|   174           0.00391       -0.18750        0.18750        0.18750
 BRILLOUIN|   175           0.00391       -0.18750        0.18750        0.31250
 BRILLOUIN|   176           0.00391       -0.18750        0.18750        0.43750
 BRILLOUIN|   177           0.00391       -0.18750        0.31250       -0.43750
 BRILLOUIN|   178           0.00391       -0.18750        0.31250       -0.31250
 BRILLOUIN|   179           0.00391       -0.18750        0.31250       -0.18750
 BRILLOUIN|   180           0.00391       -0.18750        0.31250       -0.06250
 BRILLOUIN|   181           0.00391       -0.18750        0.31250        0.06250
 BRILLOUIN|   182           0.00391       -0.18750        0.31250        0.18750
 BRILLOUIN|   183           0.00391       -0.18750        0.31250        0.31250
 BRILLOUIN|   184           0.00391       -0.18750        0.31250        0.43750
 BRILLOUIN|   185           0.00391       -0.18750        0.43750       -0.43750
 BRILLOUIN|   186           0.00391       -0.18750        0.43750       -0.31250
 BRILLOUIN|   187           0.00391       -0.18750        0.43750       -0.18750
 BRILLOUIN|   188           0.00391       -0.18750        0.43750       -0.06250
 BRILLOUIN|   189           0.00391       -0.18750        0.43750        0.06250
 BRILLOUIN|   190           0.00391       -0.18750        0.43750        0.18750
 BRILLOUIN|   191           0.00391       -0.18750        0.43750        0.31250
 BRILLOUIN|   192           0.00391       -0.18750        0.43750        0.43750
 BRILLOUIN|   193           0.00391       -0.06250       -0.43750       -0.43750
 BRILLOUIN|   194           0.00391       -0.06250       -0.43750       -0.31250
 BRILLOUIN|   195           0.00391       -0.06250       -0.43750       -0.18750
 BRILLOUIN|   196           0.00391       -0.06250       -0.43750       -0.06250
 BRILLOUIN|   197           0.00391       -0.06250       -0.43750        0.06250
 BRILLOUIN|   198           0.00391       -0.06250       -0.43750        0.18750
 BRILLOUIN|   199           0.00391       -0.06250       -0.43750        0.31250
 BRILLOUIN|   200           0.00391       -0.06250       -0.43750        0.43750
 BRILLOUIN|   201           0.00391       -0.06250       -0.31250       -0.43750
 BRILLOUIN|   202           0.00391       -0.06250       -0.31250       -0.31250
 BRILLOUIN|   203           0.00391       -0.06250       -0.31250       -0.18750
 BRILLOUIN|   204           0.00391       -0.06250       -0.31250       -0.06250
 BRILLOUIN|   205           0.00391       -0.06250       -0.31250        0.06250
 BRILLOUIN|   206           0.00391       -0.06250       -0.31250        0.18750
 BRILLOUIN|   207           0.00391       -0.06250       -0.31250        0.31250
 BRILLOUIN|   208           0.00391       -0.06250       -0.31250        0.43750
 BRILLOUIN|   209           0.00391       -0.06250       -0.18750       -0.43750
 BRILLOUIN|   210           0.00391       -0.06250       -0.18750       -0.31250
 BRILLOUIN|   211           0.00391       -0.06250       -0.18750       -0.18750
 BRILLOUIN|   212           0.00391       -0.06250       -0.18750       -0.06250
 BRILLOUIN|   213           0.00391       -0.06250       -0.18750        0.06250
 BRILLOUIN|   214           0.00391       -0.06250       -0.18750        0.18750
 BRILLOUIN|   215           0.00391       -0.06250       -0.18750        0.31250
 BRILLOUIN|   216           0.00391       -0.06250       -0.18750        0.43750
 BRILLOUIN|   217           0.00391       -0.06250       -0.06250       -0.43750
 BRILLOUIN|   218           0.00391       -0.06250       -0.06250       -0.31250
 BRILLOUIN|   219           0.00391       -0.06250       -0.06250       -0.18750
 BRILLOUIN|   220           0.00391       -0.06250       -0.06250       -0.06250
 BRILLOUIN|   221           0.00391       -0.06250       -0.06250        0.06250
 BRILLOUIN|   222           0.00391       -0.06250       -0.06250        0.18750
 BRILLOUIN|   223           0.00391       -0.06250       -0.06250        0.31250
 BRILLOUIN|   224           0.00391       -0.06250       -0.06250        0.43750
 BRILLOUIN|   225           0.00391       -0.06250        0.06250       -0.43750
 BRILLOUIN|   226           0.00391       -0.06250        0.06250       -0.31250
 BRILLOUIN|   227           0.00391       -0.06250        0.06250       -0.18750
 BRILLOUIN|   228           0.00391       -0.06250        0.06250       -0.06250
 BRILLOUIN|   229           0.00391       -0.06250        0.06250        0.06250
 BRILLOUIN|   230           0.00391       -0.06250        0.06250        0.18750
 BRILLOUIN|   231           0.00391       -0.06250        0.06250        0.31250
 BRILLOUIN|   232           0.00391       -0.06250        0.06250        0.43750
 BRILLOUIN|   233           0.00391       -0.06250        0.18750       -0.43750
 BRILLOUIN|   234           0.00391       -0.06250        0.18750       -0.31250
 BRILLOUIN|   235           0.00391       -0.06250        0.18750       -0.18750
 BRILLOUIN|   236           0.00391       -0.06250        0.18750       -0.06250
 BRILLOUIN|   237           0.00391       -0.06250        0.18750        0.06250
 BRILLOUIN|   238           0.00391       -0.06250        0.18750        0.18750
 BRILLOUIN|   239           0.00391       -0.06250        0.18750        0.31250
 BRILLOUIN|   240           0.00391       -0.06250        0.18750        0.43750
 BRILLOUIN|   241           0.00391       -0.06250        0.31250       -0.43750
 BRILLOUIN|   242           0.00391       -0.06250        0.31250       -0.31250
 BRILLOUIN|   243           0.00391       -0.06250        0.31250       -0.18750
 BRILLOUIN|   244           0.00391       -0.06250        0.31250       -0.06250
 BRILLOUIN|   245           0.00391       -0.06250        0.31250        0.06250
 BRILLOUIN|   246           0.00391       -0.06250        0.31250        0.18750
 BRILLOUIN|   247           0.00391       -0.06250        0.31250        0.31250
 BRILLOUIN|   248           0.00391       -0.06250        0.31250        0.43750
 BRILLOUIN|   249           0.00391       -0.06250        0.43750       -0.43750
 BRILLOUIN|   250           0.00391       -0.06250        0.43750       -0.31250
 BRILLOUIN|   251           0.00391       -0.06250        0.43750       -0.18750
 BRILLOUIN|   252           0.00391       -0.06250        0.43750       -0.06250
 BRILLOUIN|   253           0.00391       -0.06250        0.43750        0.06250
 BRILLOUIN|   254           0.00391       -0.06250        0.43750        0.18750
 BRILLOUIN|   255           0.00391       -0.06250        0.43750        0.31250
 BRILLOUIN|   256           0.00391       -0.06250        0.43750        0.43750
 *******************************************************************************

 *******************************************************************************
 *******************************************************************************
 **                                                                           **
 **     #####                         ##              ##                      **
 **    ##   ##            ##          ##              ##                      **
 **   ##     ##                       ##            ######                    **
 **   ##     ##  ##   ##  ##   #####  ##  ##   ####   ##    #####    #####    **
 **   ##     ##  ##   ##  ##  ##      ## ##   ##      ##   ##   ##  ##   ##   **
 **   ##  ## ##  ##   ##  ##  ##      ####     ###    ##   ######   ######    **
 **    ##  ###   ##   ##  ##  ##      ## ##      ##   ##   ##       ##        **
 **     #######   #####   ##   #####  ##  ##  ####    ##    #####   ##        **
 **           ##                                                    ##        **
 **                                                                           **
 **                                                ... make the atoms dance   **
 **                                                                           **
 **            Copyright (C) by CP2K developers group (2000-2025)             **
 **                      J. Chem. Phys. 152, 194103 (2020)                    **
 **                                                                           **
 *******************************************************************************

 DFT| Spin restricted Kohn-Sham (RKS) calculation                            RKS
 DFT| Multiplicity                                                             1
 DFT| Number of spin states                                                    1
 DFT| Charge                                                                   0
 DFT| Self-interaction correction (SIC)                                       NO
 DFT| Cutoffs: density                                              1.000000E-10
 DFT|          gradient                                             1.000000E-10
 DFT|          tau                                                  1.000000E-10
 DFT|          cutoff_smoothing_range                               0.000000E+00
 DFT| XC density smoothing                                                  NONE
 DFT| XC derivatives                                                          PW

 FUNCTIONAL| PBE:
 FUNCTIONAL| J.P.Perdew, K.Burke, M.Ernzerhof, Phys. Rev. Letter, vol. 77, n 18,
 FUNCTIONAL|  pp. 3865-3868, (1996) {spin unpolarized}                          


 QS| Method:                                                                 GPW
 QS| Density plane wave grid type                        NON-SPHERICAL FULLSPACE
 QS| Number of grid levels:                                                    4
 QS| Density cutoff [a.u.]:                                                500.0
 QS| Multi grid cutoff [a.u.]: 1) grid level                               500.0
 QS|                           2) grid level                               166.7
 QS|                           3) grid level                                55.6
 QS|                           4) grid level                                18.5
 QS| Grid level progression factor:                                          3.0
 QS| Relative density cutoff [a.u.]:                                        50.0
 QS| Interaction thresholds: eps_pgf_orb:                                1.0E-16
 QS|                         eps_filter_matrix:                          0.0E+00
 QS|                         eps_core_charge:                            1.0E-18
 QS|                         eps_rho_gspace:                             1.0E-16
 QS|                         eps_rho_rspace:                             1.0E-16
 QS|                         eps_gvg_rspace:                             1.0E-08
 QS|                         eps_ppl:                                    1.0E-02
 QS|                         eps_ppnl:                                   1.0E-10


 ATOMIC KIND INFORMATION

  1. Atomic kind: Sb                                    Number of atoms:       6

     Orbital Basis Set                                      SZV-MOLOPT-SR-GTH-q5

       Number of orbital shell sets:                                           1
       Number of orbital shells:                                               2
       Number of primitive Cartesian functions:                                5
       Number of Cartesian basis functions:                                    4
       Number of spherical basis functions:                                    4
       Norm type:                                                              2

       Normalised Cartesian orbitals:

                        Set   Shell   Orbital            Exponent    Coefficient

                          1       1    2s                0.757214       0.472439
                                                         0.576116      -0.195451
                                                         0.244349      -0.180089
                                                         0.160329      -0.056377
                                                         0.073466      -0.020349

                          1       2    3px               0.757214       0.585212
                                                         0.576116      -0.435805
                                                         0.244349      -0.071217
                                                         0.160329      -0.067942
                                                         0.073466      -0.010697
                          1       2    3py               0.757214       0.585212
                                                         0.576116      -0.435805
                                                         0.244349      -0.071217
                                                         0.160329      -0.067942
                                                         0.073466      -0.010697
                          1       2    3pz               0.757214       0.585212
                                                         0.576116      -0.435805
                                                         0.244349      -0.071217
                                                         0.160329      -0.067942
                                                         0.073466      -0.010697

       Atomic covalent radius [Angstrom]:                                  1.400

       Atomic van der Waals radius [Angstrom]:                             2.060

     GTH Potential information for                                    GTH-PBE-q5

       Description:                       Goedecker-Teter-Hutter pseudopotential
                                           Goedecker et al., PRB 54, 1703 (1996)
                                          Hartwigsen et al., PRB 58, 3641 (1998)
                                                      Krack, TCA 114, 145 (2005)

       Gaussian exponent of the core charge distribution:               1.436369
       Electronic configuration (s p d ...):                               2   3

       Parameters of the local part of the GTH pseudopotential:

                          rloc        C1          C2          C3          C4
                        0.590000    7.928521

       Parameters of the non-local part of the GTH (SOC) pseudopotential:

                   l      r(l)      h(i,j,l)
                                    k(i,j,l)
                   0    0.556136    1.430478    1.261426   -0.923234
                                    1.261426   -3.130133    2.383779
                                   -0.923234    2.383779   -1.892066
                   1    0.622755    0.561472    0.304845
                                    0.304845   -0.360698
                                    0.237472   -0.109074
                                   -0.109074    0.129058
                   2    0.889486    0.270869
                                    0.006967


 MOLECULE KIND INFORMATION


 All atoms are their own molecule, skipping detailed information


 TOTAL NUMBERS AND MAXIMUM NUMBERS

  Total number of            - Atomic kinds:                                   1
                             - Atoms:                                          6
                             - Shell sets:                                     6
                             - Shells:                                        12
                             - Primitive Cartesian functions:                 30
                             - Cartesian basis functions:                     24
                             - Spherical basis functions:                     24

  Maximum angular momentum of- Orbital basis functions:                        1
                             - Local part of the GTH pseudopotential:          0
                             - Non-local part of the GTH pseudopotential:      4


 MODULE QUICKSTEP: ATOMIC COORDINATES IN ANGSTROM

   Atom Kind Element         X             Y             Z       Z(eff)     Mass
      1    1 Sb   51      0.000000      0.000000      2.678056   5.0000 121.7600
      2    1 Sb   51      0.000000      0.000000      8.799984   5.0000 121.7600
      3    1 Sb   51      2.190257      1.264520      6.504146   5.0000 121.7600
      4    1 Sb   51      2.190257      1.264520      1.147919   5.0000 121.7600
      5    1 Sb   51     -0.000022      2.529078     10.330121   5.0000 121.7600
      6    1 Sb   51     -0.000022      2.529078      4.973894   5.0000 121.7600



 SCF PARAMETERS         Density guess:                                   RESTART
                        --------------------------------------------------------
                        max_scf:                                             500
                        max_scf_history:                                       0
                        max_diis:                                              4
                        --------------------------------------------------------
                        eps_scf:                                        1.00E-09
                        eps_scf_history:                                0.00E+00
                        eps_diis:                                       1.00E-01
                        eps_eigval:                                     1.00E-05
                        --------------------------------------------------------
                        level_shift [a.u.]:                             0.000000
                        added MOs                                         9    0
                        --------------------------------------------------------
                        Mixing method:                            BROYDEN_MIXING
                                                charge density mixing in g-space
                        --------------------------------------------------------
                        No outer SCF

 PW_GRID| Information for grid number                                          1
 PW_GRID| Grid distributed over                                     8 processors
 PW_GRID| Real space group dimensions                                     8    1
 PW_GRID| the grid is blocked:                                                NO
 PW_GRID| Cutoff [a.u.]                                                    500.0
 PW_GRID| spherical cutoff:                                                   NO
 PW_GRID|   Bounds   1            -45      44                Points:          90
 PW_GRID|   Bounds   2            -45      44                Points:          90
 PW_GRID|   Bounds   3           -112     112                Points:         225
 PW_GRID| Volume element (a.u.^3)  0.7063E-03     Volume (a.u.^3)      1287.1714
 PW_GRID| Grid span                                                    FULLSPACE
 PW_GRID|   Distribution                         Average         Max         Min
 PW_GRID|   G-Vectors                           227812.5      227880      227790
 PW_GRID|   G-Rays                                2531.2        2532        2531
 PW_GRID|   Real Space Points                   227812.5      243000      222750

 PW_GRID| Information for grid number                                          2
 PW_GRID| Number of the reference grid                                         1
 PW_GRID| Grid distributed over                                     8 processors
 PW_GRID| Real space group dimensions                                     8    1
 PW_GRID| the grid is blocked:                                                NO
 PW_GRID| Cutoff [a.u.]                                                    166.7
 PW_GRID| spherical cutoff:                                                   NO
 PW_GRID|   Bounds   1            -27      26                Points:          54
 PW_GRID|   Bounds   2            -27      26                Points:          54
 PW_GRID|   Bounds   3            -64      63                Points:         128
 PW_GRID| Volume element (a.u.^3)  0.3449E-02     Volume (a.u.^3)      1287.1714
 PW_GRID| Grid span                                                    FULLSPACE
 PW_GRID|   Distribution                         Average         Max         Min
 PW_GRID|   G-Vectors                            46656.0       46764       46602
 PW_GRID|   G-Rays                                 864.0         866         863
 PW_GRID|   Real Space Points                    46656.0       48384       41472

 PW_GRID| Information for grid number                                          3
 PW_GRID| Number of the reference grid                                         1
 PW_GRID| Grid distributed over                                     8 processors
 PW_GRID| Real space group dimensions                                     8    1
 PW_GRID| the grid is blocked:                                                NO
 PW_GRID| Cutoff [a.u.]                                                     55.6
 PW_GRID| spherical cutoff:                                                   NO
 PW_GRID|   Bounds   1            -13      13                Points:          27
 PW_GRID|   Bounds   2            -13      13                Points:          27
 PW_GRID|   Bounds   3            -37      37                Points:          75
 PW_GRID| Volume element (a.u.^3)  0.2354E-01     Volume (a.u.^3)      1287.1714
 PW_GRID| Grid span                                                    FULLSPACE
 PW_GRID|   Distribution                         Average         Max         Min
 PW_GRID|   G-Vectors                             6834.4        6966        6750
 PW_GRID|   G-Rays                                 253.1         258         250
 PW_GRID|   Real Space Points                     6834.4        8100        6075

 PW_GRID| Information for grid number                                          4
 PW_GRID| Number of the reference grid                                         1
 PW_GRID| Grid distributed over                                     8 processors
 PW_GRID| Real space group dimensions                                     8    1
 PW_GRID| the grid is blocked:                                                NO
 PW_GRID| Cutoff [a.u.]                                                     18.5
 PW_GRID| spherical cutoff:                                                   NO
 PW_GRID|   Bounds   1             -9       8                Points:          18
 PW_GRID|   Bounds   2             -9       8                Points:          18
 PW_GRID|   Bounds   3            -22      22                Points:          45
 PW_GRID| Volume element (a.u.^3)  0.8828E-01     Volume (a.u.^3)      1287.1714
 PW_GRID| Grid span                                                    FULLSPACE
 PW_GRID|   Distribution                         Average         Max         Min
 PW_GRID|   G-Vectors                             1822.5        1854        1800
 PW_GRID|   G-Rays                                 101.2         103         100
 PW_GRID|   Real Space Points                     1822.5        2430        1620

 POISSON| Solver                                                        PERIODIC
 POISSON| Periodicity                                                        XYZ

 RS_GRID| Information for grid number                                          1
 RS_GRID|   Bounds   1            -45      44                Points:          90
 RS_GRID|   Bounds   2            -45      44                Points:          90
 RS_GRID|   Bounds   3           -112     112                Points:         225
 RS_GRID| Real space fully replicated
 RS_GRID| Group size                                                           1

 RS_GRID| Information for grid number                                          2
 RS_GRID|   Bounds   1            -27      26                Points:          54
 RS_GRID|   Bounds   2            -27      26                Points:          54
 RS_GRID|   Bounds   3            -64      63                Points:         128
 RS_GRID| Real space fully replicated
 RS_GRID| Group size                                                           1

 RS_GRID| Information for grid number                                          3
 RS_GRID|   Bounds   1            -13      13                Points:          27
 RS_GRID|   Bounds   2            -13      13                Points:          27
 RS_GRID|   Bounds   3            -37      37                Points:          75
 RS_GRID| Real space fully replicated
 RS_GRID| Group size                                                           1

 RS_GRID| Information for grid number                                          4
 RS_GRID|   Bounds   1             -9       8                Points:          18
 RS_GRID|   Bounds   2             -9       8                Points:          18
 RS_GRID|   Bounds   3            -22      22                Points:          45
 RS_GRID| Real space fully replicated
 RS_GRID| Group size                                                           1

 Number of electrons:                                                         30
 Number of occupied orbitals:                                                 15
 Number of molecular orbitals:                                                24

 Number of orbital functions:                                                 24
 Number of independent orbital functions:                                     24

 Extrapolation method: initial_guess

 *** WARNING in qs_initial_guess.F:306 :: User requested to restart the    ***
 *** wavefunction from the file named: WSe2-RESTART.kp. This file does not ***
 *** exist. Please check the existence of the file or change properly the  ***
 *** value of the keyword WFN_RESTART_FILE_NAME. Calculation continues     ***
 *** using ATOMIC GUESS.                                                   ***


 Atomic guess: The first density matrix is obtained in terms of atomic orbitals
               and electronic configurations assigned to each atomic kind

 Guess for atomic kind: Sb

 Electronic structure
    Total number of core electrons                                         46.00
    Total number of valence electrons                                       5.00
    Total number of electrons                                              51.00
    Multiplicity                                                   not specified
    S   [  2.00  2.00  2.00  2.00] 2.00
    P   [  6.00  6.00  6.00] 3.00
    D   [ 10.00 10.00]


 *******************************************************************************
                  Iteration          Convergence                     Energy [au]
 *******************************************************************************
                          1         0.00000                      -5.247072013131

 Energy components [Hartree]           Total Energy ::           -5.247072013131
                                        Band Energy ::           -2.817237518378
                                     Kinetic Energy ::            2.012503266135
                                   Potential Energy ::           -7.259575279266
                                      Virial (-V/T) ::            3.607236520520
                                        Core Energy ::           -8.563363986569
                                          XC Energy ::           -1.334932192182
                                     Coulomb Energy ::            4.651224165619
                       Total Pseudopotential Energy ::          -10.631083685548
                       Local Pseudopotential Energy ::          -10.789601675587
                    Nonlocal Pseudopotential Energy ::            0.158517990039
                                        Confinement ::            0.552164328452

 Orbital energies  State     L     Occupation   Energy[a.u.]          Energy[eV]

                       1     0          2.000      -0.770659          -20.970689

                       1     1          3.000      -0.425307          -11.573185


 Total Electron Density at R=0:                                         0.000814
 Re-scaling the density matrix to get the right number of electrons
                  # Electrons              Trace(P)               Scaling factor
                           30                30.000                        1.000


 SCF WAVEFUNCTION OPTIMIZATION

  Step     Update method      Time    Convergence         Total energy    Change
  ------------------------------------------------------------------------------
     1 NoMix/Diag. 0.50E-01    1.7     0.42165059       -32.6182441155 -3.26E+01
     2 Broy./Diag. 0.50E-01    1.7     0.00083219       -33.4251756773 -8.07E-01
     3 Broy./Diag. 0.50E-01    1.7     0.02821763       -33.1690390810  2.56E-01
     4 Broy./Diag. 0.50E-01    1.7     0.00139827       -33.1449072041  2.41E-02
     5 Broy./Diag. 0.50E-01    1.7     0.01135264       -33.0050136407  1.40E-01
     6 Broy./Diag. 0.50E-01    1.7     0.00077704       -32.9885712956  1.64E-02
     7 Broy./Diag. 0.50E-01    1.7     0.00238939       -32.9774789310  1.11E-02
     8 Broy./Diag. 0.50E-01    1.7     0.00060649       -32.9740901830  3.39E-03
     9 Broy./Diag. 0.50E-01    1.8     0.00001043       -32.9739848770  1.05E-04
    10 Broy./Diag. 0.50E-01    1.8     0.00136830       -32.9776310566 -3.65E-03
    11 Broy./Diag. 0.50E-01    1.8     0.00000211       -32.9776387761 -7.72E-06
    12 Broy./Diag. 0.50E-01    1.8     0.00136821       -32.9774440831  1.95E-04
    13 Broy./Diag. 0.50E-01    1.8     0.00000913       -32.9774005002  4.36E-05
    14 Broy./Diag. 0.50E-01    1.8     0.00000765       -32.9774754337 -7.49E-05
    15 Broy./Diag. 0.50E-01    1.7     0.00002449       -32.9772501625  2.25E-04
    16 Broy./Diag. 0.50E-01    1.8     0.00136821       -32.9770465670  2.04E-04
    17 Broy./Diag. 0.50E-01    1.8     0.00000102       -32.9770568823 -1.03E-05
    18 Broy./Diag. 0.50E-01    1.8     0.00000222       -32.9770318778  2.50E-05
    19 Broy./Diag. 0.50E-01    1.8     0.00000297       -32.9770199805  1.19E-05
    20 Broy./Diag. 0.50E-01    1.8     0.00000611       -32.9769668124  5.32E-05
    21 Broy./Diag. 0.50E-01    1.8     0.00000042       -32.9769627415  4.07E-06
    22 Broy./Diag. 0.50E-01    1.8     0.00000173       -32.9769188770  4.39E-05
    23 Broy./Diag. 0.50E-01    1.8     0.00000193       -32.9768975866  2.13E-05
    24 Broy./Diag. 0.50E-01    1.7     0.00000163       -32.9769163228 -1.87E-05
    25 Broy./Diag. 0.50E-01    1.8     0.00136821       -32.9769640424 -4.77E-05
    26 Broy./Diag. 0.50E-01    1.8     0.00136821       -32.9768722951  9.17E-05
    27 Broy./Diag. 0.50E-01    1.8     0.00000298       -32.9768850877 -1.28E-05
    28 Broy./Diag. 0.50E-01    1.8     0.00000494       -32.9769169557 -3.19E-05
    29 Broy./Diag. 0.50E-01    1.8     0.00000653       -32.9768909619  2.60E-05
    30 Broy./Diag. 0.50E-01    1.8     0.00000629       -32.9768448310  4.61E-05
    31 Broy./Diag. 0.50E-01    1.8     0.00000708       -32.9768734503 -2.86E-05
    32 Broy./Diag. 0.50E-01    1.8     0.00000357       -32.9768116768  6.18E-05
    33 Broy./Diag. 0.50E-01    1.8     0.00000338       -32.9768721400 -6.05E-05
    34 Broy./Diag. 0.50E-01    1.8     0.00000283       -32.9768468734  2.53E-05
    35 Broy./Diag. 0.50E-01    1.8     0.00136824       -32.9768480359 -1.16E-06
    36 Broy./Diag. 0.50E-01    1.8     0.00136827       -32.9768209139  2.71E-05
    37 Broy./Diag. 0.50E-01    1.8     0.00136820       -32.9768233461 -2.43E-06
    38 Broy./Diag. 0.50E-01    1.8     0.00136821       -32.9768246879 -1.34E-06
    39 Broy./Diag. 0.50E-01    1.8     0.00136820       -32.9768253593 -6.71E-07
    40 Broy./Diag. 0.50E-01    1.8     0.00136820       -32.9768281949 -2.84E-06
    41 Broy./Diag. 0.50E-01    1.8     0.00136820       -32.9768291944 -1.00E-06
    42 Broy./Diag. 0.50E-01    1.8     0.00136820       -32.9768305746 -1.38E-06
    43 Broy./Diag. 0.50E-01    1.8     0.00136820       -32.9768319876 -1.41E-06
    44 Broy./Diag. 0.50E-01    1.8     0.00000197       -32.9768342309 -2.24E-06
    45 Broy./Diag. 0.50E-01    1.8     0.00136819       -32.9768392218 -4.99E-06
    46 Broy./Diag. 0.50E-01    1.8     0.00000099       -32.9768422299 -3.01E-06
    47 Broy./Diag. 0.50E-01    1.8     0.00136820       -32.9768697503 -2.75E-05
    48 Broy./Diag. 0.50E-01    1.8     0.00000050       -32.9768714179 -1.67E-06
    49 Broy./Diag. 0.50E-01    1.8     0.00000101       -32.9768743560 -2.94E-06
    50 Broy./Diag. 0.50E-01    1.8     0.00000106       -32.9768776064 -3.25E-06
    51 Broy./Diag. 0.50E-01    1.8     0.00000031       -32.9768778097 -2.03E-07
    52 Broy./Diag. 0.50E-01    1.8     0.00136819       -32.9768828050 -5.00E-06
    53 Broy./Diag. 0.50E-01    1.8     0.00000269       -32.9768799207  2.88E-06
    54 Broy./Diag. 0.50E-01    1.8     0.00136820       -32.9768780621  1.86E-06
    55 Broy./Diag. 0.50E-01    1.8     0.00136820       -32.9768798815 -1.82E-06
    56 Broy./Diag. 0.50E-01    1.8     0.00136820       -32.9768767283  3.15E-06
    57 Broy./Diag. 0.50E-01    1.8     0.00136820       -32.9768797626 -3.03E-06
    58 Broy./Diag. 0.50E-01    1.8     0.00136820       -32.9768776260  2.14E-06
    59 Broy./Diag. 0.50E-01    1.8     0.00136820       -32.9768797701 -2.14E-06
    60 Broy./Diag. 0.50E-01    1.8     0.00136820       -32.9768781903  1.58E-06
    61 Broy./Diag. 0.50E-01    1.8     0.00136820       -32.9768796741 -1.48E-06
    62 Broy./Diag. 0.50E-01    1.8     0.00136820       -32.9768786917  9.82E-07
    63 Broy./Diag. 0.50E-01    1.8     0.00136820       -32.9768797896 -1.10E-06
    64 Broy./Diag. 0.50E-01    1.8     0.00136820       -32.9768789525  8.37E-07
    65 Broy./Diag. 0.50E-01    1.8     0.00136820       -32.9768798690 -9.17E-07
    66 Broy./Diag. 0.50E-01    1.8     0.00000065       -32.9768792922  5.77E-07
    67 Broy./Diag. 0.50E-01    1.8     0.00136820       -32.9768787107  5.82E-07
    68 Broy./Diag. 0.50E-01    1.8     0.00136820       -32.9768800147 -1.30E-06
    69 Broy./Diag. 0.50E-01    1.8     0.00136820       -32.9768789599  1.05E-06
    70 Broy./Diag. 0.50E-01    1.8     0.00136820       -32.9768802053 -1.25E-06
    71 Broy./Diag. 0.50E-01    1.8     0.00136820       -32.9768791579  1.05E-06
    72 Broy./Diag. 0.50E-01    1.8     0.00136820       -32.9768803976 -1.24E-06
    73 Broy./Diag. 0.50E-01    1.8     0.00136820       -32.9768793446  1.05E-06
    74 Broy./Diag. 0.50E-01    1.8     0.00136820       -32.9768805814 -1.24E-06
    75 Broy./Diag. 0.50E-01    1.8     0.00136820       -32.9768800595  5.22E-07
    76 Broy./Diag. 0.50E-01    1.8     0.00136820       -32.9768806811 -6.22E-07
    77 Broy./Diag. 0.50E-01    1.8     0.00136820       -32.9768802776  4.04E-07
    78 Broy./Diag. 0.50E-01    1.8     0.00136820       -32.9768808141 -5.36E-07
    79 Broy./Diag. 0.50E-01    1.8     0.00136820       -32.9768804902  3.24E-07
    80 Broy./Diag. 0.50E-01    1.8     0.00136820       -32.9768809360 -4.46E-07
    81 Broy./Diag. 0.50E-01    1.8     0.00000037       -32.9768807013  2.35E-07
    82 Broy./Diag. 0.50E-01    1.8     0.00136820       -32.9768800680  6.33E-07
    83 Broy./Diag. 0.50E-01    1.8     0.00000127       -32.9768809727 -9.05E-07
    84 Broy./Diag. 0.50E-01    1.8     0.00136820       -32.9768813184 -3.46E-07
    85 Broy./Diag. 0.50E-01    1.8     0.00136820       -32.9768803493  9.69E-07
    86 Broy./Diag. 0.50E-01    1.8     0.00136820       -32.9768816231 -1.27E-06
    87 Broy./Diag. 0.50E-01    1.8     0.00136820       -32.9768805988  1.02E-06
    88 Broy./Diag. 0.50E-01    1.8     0.00136820       -32.9768818841 -1.29E-06
    89 Broy./Diag. 0.50E-01    1.8     0.00136820       -32.9768808245  1.06E-06
    90 Broy./Diag. 0.50E-01    1.8     0.00136820       -32.9768820462 -1.22E-06
    91 Broy./Diag. 0.50E-01    1.8     0.00136820       -32.9768811006  9.46E-07
    92 Broy./Diag. 0.50E-01    1.8     0.00000078       -32.9768817442 -6.44E-07
    93 Broy./Diag. 0.50E-01    1.8     0.00136820       -32.9768822921 -5.48E-07
    94 Broy./Diag. 0.50E-01    1.8     0.00136820       -32.9768812585  1.03E-06
    95 Broy./Diag. 0.50E-01    1.8     0.00136820       -32.9768823665 -1.11E-06
    96 Broy./Diag. 0.50E-01    1.8     0.00136820       -32.9768813485  1.02E-06
    97 Broy./Diag. 0.50E-01    1.8     0.00136820       -32.9768824638 -1.12E-06
    98 Broy./Diag. 0.50E-01    1.8     0.00136820       -32.9768814388  1.02E-06
    99 Broy./Diag. 0.50E-01    1.8     0.00136820       -32.9768825602 -1.12E-06
   100 Broy./Diag. 0.50E-01    1.8     0.00136820       -32.9768815296  1.03E-06
   101 Broy./Diag. 0.50E-01    1.8     0.00000072       -32.9768821640 -6.34E-07
   102 Broy./Diag. 0.50E-01    1.8     0.00136820       -32.9768827705 -6.07E-07
   103 Broy./Diag. 0.50E-01    1.8     0.00136820       -32.9768816608  1.11E-06
   104 Broy./Diag. 0.50E-01    1.8     0.00136820       -32.9768828329 -1.17E-06
   105 Broy./Diag. 0.50E-01    1.8     0.00136820       -32.9768817353  1.10E-06
   106 Broy./Diag. 0.50E-01    1.8     0.00136820       -32.9768829202 -1.18E-06
   107 Broy./Diag. 0.50E-01    1.8     0.00136820       -32.9768818119  1.11E-06
   108 Broy./Diag. 0.50E-01    1.8     0.00136820       -32.9768830050 -1.19E-06
   109 Broy./Diag. 0.50E-01    1.8     0.00136820       -32.9768818855  1.12E-06
   110 Broy./Diag. 0.50E-01    1.8     0.00000073       -32.9768825510 -6.66E-07
   111 Broy./Diag. 0.50E-01    1.8     0.00136820       -32.9768832030 -6.52E-07
   112 Broy./Diag. 0.50E-01    1.8     0.00136820       -32.9768820015  1.20E-06
   113 Broy./Diag. 0.50E-01    1.8     0.00136820       -32.9768832453 -1.24E-06
   114 Broy./Diag. 0.50E-01    1.8     0.00136820       -32.9768820609  1.18E-06
   115 Broy./Diag. 0.50E-01    1.8     0.00136820       -32.9768833178 -1.26E-06
   116 Broy./Diag. 0.50E-01    1.8     0.00136820       -32.9768821238  1.19E-06
   117 Broy./Diag. 0.50E-01    1.8     0.00136820       -32.9768833887 -1.26E-06
   118 Broy./Diag. 0.50E-01    1.8     0.00136820       -32.9768821844  1.20E-06
   119 Broy./Diag. 0.50E-01    1.8     0.00000074       -32.9768828830 -6.99E-07
   120 Broy./Diag. 0.50E-01    1.8     0.00136820       -32.9768835662 -6.83E-07
   121 Broy./Diag. 0.50E-01    1.8     0.00136820       -32.9768822813  1.28E-06
   122 Broy./Diag. 0.50E-01    1.8     0.00136820       -32.9768835899 -1.31E-06
   123 Broy./Diag. 0.50E-01    1.8     0.00136820       -32.9768823280  1.26E-06
   124 Broy./Diag. 0.50E-01    1.8     0.00136820       -32.9768836497 -1.32E-06
   125 Broy./Diag. 0.50E-01    1.8     0.00136820       -32.9768823799  1.27E-06
   126 Broy./Diag. 0.50E-01    1.8     0.00136820       -32.9768837087 -1.33E-06
   127 Broy./Diag. 0.50E-01    1.8     0.00136820       -32.9768824300  1.28E-06
   128 Broy./Diag. 0.50E-01    1.8     0.00000076       -32.9768831582 -7.28E-07
   129 Broy./Diag. 0.50E-01    1.8     0.00136820       -32.9768838705 -7.12E-07
   130 Broy./Diag. 0.50E-01    1.8     0.00136820       -32.9768825115  1.36E-06
   131 Broy./Diag. 0.50E-01    1.8     0.00136820       -32.9768838778 -1.37E-06
   132 Broy./Diag. 0.50E-01    1.8     0.00136820       -32.9768825474  1.33E-06
   133 Broy./Diag. 0.50E-01    1.8     0.00136820       -32.9768839270 -1.38E-06
   134 Broy./Diag. 0.50E-01    1.8     0.00136820       -32.9768825901  1.34E-06
   135 Broy./Diag. 0.50E-01    1.8     0.00136820       -32.9768839759 -1.39E-06
   136 Broy./Diag. 0.50E-01    1.8     0.00136820       -32.9768826313  1.34E-06
   137 Broy./Diag. 0.50E-01    1.8     0.00000078       -32.9768833863 -7.55E-07
   138 Broy./Diag. 0.50E-01    1.8     0.00136820       -32.9768841254 -7.39E-07
   139 Broy./Diag. 0.50E-01    1.8     0.00136820       -32.9768827002  1.43E-06
   140 Broy./Diag. 0.50E-01    1.8     0.00136820       -32.9768841181 -1.42E-06
   141 Broy./Diag. 0.50E-01    1.8     0.00136820       -32.9768827268  1.39E-06
   142 Broy./Diag. 0.50E-01    1.8     0.00136820       -32.9768841582 -1.43E-06
   143 Broy./Diag. 0.50E-01    1.8     0.00136820       -32.9768827618  1.40E-06
   144 Broy./Diag. 0.50E-01    1.8     0.00136820       -32.9768841988 -1.44E-06
   145 Broy./Diag. 0.50E-01    1.8     0.00136820       -32.9768827956  1.40E-06
   146 Broy./Diag. 0.50E-01    1.8     0.00000080       -32.9768835749 -7.79E-07
   147 Broy./Diag. 0.50E-01    1.8     0.00136820       -32.9768843387 -7.64E-07
   148 Broy./Diag. 0.50E-01    1.8     0.00136820       -32.9768828544  1.48E-06
   149 Broy./Diag. 0.50E-01    1.8     0.00136820       -32.9768843184 -1.46E-06
   150 Broy./Diag. 0.50E-01    1.8     0.00136820       -32.9768828729  1.45E-06
   151 Broy./Diag. 0.50E-01    1.8     0.00136820       -32.9768843509 -1.48E-06
   152 Broy./Diag. 0.50E-01    1.8     0.00136820       -32.9768829014  1.45E-06
   153 Broy./Diag. 0.50E-01    1.8     0.00136820       -32.9768843844 -1.48E-06
   154 Broy./Diag. 0.50E-01    1.8     0.00136820       -32.9768829291  1.46E-06
   155 Broy./Diag. 0.50E-01    1.8     0.00000082       -32.9768837306 -8.01E-07
   156 Broy./Diag. 0.50E-01    1.8     0.00136819       -32.9768845172 -7.87E-07
   157 Broy./Diag. 0.50E-01    1.8     0.00136820       -32.9768829797  1.54E-06
   158 Broy./Diag. 0.50E-01    1.8     0.00136820       -32.9768844853 -1.51E-06
   159 Broy./Diag. 0.50E-01    1.8     0.00136820       -32.9768829912  1.49E-06
   160 Broy./Diag. 0.50E-01    1.8     0.00136820       -32.9768845113 -1.52E-06
   161 Broy./Diag. 0.50E-01    1.8     0.00136820       -32.9768830143  1.50E-06
   162 Broy./Diag. 0.50E-01    1.8     0.00136820       -32.9768845390 -1.52E-06
   163 Broy./Diag. 0.50E-01    1.8     0.00136820       -32.9768830369  1.50E-06
   164 Broy./Diag. 0.50E-01    1.8     0.00000084       -32.9768838587 -8.22E-07
   165 Broy./Diag. 0.50E-01    1.8     0.00136819       -32.9768846667 -8.08E-07
   166 Broy./Diag. 0.50E-01    1.8     0.00136820       -32.9768830810  1.59E-06
   167 Broy./Diag. 0.50E-01    1.8     0.00136820       -32.9768846243 -1.54E-06
   168 Broy./Diag. 0.50E-01    1.8     0.00136820       -32.9768830865  1.54E-06
   169 Broy./Diag. 0.50E-01    1.8     0.00136820       -32.9768846448 -1.56E-06
   170 Broy./Diag. 0.50E-01    1.8     0.00136820       -32.9768831050  1.54E-06
   171 Broy./Diag. 0.50E-01    1.8     0.00136820       -32.9768846676 -1.56E-06
   172 Broy./Diag. 0.50E-01    1.8     0.00136820       -32.9768831234  1.54E-06
   173 Broy./Diag. 0.50E-01    1.8     0.00000087       -32.9768839638 -8.40E-07
   174 Broy./Diag. 0.50E-01    1.8     0.00136819       -32.9768847920 -8.28E-07
   175 Broy./Diag. 0.50E-01    1.8     0.00136820       -32.9768831626  1.63E-06
   176 Broy./Diag. 0.50E-01    1.8     0.00136820       -32.9768847400 -1.58E-06
   177 Broy./Diag. 0.50E-01    1.8     0.00136820       -32.9768831627  1.58E-06
   178 Broy./Diag. 0.50E-01    1.7     0.00136820       -32.9768847559 -1.59E-06
   179 Broy./Diag. 0.50E-01    1.7     0.00136820       -32.9768831775  1.58E-06
   180 Broy./Diag. 0.50E-01    1.8     0.00136820       -32.9768847746 -1.60E-06
   181 Broy./Diag. 0.50E-01    1.8     0.00136820       -32.9768831923  1.58E-06
   182 Broy./Diag. 0.50E-01    1.8     0.00000089       -32.9768840500 -8.58E-07
   183 Broy./Diag. 0.50E-01    1.8     0.00136819       -32.9768848971 -8.47E-07
   184 Broy./Diag. 0.50E-01    1.8     0.00136820       -32.9768832278  1.67E-06
   185 Broy./Diag. 0.50E-01    1.8     0.00136820       -32.9768848364 -1.61E-06
   186 Broy./Diag. 0.50E-01    1.8     0.00136820       -32.9768832232  1.61E-06
   187 Broy./Diag. 0.50E-01    1.8     0.00136820       -32.9768848483 -1.63E-06
   188 Broy./Diag. 0.50E-01    1.8     0.00136820       -32.9768832347  1.61E-06
   189 Broy./Diag. 0.50E-01    1.8     0.00136820       -32.9768848636 -1.63E-06
   190 Broy./Diag. 0.50E-01    1.8     0.00136820       -32.9768832466  1.62E-06
   191 Broy./Diag. 0.50E-01    1.8     0.00000091       -32.9768841204 -8.74E-07
   192 Broy./Diag. 0.50E-01    1.8     0.00136819       -32.9768849855 -8.65E-07
   193 Broy./Diag. 0.50E-01    1.8     0.00136820       -32.9768832796  1.71E-06
   194 Broy./Diag. 0.50E-01    1.8     0.00136820       -32.9768849167 -1.64E-06
   195 Broy./Diag. 0.50E-01    1.8     0.00136820       -32.9768832707  1.65E-06
   196 Broy./Diag. 0.50E-01    1.8     0.00136820       -32.9768849253 -1.65E-06
   197 Broy./Diag. 0.50E-01    1.8     0.00136820       -32.9768832796  1.65E-06
   198 Broy./Diag. 0.50E-01    1.8     0.00136820       -32.9768849377 -1.66E-06
   199 Broy./Diag. 0.50E-01    1.8     0.00136820       -32.9768832890  1.65E-06
   200 Broy./Diag. 0.50E-01    1.8     0.00136820       -32.9768841777 -8.89E-07
   201 Broy./Diag. 0.50E-01    1.8     0.00136820       -32.9768834389  7.39E-07
   202 Broy./Diag. 0.50E-01    1.8     0.00000084       -32.9768841604 -7.21E-07
   203 Broy./Diag. 0.50E-01    1.8     0.00136819       -32.9768850361 -8.76E-07
   204 Broy./Diag. 0.50E-01    1.8     0.00136820       -32.9768833567  1.68E-06
   205 Broy./Diag. 0.50E-01    1.8     0.00136820       -32.9768849652 -1.61E-06
   206 Broy./Diag. 0.50E-01    1.8     0.00136820       -32.9768833475  1.62E-06
   207 Broy./Diag. 0.50E-01    1.8     0.00136820       -32.9768849692 -1.62E-06
   208 Broy./Diag. 0.50E-01    1.8     0.00136820       -32.9768833560  1.61E-06
   209 Broy./Diag. 0.50E-01    1.8     0.00136820       -32.9768849922 -1.64E-06
   210 Broy./Diag. 0.50E-01    1.8     0.00136820       -32.9768833350  1.66E-06
   211 Broy./Diag. 0.50E-01    1.8     0.00136820       -32.9768842157 -8.81E-07
   212 Broy./Diag. 0.50E-01    1.8     0.00136820       -32.9768834864  7.29E-07
   213 Broy./Diag. 0.50E-01    1.8     0.00000084       -32.9768841978 -7.11E-07
   214 Broy./Diag. 0.50E-01    1.8     0.00136819       -32.9768850991 -9.01E-07
   215 Broy./Diag. 0.50E-01    1.7     0.00136820       -32.9768833983  1.70E-06
   216 Broy./Diag. 0.50E-01    1.7     0.00136820       -32.9768850254 -1.63E-06
   217 Broy./Diag. 0.50E-01    1.7     0.00136820       -32.9768833845  1.64E-06
   218 Broy./Diag. 0.50E-01    1.7     0.00136820       -32.9768850284 -1.64E-06
   219 Broy./Diag. 0.50E-01    1.8     0.00136820       -32.9768833901  1.64E-06
   220 Broy./Diag. 0.50E-01    1.8     0.00136820       -32.9768850503 -1.66E-06
   221 Broy./Diag. 0.50E-01    1.8     0.00136820       -32.9768833655  1.68E-06
   222 Broy./Diag. 0.50E-01    1.7     0.00136820       -32.9768842587 -8.93E-07
   223 Broy./Diag. 0.50E-01    1.7     0.00136820       -32.9768835186  7.40E-07
   224 Broy./Diag. 0.50E-01    1.7     0.00000086       -32.9768842391 -7.21E-07
   225 Broy./Diag. 0.50E-01    1.7     0.00136819       -32.9768851560 -9.17E-07
   226 Broy./Diag. 0.50E-01    1.7     0.00136820       -32.9768834269  1.73E-06
   227 Broy./Diag. 0.50E-01    1.7     0.00136820       -32.9768850759 -1.65E-06
   228 Broy./Diag. 0.50E-01    1.7     0.00136820       -32.9768834098  1.67E-06
   229 Broy./Diag. 0.50E-01    1.7     0.00136820       -32.9768850767 -1.67E-06
   230 Broy./Diag. 0.50E-01    1.7     0.00136820       -32.9768834138  1.66E-06
   231 Broy./Diag. 0.50E-01    1.7     0.00136820       -32.9768850975 -1.68E-06
   232 Broy./Diag. 0.50E-01    1.7     0.00136820       -32.9768833866  1.71E-06
   233 Broy./Diag. 0.50E-01    1.8     0.00136820       -32.9768842926 -9.06E-07
   234 Broy./Diag. 0.50E-01    1.7     0.00136820       -32.9768835412  7.51E-07
   235 Broy./Diag. 0.50E-01    1.7     0.00000089       -32.9768842714 -7.30E-07
   236 Broy./Diag. 0.50E-01    1.7     0.00136819       -32.9768852029 -9.31E-07
   237 Broy./Diag. 0.50E-01    1.7     0.00136820       -32.9768834474  1.76E-06
   238 Broy./Diag. 0.50E-01    1.7     0.00136820       -32.9768851167 -1.67E-06
   239 Broy./Diag. 0.50E-01    1.7     0.00136820       -32.9768834274  1.69E-06
   240 Broy./Diag. 0.50E-01    1.7     0.00136820       -32.9768851155 -1.69E-06
   241 Broy./Diag. 0.50E-01    1.7     0.00136820       -32.9768834302  1.69E-06
   242 Broy./Diag. 0.50E-01    1.7     0.00136820       -32.9768851356 -1.71E-06
   243 Broy./Diag. 0.50E-01    1.7     0.00136820       -32.9768834007  1.73E-06
   244 Broy./Diag. 0.50E-01    1.7     0.00000101       -32.9768843188 -9.18E-07
   245 Broy./Diag. 0.50E-01    1.7     0.00136819       -32.9768852777 -9.59E-07
   246 Broy./Diag. 0.50E-01    1.7     0.00136820       -32.9768834299  1.85E-06
   247 Broy./Diag. 0.50E-01    1.7     0.00136820       -32.9768851796 -1.75E-06
   248 Broy./Diag. 0.50E-01    1.7     0.00136820       -32.9768834025  1.78E-06
   249 Broy./Diag. 0.50E-01    1.7     0.00136820       -32.9768851785 -1.78E-06
   250 Broy./Diag. 0.50E-01    1.7     0.00136820       -32.9768834004  1.78E-06
   251 Broy./Diag. 0.50E-01    1.7     0.00136820       -32.9768851840 -1.78E-06
   252 Broy./Diag. 0.50E-01    1.7     0.00136820       -32.9768834011  1.78E-06
   253 Broy./Diag. 0.50E-01    1.7     0.00136820       -32.9768843560 -9.55E-07
   254 Broy./Diag. 0.50E-01    1.7     0.00136820       -32.9768835582  7.98E-07
   255 Broy./Diag. 0.50E-01    1.7     0.00000096       -32.9768843296 -7.71E-07
   256 Broy./Diag. 0.50E-01    1.7     0.00136819       -32.9768852791 -9.49E-07
   257 Broy./Diag. 0.50E-01    1.7     0.00136820       -32.9768834654  1.81E-06
   258 Broy./Diag. 0.50E-01    1.7     0.00136820       -32.9768851766 -1.71E-06
   259 Broy./Diag. 0.50E-01    1.7     0.00136820       -32.9768834415  1.74E-06
   260 Broy./Diag. 0.50E-01    1.7     0.00136820       -32.9768851700 -1.73E-06
   261 Broy./Diag. 0.50E-01    1.7     0.00136820       -32.9768834435  1.73E-06
   262 Broy./Diag. 0.50E-01    1.7     0.00136820       -32.9768851884 -1.74E-06
   263 Broy./Diag. 0.50E-01    1.7     0.00136820       -32.9768834114  1.78E-06
   264 Broy./Diag. 0.50E-01    1.7     0.00136820       -32.9768843518 -9.40E-07
   265 Broy./Diag. 0.50E-01    1.7     0.00136820       -32.9768835707  7.81E-07
   266 Broy./Diag. 0.50E-01    1.7     0.00000096       -32.9768843269 -7.56E-07
   267 Broy./Diag. 0.50E-01    1.7     0.00136819       -32.9768852978 -9.71E-07
   268 Broy./Diag. 0.50E-01    1.7     0.00136820       -32.9768834754  1.82E-06
   269 Broy./Diag. 0.50E-01    1.7     0.00136820       -32.9768851953 -1.72E-06
   270 Broy./Diag. 0.50E-01    1.7     0.00136820       -32.9768834480  1.75E-06
   271 Broy./Diag. 0.50E-01    1.7     0.00136820       -32.9768851895 -1.74E-06
   272 Broy./Diag. 0.50E-01    1.7     0.00136820       -32.9768834483  1.74E-06
   273 Broy./Diag. 0.50E-01    1.7     0.00136820       -32.9768852085 -1.76E-06
   274 Broy./Diag. 0.50E-01    1.7     0.00136820       -32.9768834137  1.79E-06
   275 Broy./Diag. 0.50E-01    1.7     0.00136820       -32.9768843625 -9.49E-07
   276 Broy./Diag. 0.50E-01    1.8     0.00136820       -32.9768835759  7.87E-07
   277 Broy./Diag. 0.50E-01    1.7     0.00000098       -32.9768843377 -7.62E-07
   278 Broy./Diag. 0.50E-01    1.7     0.00136819       -32.9768853211 -9.83E-07
   279 Broy./Diag. 0.50E-01    1.7     0.00136820       -32.9768834796  1.84E-06
   280 Broy./Diag. 0.50E-01    1.7     0.00136820       -32.9768852138 -1.73E-06
   281 Broy./Diag. 0.50E-01    1.7     0.00136820       -32.9768834497  1.76E-06
   282 Broy./Diag. 0.50E-01    1.7     0.00136820       -32.9768852068 -1.76E-06
   283 Broy./Diag. 0.50E-01    1.7     0.00136820       -32.9768834494  1.76E-06
   284 Broy./Diag. 0.50E-01    1.7     0.00136820       -32.9768852258 -1.78E-06
   285 Broy./Diag. 0.50E-01    1.7     0.00136820       -32.9768834133  1.81E-06
   286 Broy./Diag. 0.50E-01    1.8     0.00136820       -32.9768843714 -9.58E-07
   287 Broy./Diag. 0.50E-01    1.8     0.00136820       -32.9768835779  7.94E-07
   288 Broy./Diag. 0.50E-01    1.7     0.00000100       -32.9768843466 -7.69E-07
   289 Broy./Diag. 0.50E-01    1.7     0.00136819       -32.9768853417 -9.95E-07
   290 Broy./Diag. 0.50E-01    1.7     0.00136820       -32.9768834816  1.86E-06
   291 Broy./Diag. 0.50E-01    1.7     0.00136820       -32.9768852295 -1.75E-06
   292 Broy./Diag. 0.50E-01    1.7     0.00136820       -32.9768834495  1.78E-06
   293 Broy./Diag. 0.50E-01    1.8     0.00136820       -32.9768852213 -1.77E-06
   294 Broy./Diag. 0.50E-01    1.8     0.00136820       -32.9768834487  1.77E-06
   295 Broy./Diag. 0.50E-01    1.8     0.00136820       -32.9768852403 -1.79E-06
   296 Broy./Diag. 0.50E-01    1.7     0.00136820       -32.9768834112  1.83E-06
   297 Broy./Diag. 0.50E-01    1.7     0.00000115       -32.9768843783 -9.67E-07
   298 Broy./Diag. 0.50E-01    1.7     0.00136819       -32.9768854057 -1.03E-06
   299 Broy./Diag. 0.50E-01    1.7     0.00136820       -32.9768834491  1.96E-06
   300 Broy./Diag. 0.50E-01    1.7     0.00136820       -32.9768852810 -1.83E-06
   301 Broy./Diag. 0.50E-01    1.7     0.00136820       -32.9768834083  1.87E-06
   302 Broy./Diag. 0.50E-01    1.7     0.00136820       -32.9768852736 -1.87E-06
   303 Broy./Diag. 0.50E-01    1.8     0.00136820       -32.9768834019  1.87E-06
   304 Broy./Diag. 0.50E-01    1.7     0.00136820       -32.9768852766 -1.87E-06
   305 Broy./Diag. 0.50E-01    1.8     0.00136820       -32.9768834000  1.88E-06
   306 Broy./Diag. 0.50E-01    1.7     0.00136820       -32.9768844058 -1.01E-06
   307 Broy./Diag. 0.50E-01    1.7     0.00136820       -32.9768835682  8.38E-07
   308 Broy./Diag. 0.50E-01    1.7     0.00000109       -32.9768843773 -8.09E-07
   309 Broy./Diag. 0.50E-01    1.7     0.00136819       -32.9768853866 -1.01E-06
   310 Broy./Diag. 0.50E-01    1.7     0.00136820       -32.9768834767  1.91E-06
   311 Broy./Diag. 0.50E-01    1.7     0.00136820       -32.9768852579 -1.78E-06
   312 Broy./Diag. 0.50E-01    1.7     0.00136820       -32.9768834413  1.82E-06
   313 Broy./Diag. 0.50E-01    1.7     0.00136820       -32.9768852446 -1.80E-06
[...]
   322 Broy./Diag. 0.50E-01    1.8     0.00136820       -32.9768852628 -1.78E-06
   323 Broy./Diag. 0.50E-01    1.7     0.00136820       -32.9768834408  1.82E-06
   324 Broy./Diag. 0.50E-01    1.7     0.00136820       -32.9768852512 -1.81E-06
   325 Broy./Diag. 0.50E-01    1.7     0.00136820       -32.9768834387  1.81E-06
   326 Broy./Diag. 0.50E-01    1.7     0.00136820       -32.9768852704 -1.83E-06
   327 Broy./Diag. 0.50E-01    1.7     0.00136820       -32.9768833978  1.87E-06
   328 Broy./Diag. 0.50E-01    1.8     0.00136820       -32.9768843882 -9.90E-07
   329 Broy./Diag. 0.50E-01    1.8     0.00136820       -32.9768835712  8.17E-07
   330 Broy./Diag. 0.50E-01    1.7     0.00000110       -32.9768843631 -7.92E-07
   331 Broy./Diag. 0.50E-01    1.7     0.00136819       -32.9768854019 -1.04E-06
   332 Broy./Diag. 0.50E-01    1.7     0.00136820       -32.9768834783  1.92E-06
   333 Broy./Diag. 0.50E-01    1.7     0.00136820       -32.9768852712 -1.79E-06
   334 Broy./Diag. 0.50E-01    1.7     0.00136820       -32.9768834372  1.83E-06
   335 Broy./Diag. 0.50E-01    1.7     0.00136820       -32.9768852586 -1.82E-06
   336 Broy./Diag. 0.50E-01    1.7     0.00136820       -32.9768834347  1.82E-06
   337 Broy./Diag. 0.50E-01    1.7     0.00136820       -32.9768852782 -1.84E-06
   338 Broy./Diag. 0.50E-01    1.7     0.00136820       -32.9768833926  1.89E-06
   339 Broy./Diag. 0.50E-01    1.7     0.00000126       -32.9768843901 -9.97E-07
   340 Broy./Diag. 0.50E-01    1.7     0.00136819       -32.9768854655 -1.08E-06
   341 Broy./Diag. 0.50E-01    1.7     0.00136820       -32.9768834411  2.02E-06
   342 Broy./Diag. 0.50E-01    1.7     0.00136820       -32.9768853217 -1.88E-06
   343 Broy./Diag. 0.50E-01    1.7     0.00136820       -32.9768833901  1.93E-06
   344 Broy./Diag. 0.50E-01    1.7     0.00136820       -32.9768853101 -1.92E-06
   345 Broy./Diag. 0.50E-01    1.7     0.00136820       -32.9768833812  1.93E-06
   346 Broy./Diag. 0.50E-01    1.7     0.00136820       -32.9768853121 -1.93E-06
   347 Broy./Diag. 0.50E-01    1.7     0.00136820       -32.9768833783  1.93E-06
   348 Broy./Diag. 0.50E-01    1.7     0.00136820       -32.9768844164 -1.04E-06
   349 Broy./Diag. 0.50E-01    1.7     0.00136820       -32.9768835555  8.61E-07
   350 Broy./Diag. 0.50E-01    1.7     0.00000120       -32.9768843880 -8.32E-07
   351 Broy./Diag. 0.50E-01    1.7     0.00136819       -32.9768854388 -1.05E-06
   352 Broy./Diag. 0.50E-01    1.7     0.00136820       -32.9768834694  1.97E-06
   353 Broy./Diag. 0.50E-01    1.7     0.00136820       -32.9768852909 -1.82E-06
   354 Broy./Diag. 0.50E-01    1.7     0.00136820       -32.9768834250  1.87E-06
   355 Broy./Diag. 0.50E-01    1.7     0.00136820       -32.9768852727 -1.85E-06
   356 Broy./Diag. 0.50E-01    1.7     0.00136820       -32.9768834231  1.85E-06
   357 Broy./Diag. 0.50E-01    1.7     0.00136820       -32.9768852915 -1.87E-06
   358 Broy./Diag. 0.50E-01    1.7     0.00136820       -32.9768833801  1.91E-06
   359 Broy./Diag. 0.50E-01    1.7     0.00136820       -32.9768843931 -1.01E-06
   360 Broy./Diag. 0.50E-01    1.7     0.00136820       -32.9768835592  8.34E-07
   361 Broy./Diag. 0.50E-01    1.7     0.00000118       -32.9768843674 -8.08E-07
   362 Broy./Diag. 0.50E-01    1.7     0.00136819       -32.9768854354 -1.07E-06
   363 Broy./Diag. 0.50E-01    1.7     0.00136820       -32.9768834720  1.96E-06
   364 Broy./Diag. 0.50E-01    1.7     0.00136820       -32.9768852913 -1.82E-06
   365 Broy./Diag. 0.50E-01    1.7     0.00136820       -32.9768834241  1.87E-06
   366 Broy./Diag. 0.50E-01    1.8     0.00136820       -32.9768852752 -1.85E-06
   367 Broy./Diag. 0.50E-01    1.7     0.00136820       -32.9768834205  1.85E-06
   368 Broy./Diag. 0.50E-01    1.7     0.00136820       -32.9768852953 -1.87E-06
   369 Broy./Diag. 0.50E-01    1.7     0.00136820       -32.9768833754  1.92E-06
   370 Broy./Diag. 0.50E-01    1.7     0.00000135       -32.9768843917 -1.02E-06
   371 Broy./Diag. 0.50E-01    1.8     0.00136819       -32.9768854995 -1.11E-06
   372 Broy./Diag. 0.50E-01    1.7     0.00136820       -32.9768834331  2.07E-06
   373 Broy./Diag. 0.50E-01    1.7     0.00136820       -32.9768853423 -1.91E-06
   374 Broy./Diag. 0.50E-01    1.8     0.00136820       -32.9768833744  1.97E-06
   375 Broy./Diag. 0.50E-01    1.8     0.00136820       -32.9768853273 -1.95E-06
   376 Broy./Diag. 0.50E-01    1.7     0.00136820       -32.9768833635  1.96E-06
   377 Broy./Diag. 0.50E-01    1.7     0.00136820       -32.9768853288 -1.97E-06
   378 Broy./Diag. 0.50E-01    1.7     0.00136820       -32.9768833602  1.97E-06
   379 Broy./Diag. 0.50E-01    1.7     0.00136820       -32.9768844180 -1.06E-06
   380 Broy./Diag. 0.50E-01    1.7     0.00136820       -32.9768835435  8.75E-07
   381 Broy./Diag. 0.50E-01    1.8     0.00136820       -32.9768843899 -8.46E-07
   382 Broy./Diag. 0.50E-01    1.7     0.00136820       -32.9768836479  7.42E-07
   383 Broy./Diag. 0.50E-01    1.7     0.00000106       -32.9768843532 -7.05E-07
   384 Broy./Diag. 0.50E-01    1.7     0.00136819       -32.9768854059 -1.05E-06
   385 Broy./Diag. 0.50E-01    1.7     0.00136820       -32.9768835086  1.90E-06
   386 Broy./Diag. 0.50E-01    1.7     0.00136820       -32.9768852543 -1.75E-06
   387 Broy./Diag. 0.50E-01    1.7     0.00136820       -32.9768834664  1.79E-06
   388 Broy./Diag. 0.50E-01    1.7     0.00136820       -32.9768852544 -1.79E-06
   389 Broy./Diag. 0.50E-01    1.7     0.00136820       -32.9768834210  1.83E-06
   390 Broy./Diag. 0.50E-01    1.7     0.00136820       -32.9768852921 -1.87E-06
   391 Broy./Diag. 0.50E-01    1.8     0.00136820       -32.9768833736  1.92E-06
   392 Broy./Diag. 0.50E-01    1.7     0.00000137       -32.9768843731 -9.99E-07
   393 Broy./Diag. 0.50E-01    1.7     0.00136819       -32.9768855052 -1.13E-06
   394 Broy./Diag. 0.50E-01    1.7     0.00136820       -32.9768834340  2.07E-06
   395 Broy./Diag. 0.50E-01    1.7     0.00136820       -32.9768853480 -1.91E-06
   396 Broy./Diag. 0.50E-01    1.7     0.00136820       -32.9768833684  1.98E-06
   397 Broy./Diag. 0.50E-01    1.7     0.00136820       -32.9768853345 -1.97E-06
   398 Broy./Diag. 0.50E-01    1.7     0.00136820       -32.9768833546  1.98E-06
   399 Broy./Diag. 0.50E-01    1.7     0.00136820       -32.9768853367 -1.98E-06
   400 Broy./Diag. 0.50E-01    1.7     0.00136820       -32.9768833503  1.99E-06
   401 Broy./Diag. 0.50E-01    1.7     0.00136820       -32.9768844171 -1.07E-06
   402 Broy./Diag. 0.50E-01    1.7     0.00136820       -32.9768835386  8.78E-07
   403 Broy./Diag. 0.50E-01    1.7     0.00000133       -32.9768843907 -8.52E-07
   404 Broy./Diag. 0.50E-01    1.7     0.00136819       -32.9768854870 -1.10E-06
   405 Broy./Diag. 0.50E-01    1.7     0.00136820       -32.9768834614  2.03E-06
   406 Broy./Diag. 0.50E-01    1.7     0.00136820       -32.9768853172 -1.86E-06
   407 Broy./Diag. 0.50E-01    1.7     0.00136820       -32.9768834050  1.91E-06
   408 Broy./Diag. 0.50E-01    1.7     0.00136820       -32.9768852923 -1.89E-06
   409 Broy./Diag. 0.50E-01    1.7     0.00136820       -32.9768834011  1.89E-06
   410 Broy./Diag. 0.50E-01    1.7     0.00136820       -32.9768853121 -1.91E-06
   411 Broy./Diag. 0.50E-01    1.7     0.00136820       -32.9768833534  1.96E-06
   412 Broy./Diag. 0.50E-01    1.7     0.00136820       -32.9768843930 -1.04E-06
   413 Broy./Diag. 0.50E-01    1.7     0.00136820       -32.9768835427  8.50E-07
   414 Broy./Diag. 0.50E-01    1.7     0.00000131       -32.9768843687 -8.26E-07
   415 Broy./Diag. 0.50E-01    1.7     0.00136819       -32.9768854792 -1.11E-06
   416 Broy./Diag. 0.50E-01    1.7     0.00136820       -32.9768834655  2.01E-06
   417 Broy./Diag. 0.50E-01    1.7     0.00136820       -32.9768853147 -1.85E-06
   418 Broy./Diag. 0.50E-01    1.7     0.00136820       -32.9768834057  1.91E-06
   419 Broy./Diag. 0.50E-01    1.7     0.00136820       -32.9768852924 -1.89E-06
   420 Broy./Diag. 0.50E-01    1.7     0.00136820       -32.9768834000  1.89E-06
   421 Broy./Diag. 0.50E-01    1.7     0.00136820       -32.9768853134 -1.91E-06
   422 Broy./Diag. 0.50E-01    1.7     0.00136820       -32.9768833501  1.96E-06
   423 Broy./Diag. 0.50E-01    1.7     0.00000150       -32.9768843908 -1.04E-06
   424 Broy./Diag. 0.50E-01    1.7     0.00136819       -32.9768855461 -1.16E-06
   425 Broy./Diag. 0.50E-01    1.7     0.00136820       -32.9768834250  2.12E-06
   426 Broy./Diag. 0.50E-01    1.7     0.00136820       -32.9768853683 -1.94E-06
   427 Broy./Diag. 0.50E-01    1.7     0.00136820       -32.9768833528  2.02E-06
   428 Broy./Diag. 0.50E-01    1.7     0.00136820       -32.9768853471 -1.99E-06
   429 Broy./Diag. 0.50E-01    1.8     0.00136820       -32.9768833382  2.01E-06
   430 Broy./Diag. 0.50E-01    1.8     0.00136820       -32.9768853476 -2.01E-06
   431 Broy./Diag. 0.50E-01    1.7     0.00136820       -32.9768833341  2.01E-06
   432 Broy./Diag. 0.50E-01    1.7     0.00136820       -32.9768844183 -1.08E-06
   433 Broy./Diag. 0.50E-01    1.7     0.00136820       -32.9768835275  8.91E-07
   434 Broy./Diag. 0.50E-01    1.7     0.00136820       -32.9768843916 -8.64E-07
   435 Broy./Diag. 0.50E-01    1.7     0.00136820       -32.9768836357  7.56E-07
   436 Broy./Diag. 0.50E-01    1.7     0.00000118       -32.9768843556 -7.20E-07
   437 Broy./Diag. 0.50E-01    1.7     0.00136819       -32.9768854416 -1.09E-06
   438 Broy./Diag. 0.50E-01    1.7     0.00136820       -32.9768835080  1.93E-06
   439 Broy./Diag. 0.50E-01    1.8     0.00136820       -32.9768852702 -1.76E-06
   440 Broy./Diag. 0.50E-01    1.7     0.00136820       -32.9768834555  1.81E-06
   441 Broy./Diag. 0.50E-01    1.7     0.00136820       -32.9768852655 -1.81E-06
   442 Broy./Diag. 0.50E-01    1.7     0.00136820       -32.9768834043  1.86E-06
   443 Broy./Diag. 0.50E-01    1.7     0.00136820       -32.9768853046 -1.90E-06
   444 Broy./Diag. 0.50E-01    1.8     0.00136820       -32.9768833526  1.95E-06
   445 Broy./Diag. 0.50E-01    1.7     0.00000151       -32.9768843702 -1.02E-06
   446 Broy./Diag. 0.50E-01    1.7     0.00136819       -32.9768855447 -1.17E-06
   447 Broy./Diag. 0.50E-01    1.7     0.00136820       -32.9768834298  2.11E-06
   448 Broy./Diag. 0.50E-01    1.7     0.00136820       -32.9768853694 -1.94E-06
   449 Broy./Diag. 0.50E-01    1.7     0.00136820       -32.9768833507  2.02E-06
   450 Broy./Diag. 0.50E-01    1.7     0.00136820       -32.9768853501 -2.00E-06
   451 Broy./Diag. 0.50E-01    1.7     0.00136820       -32.9768833329  2.02E-06
   452 Broy./Diag. 0.50E-01    1.7     0.00136820       -32.9768853512 -2.02E-06
   453 Broy./Diag. 0.50E-01    1.7     0.00136820       -32.9768833276  2.02E-06
   454 Broy./Diag. 0.50E-01    1.7     0.00136820       -32.9768844163 -1.09E-06
   455 Broy./Diag. 0.50E-01    1.7     0.00136820       -32.9768835252  8.91E-07
   456 Broy./Diag. 0.50E-01    1.7     0.00000147       -32.9768843915 -8.66E-07
   457 Broy./Diag. 0.50E-01    1.7     0.00136819       -32.9768855250 -1.13E-06
   458 Broy./Diag. 0.50E-01    1.7     0.00136820       -32.9768834606  2.06E-06
   459 Broy./Diag. 0.50E-01    1.7     0.00136820       -32.9768853352 -1.87E-06
   460 Broy./Diag. 0.50E-01    1.7     0.00136820       -32.9768833920  1.94E-06
   461 Broy./Diag. 0.50E-01    1.8     0.00136820       -32.9768853027 -1.91E-06
   462 Broy./Diag. 0.50E-01    1.7     0.00136820       -32.9768833854  1.92E-06
   463 Broy./Diag. 0.50E-01    1.7     0.00136820       -32.9768853228 -1.94E-06
   464 Broy./Diag. 0.50E-01    1.7     0.00136820       -32.9768833333  1.99E-06
   465 Broy./Diag. 0.50E-01    1.7     0.00136820       -32.9768843908 -1.06E-06
   466 Broy./Diag. 0.50E-01    1.7     0.00136820       -32.9768835314  8.59E-07
   467 Broy./Diag. 0.50E-01    1.7     0.00000144       -32.9768843680 -8.37E-07
   468 Broy./Diag. 0.50E-01    1.7     0.00136819       -32.9768855126 -1.14E-06
   469 Broy./Diag. 0.50E-01    1.7     0.00136820       -32.9768834668  2.05E-06
   470 Broy./Diag. 0.50E-01    1.7     0.00136820       -32.9768853301 -1.86E-06
   471 Broy./Diag. 0.50E-01    1.7     0.00136820       -32.9768833949  1.94E-06
   472 Broy./Diag. 0.50E-01    1.7     0.00136820       -32.9768853008 -1.91E-06
   473 Broy./Diag. 0.50E-01    1.7     0.00136820       -32.9768833864  1.91E-06
   474 Broy./Diag. 0.50E-01    1.7     0.00136820       -32.9768853222 -1.94E-06
   475 Broy./Diag. 0.50E-01    1.7     0.00136820       -32.9768833321  1.99E-06
   476 Broy./Diag. 0.50E-01    1.7     0.00000165       -32.9768843882 -1.06E-06
   477 Broy./Diag. 0.50E-01    1.7     0.00136819       -32.9768855819 -1.19E-06
   478 Broy./Diag. 0.50E-01    1.7     0.00136820       -32.9768834254  2.16E-06
   479 Broy./Diag. 0.50E-01    1.7     0.00136820       -32.9768853862 -1.96E-06
   480 Broy./Diag. 0.50E-01    1.7     0.00136820       -32.9768833396  2.05E-06
   481 Broy./Diag. 0.50E-01    1.7     0.00136820       -32.9768853579 -2.02E-06
   482 Broy./Diag. 0.50E-01    1.7     0.00136820       -32.9768833207  2.04E-06
   483 Broy./Diag. 0.50E-01    1.7     0.00136820       -32.9768853570 -2.04E-06
   484 Broy./Diag. 0.50E-01    1.7     0.00136820       -32.9768833156  2.04E-06
   485 Broy./Diag. 0.50E-01    1.7     0.00136820       -32.9768844169 -1.10E-06
   486 Broy./Diag. 0.50E-01    1.7     0.00136820       -32.9768835172  9.00E-07
   487 Broy./Diag. 0.50E-01    1.7     0.00136820       -32.9768843916 -8.74E-07
   488 Broy./Diag. 0.50E-01    1.8     0.00136820       -32.9768836281  7.64E-07
   489 Broy./Diag. 0.50E-01    1.7     0.00000129       -32.9768843565 -7.28E-07
   490 Broy./Diag. 0.50E-01    1.7     0.00136819       -32.9768854678 -1.11E-06
   491 Broy./Diag. 0.50E-01    1.7     0.00136820       -32.9768835152  1.95E-06
   492 Broy./Diag. 0.50E-01    1.7     0.00136820       -32.9768852793 -1.76E-06
   493 Broy./Diag. 0.50E-01    1.7     0.00136820       -32.9768834522  1.83E-06
   494 Broy./Diag. 0.50E-01    1.7     0.00136820       -32.9768852690 -1.82E-06
   495 Broy./Diag. 0.50E-01    1.7     0.00136820       -32.9768833950  1.87E-06
   496 Broy./Diag. 0.50E-01    1.7     0.00136820       -32.9768853086 -1.91E-06
   497 Broy./Diag. 0.50E-01    1.7     0.00136820       -32.9768833394  1.97E-06
   498 Broy./Diag. 0.50E-01    1.7     0.00000165       -32.9768843665 -1.03E-06
   499 Broy./Diag. 0.50E-01    1.7     0.00136819       -32.9768855737 -1.21E-06
   500 Broy./Diag. 0.50E-01    1.7     0.00136820       -32.9768834342  2.14E-06

  Leaving inner SCF loop after reaching   500 steps.


  Electronic density on regular grids:        -30.0000000000        0.0000000000
  Core density on regular grids:               30.0000000000       -0.0000000000
  Total charge density on r-space grids:        0.0000000000
  Total charge density g-space grids:           0.0000000000

  Overlap energy of the core charge distribution:               0.00000000087113
  Self energy of the core charge distribution:                -71.71901485776564
  Core Hamiltonian energy:                                     16.20396722737983
  Hartree energy:                                              31.12994047848543
  Exchange-correlation energy:                                 -8.59177628319857

  Total energy:                                               -32.97688343422782

 *******************************************************************************
 *   ___                                                                       *
 *  /   \                                                                      *
 * [ABORT]                                                                     *
 *  \___/     SCF run NOT converged. To continue the calculation regardless,   *
 *    |             please set the keyword IGNORE_CONVERGENCE_FAILURE.         *
 *  O/|                                                                        *
 * /| |                                                                        *
 * / \                                                            qs_scf.F:621 *
 *******************************************************************************


 ===== Routine Calling Stack ===== 

            3 scf_env_do_scf
            2 qs_energies
            1 CP2K

 *******************************************************************************
 *   ___                                                                       *
 *  /   \                                                                      *
 * [ABORT]                                                                     *
 *  \___/     SCF run NOT converged. To continue the calculation regardless,   *
 *    |             please set the keyword IGNORE_CONVERGENCE_FAILURE.         *
 *  O/|                                                                        *
 * /| |                                                                        *
 * / \                                                            qs_scf.F:621 *
 *******************************************************************************


 ===== Routine Calling Stack ===== 

            3 scf_env_do_scf
            2 qs_energies
            1 CP2K

 *******************************************************************************
 *   ___                                                                       *
 *  /   \                                                                      *
 * [ABORT]                                                                     *
 *  \___/     SCF run NOT converged. To continue the calculation regardless,   *
 *    |             please set the keyword IGNORE_CONVERGENCE_FAILURE.         *
 *  O/|                                                                        *
 * /| |                                                                        *
 * / \                                                            qs_scf.F:621 *
 *******************************************************************************


 ===== Routine Calling Stack ===== 

            3 scf_env_do_scf
            2 qs_energies
            1 CP2K

 *******************************************************************************
 *   ___                                                                       *
 *  /   \                                                                      *
 * [ABORT]                                                                     *
 *  \___/     SCF run NOT converged. To continue the calculation regardless,   *
 *    |             please set the keyword IGNORE_CONVERGENCE_FAILURE.         *
 *  O/|                                                                        *
 * /| |                                                                        *
 * / \                                                            qs_scf.F:621 *
 *******************************************************************************


 ===== Routine Calling Stack ===== 

            3 scf_env_do_scf
            2 qs_energies
            1 CP2K

 *******************************************************************************
 *   ___                                                                       *
 *  /   \                                                                      *
 * [ABORT]                                                                     *
 *  \___/     SCF run NOT converged. To continue the calculation regardless,   *
 *    |             please set the keyword IGNORE_CONVERGENCE_FAILURE.         *
 *  O/|                                                                        *
 * /| |                                                                        *
 * / \                                                            qs_scf.F:621 *
 *******************************************************************************


 ===== Routine Calling Stack ===== 

            3 scf_env_do_scf
            2 qs_energies
            1 CP2K
