Cd                                      
   1.00000000000000     
     3.037160    0.000000    0.000000
     1.518580    2.630258    0.000000
     0.000000    0.000000    5.770610
   Cd
     2
Direct
  0.000000  0.000000  0.000000
  0.333333  0.333333  0.500000
 
   28   28   56
  454.18      435.66      385.88      318.31      246.36      178.72      120.18      74.214      43.047      25.710    
  17.272      12.429      9.8089      8.6143      8.2833      8.6151      9.8093      12.429      17.272      25.711    
  43.048      74.214      120.18      178.72      246.36      318.31      385.88      435.66      435.66      401.60    
  343.38      274.60      206.06      144.11      92.788      55.183      32.114      20.470      14.351      10.814    
  9.0433      8.3471      8.3467      9.0428      10.815      14.351      20.470      32.113      55.184      92.791    
  144.11      206.06      274.60      343.37      401.59      435.66      385.88      343.38      284.83      221.27    
  160.51      107.59      66.316      38.832      23.832      16.347      11.936      9.5577      8.4701      8.1666    
  8.4692      9.5574      11.936      16.347      23.831      38.830      66.317      107.59      160.51      221.27    
  284.82      343.37      385.88      401.58      318.31      274.60      221.27      166.35      115.79      74.137    
  44.476      26.996      18.163      13.052      10.119      8.6413      8.0537      8.0539      8.6415      10.119    
  13.052      18.163      26.995      44.475      74.136      115.79      166.35      221.27      274.60      318.31    
  343.34      343.34      246.36      206.06      160.51      115.79      76.951      47.705      29.299      19.552    
  14.006      10.655      8.8418      7.9937      7.7526      7.9941      8.8420      10.655      14.006      19.553    
  29.299      47.703      76.947      115.79      160.51      206.07      246.37      274.57      284.77      274.57    
  178.72      144.11      107.59      74.137      47.705      30.145      20.321      14.647      11.077      9.0344    
  7.9751      7.5367      7.5366      7.9749      9.0342      11.078      14.648      20.322      30.146      47.704    
  74.134      107.58      144.11      178.72      206.05      221.24      221.24      206.05      120.18      92.788    
  66.316      44.476      29.299      20.321      14.873      11.311      9.1749      7.9803      7.3902      7.2147    
  7.3902      7.9800      9.1743      11.311      14.874      20.323      29.302      44.479      66.316      92.785    
  120.18      144.13      160.53      166.37      160.53      144.13      74.214      55.183      38.832      26.996    
  19.552      14.647      11.311      9.2270      7.9904      7.3053      7.0020      7.0022      7.3057      7.9903    
  9.2258      11.309      14.646      19.553      26.999      38.836      55.185      74.212      92.830      107.66    
  115.87      115.87      107.66      92.835      43.047      32.114      23.832      18.163      14.006      11.077    
  9.1749      7.9904      7.2779      6.8946      6.7733      6.8948      7.2785      7.9913      9.1749      11.075    
  14.002      18.160      23.833      32.118      43.052      55.235      66.412      74.260      77.082      74.261    
  66.413      55.233      25.710      20.470      16.347      13.052      10.655      9.0344      7.9803      7.3053    
  6.8946      6.6968      6.6966      6.8945      7.3064      7.9825      9.0361      10.654      13.049      16.343    
  20.468      25.711      32.150      38.913      44.597      47.845      47.844      44.594      38.909      32.146    
  17.272      14.351      11.936      10.119      8.8418      7.9751      7.3902      7.0020      6.7733      6.6966    
  6.7726      7.0012      7.3903      7.9771      8.8454      10.122      11.936      14.347      17.267      20.470    
  23.859      27.059      29.389      30.244      29.385      27.055      23.858      20.473      12.429      10.814    
  9.5577      8.6413      7.9937      7.5367      7.2147      7.0022      6.8948      6.8945      7.0012      7.2126    
  7.5347      7.9940      8.6448      9.5627      10.817      12.428      14.321      16.311      18.139      19.548    
  20.330      20.329      19.548      18.141      16.316      14.325      9.8089      9.0433      8.4701      8.0537    
  7.7526      7.5366      7.3902      7.3057      7.2785      7.3064      7.3903      7.5347      7.7489      8.0505    
  8.4699      9.0468      9.8141      10.771      11.859      12.957      13.907      14.552      14.782      14.555    
  13.911      12.961      11.859      10.767      8.6143      8.3471      8.1666      8.0539      7.9941      7.9749    
  7.9800      7.9903      7.9913      7.9825      7.9771      7.9940      8.0505      8.1616      8.3436      8.6149    
  8.9879      9.4553      9.9787      10.488      10.897      11.126      11.127      10.899      10.489      9.9763    
  9.4504      8.9836      8.2833      8.3467      8.4692      8.6415      8.8420      9.0342      9.1743      9.2258    
  9.1749      9.0361      8.8454      8.6448      8.4699      8.3436      8.2782      8.2789      8.3456      8.4701    
  8.6317      8.7956      8.9190      8.9649      8.9183      8.7934      8.6281      8.4670      8.3456      8.2826    
  8.6151      9.0428      9.5574      10.119      10.655      11.078      11.311      11.309      11.075      10.654    
  10.122      9.5627      9.0468      8.6149      8.2789      8.0319      7.8608      7.7534      7.6972      7.6761    
  7.6717      7.6707      7.6738      7.6948      7.7530      7.8637      8.0369      8.2830      9.8093      10.815    
  11.936      13.052      14.006      14.648      14.874      14.646      14.002      13.049      11.936      10.817    
  9.8141      8.9879      8.3456      7.8608      7.4996      7.2359      7.0547      6.9483      6.9128      6.9475    
  7.0547      7.2381      7.5033      7.8635      8.3450      8.9840      12.429      14.351      16.347      18.163    
  19.553      20.322      20.323      19.553      18.160      16.343      14.347      12.428      10.771      9.4553    
  8.4701      7.7534      7.2359      6.8674      6.6241      6.5013      6.5015      6.6251      6.8695      7.2381    
  7.7535      8.4669      9.4501      10.767      17.272      20.470      23.831      26.995      29.299      30.146    
  29.302      26.999      23.833      20.468      17.267      14.321      11.859      9.9787      8.6317      7.6972    
  7.0547      6.6241      6.3701      6.2856      6.3709      6.6249      7.0543      7.6949      8.6283      9.9763    
  11.859      14.324      25.711      32.113      38.830      44.475      47.703      47.704      44.479      38.836    
  32.118      25.711      20.470      16.311      12.957      10.488      8.7956      7.6761      6.9483      6.5013    
  6.2856      6.2857      6.5013      6.9473      7.6739      8.7936      10.489      12.961      16.316      20.473    
  43.048      55.184      66.317      74.136      76.947      74.134      66.316      55.185      43.052      32.150    
  23.859      18.139      13.907      10.897      8.9190      7.6717      6.9128      6.5015      6.3709      6.5013    
  6.9122      7.6708      8.9192      10.899      13.910      18.142      23.859      32.146      74.214      92.791    
  107.59      115.79      115.79      107.58      92.785      74.212      55.235      38.913      27.059      19.548    
  14.552      11.126      8.9649      7.6707      6.9475      6.6251      6.6249      6.9473      7.6708      8.9660    
  11.128      14.554      19.548      27.055      38.909      55.232      120.18      144.11      160.51      166.35    
  160.51      144.11      120.18      92.830      66.412      44.597      29.389      20.330      14.782      11.127    
  8.9183      7.6738      7.0547      6.8695      7.0543      7.6739      8.9192      11.128      14.781      20.327    
  29.386      44.595      66.412      92.832      178.72      206.06      221.27      221.27      206.07      178.72    
  144.13      107.66      74.260      47.845      30.244      20.329      14.555      10.899      8.7934      7.6948    
  7.2381      7.2381      7.6949      8.7936      10.899      14.554      20.327      30.242      47.846      74.263    
  107.66      144.13      246.36      274.60      284.82      274.60      246.37      206.05      160.53      115.87    
  77.082      47.844      29.385      19.548      13.911      10.489      8.6281      7.7530      7.5033      7.7535    
  8.6283      10.489      13.910      19.548      29.386      47.846      77.085      115.87      160.53      206.05    
  318.31      343.37      343.37      318.31      274.57      221.24      166.37      115.87      74.261      44.594    
  27.055      18.141      12.961      9.9763      8.4670      7.8637      7.8635      8.4669      9.9763      12.961    
  18.142      27.055      44.595      74.263      115.87      166.37      221.24      274.57      385.88      401.59    
  385.88      343.34      284.77      221.24      160.53      107.66      66.413      38.909      23.858      16.316    
  11.859      9.4504      8.3456      8.0369      8.3450      9.4501      11.859      16.316      23.859      38.909    
  66.412      107.66      160.53      221.24      284.78      343.35      435.66      435.66      401.58      343.34    
  274.57      206.05      144.13      92.835      55.233      32.146      20.473      14.325      10.767      8.9836    
  8.2826      8.2830      8.9840      10.767      14.324      20.473      32.146      55.232      92.832      144.13    
  206.05      274.57      343.35      401.58      437.53      419.93      372.51      307.85      238.58      173.10    
  116.30      71.762      41.721      25.103      16.960      12.241      9.6893      8.5239      8.2015      8.5262    
  9.6897      12.239      16.959      25.105      41.721      71.760      116.29      173.10      238.58      307.85    
  372.51      419.93      419.93      387.49      331.88      265.82      199.60      139.52      89.736      53.396    
  31.235      20.070      14.114      10.670      8.9440      8.2645      8.2652      8.9445      10.670      14.113    
  20.071      31.236      53.395      89.737      139.52      199.61      265.82      331.87      387.49      419.93    
  372.51      331.88      275.67      214.33      155.43      104.08      64.133      37.675      23.305      16.060    
  11.763      9.4469      8.3851      8.0893      8.3857      9.4466      11.763      16.060      23.305      37.674    
  64.133      104.08      155.44      214.33      275.66      331.87      372.50      387.47      307.85      265.82    
  214.33      161.10      112.03      71.687      43.095      26.336      17.833      12.851      9.9945      8.5529    
  7.9785      7.9796      8.5541      9.9936      12.850      17.833      26.336      43.093      71.685      112.03    
  161.11      214.33      265.82      307.85      331.84      331.84      238.58      199.60      155.43      112.03    
  74.407      46.199      28.541      19.184      13.780      10.517      8.7492      7.9195      7.6839      7.9212    
  8.7494      10.516      13.780      19.186      28.541      46.195      74.403      112.03      155.43      199.61    
  238.59      265.80      275.62      265.79      173.10      139.52      104.08      71.687      46.199      29.352    
  19.928      14.404      10.928      8.9375      7.9014      7.4715      7.4722      7.9020      8.9367      10.928    
  14.406      19.930      29.352      46.197      71.685      104.08      139.52      173.10      199.60      214.30    
  214.30      199.60      116.30      89.736      64.133      43.095      28.541      19.928      14.625      11.156    
  9.0747      7.9069      7.3276      7.1553      7.3284      7.9066      9.0732      11.155      14.626      19.930    
  28.544      43.097      64.133      89.732      116.29      139.54      155.46      161.12      155.46      139.54    
  71.762      53.396      37.675      26.336      19.184      14.404      11.156      9.1254      7.9172      7.2445    
  6.9458      6.9464      7.2452      7.9163      9.1236      11.154      14.404      19.185      26.339      37.679    
  53.398      71.759      89.776      104.14      112.11      112.11      104.15      89.782      41.721      31.235    
  23.305      17.833      13.780      10.928      9.0747      7.9172      7.2177      6.8400      6.7205      6.8407    
  7.2184      7.9173      9.0742      10.927      13.776      17.830      23.306      31.240      41.725      53.444    
  64.224      71.805      74.533      71.807      64.226      53.444      25.103      20.070      16.060      12.851    
  10.517      8.9375      7.9069      7.2445      6.8400      6.6449      6.6450      6.8403      7.2456      7.9089    
  8.9390      10.516      12.847      16.055      20.069      25.105      31.268      37.750      43.208      46.330    
  46.329      43.205      37.746      31.264      16.960      14.114      11.763      9.9945      8.7492      7.9014    
  7.3276      6.9458      6.7205      6.6450      6.7201      6.9452      7.3279      7.9037      8.7528      9.9969    
  11.763      14.109      16.955      20.067      23.326      26.391      28.621      29.439      28.617      26.386    
  23.325      20.070      12.241      10.670      9.4469      8.5529      7.9195      7.4715      7.1553      6.9464    
  6.8407      6.8403      6.9452      7.1532      7.4699      7.9205      8.5568      9.4517      10.673      12.240    
  14.081      16.019      17.802      19.171      19.926      19.925      19.170      17.803      16.023      14.085    
  9.6893      8.9440      8.3851      7.9785      7.6839      7.4722      7.3284      7.2452      7.2184      7.2456    
  7.3279      7.4699      7.6803      7.9759      8.3857      8.9479      9.6944      10.624      11.682      12.749    
  13.673      14.300      14.523      14.303      13.677      12.753      11.682      10.621      8.5239      8.2645    
  8.0893      7.9796      7.9212      7.9020      7.9066      7.9163      7.9173      7.9089      7.9037      7.9205    
  7.9759      8.0844      8.2616      8.5252      8.8872      9.3408      9.8487      10.343      10.740      10.962    
  10.963      10.743      10.345      9.8469      9.3360      8.8826      8.2015      8.2652      8.3857      8.5541    
  8.7494      8.9367      9.0732      9.1236      9.0742      8.9390      8.7528      8.5568      8.3857      8.2616    
  8.1964      8.1952      8.2582      8.3775      8.5331      8.6914      8.8108      8.8554      8.8105      8.6897    
  8.5297      8.3740      8.2575      8.1984      8.5262      8.9445      9.4466      9.9936      10.516      10.928    
  11.155      11.154      10.927      10.516      9.9969      9.4517      8.9479      8.5252      8.1952      7.9516    
  7.7819      7.6745      7.6176      7.5959      7.5911      7.5902      7.5936      7.6151      7.6736      7.7841    
  7.9564      8.1998      9.6897      10.670      11.763      12.850      13.780      14.406      14.626      14.404    
  13.776      12.847      11.763      10.673      9.6944      8.8872      8.2582      7.7819      7.4258      7.1652    
  6.9862      6.8812      6.8461      6.8801      6.9858      7.1671      7.4294      7.7849      8.2583      8.8841    
  12.239      14.113      16.060      17.833      19.186      19.930      19.930      19.185      17.830      16.055    
  14.109      12.240      10.624      9.3408      8.3775      7.6745      7.1652      6.8020      6.5619      6.4407    
  6.4408      6.5627      6.8040      7.1678      7.6752      8.3747      9.3357      10.620      16.959      20.071    
  23.305      26.336      28.541      29.352      28.544      26.339      23.306      20.069      16.955      14.081    
  11.682      9.8487      8.5331      7.6176      6.9862      6.5619      6.3112      6.2278      6.3121      6.5630    
  6.9863      7.6158      8.5299      9.8459      11.681      14.084      25.105      31.236      37.674      43.093    
  46.195      46.197      43.097      37.679      31.240      25.105      20.067      16.019      12.749      10.343    
  8.6914      7.5959      6.8812      6.4407      6.2278      6.2282      6.4411      6.8803      7.5936      8.6893    
  10.343      12.752      16.024      20.071      41.721      53.395      64.133      71.685      74.403      71.685    
  64.133      53.398      41.725      31.268      23.326      17.802      13.673      10.740      8.8108      7.5911    
  6.8461      6.4408      6.3121      6.4411      6.8455      7.5898      8.8106      10.742      13.676      17.804    
  23.326      31.266      71.760      89.737      104.08      112.03      112.03      104.08      89.732      71.759    
  53.444      37.750      26.391      19.171      14.300      10.962      8.8554      7.5902      6.8801      6.5627    
  6.5630      6.8803      7.5898      8.8558      10.964      14.303      19.170      26.387      37.746      53.442    
  116.29      139.52      155.44      161.11      155.43      139.52      116.29      89.776      64.224      43.208    
  28.621      19.926      14.523      10.963      8.8105      7.5936      6.9858      6.8040      6.9863      7.5936    
  8.8106      10.964      14.524      19.924      28.617      43.205      64.224      89.778      173.10      199.61    
  214.33      214.33      199.61      173.10      139.54      104.14      71.805      46.330      29.439      19.925    
  14.303      10.743      8.6897      7.6151      7.1671      7.1678      7.6158      8.6893      10.742      14.303    
  19.924      29.436      46.329      71.808      104.15      139.54      238.58      265.82      275.66      265.82    
  238.59      199.60      155.46      112.11      74.533      46.329      28.617      19.170      13.677      10.345    
  8.5297      7.6736      7.4294      7.6752      8.5299      10.343      13.676      19.170      28.617      46.329    
  74.536      112.11      155.46      199.60      307.85      331.87      331.87      307.85      265.80      214.30    
  161.12      112.11      71.807      43.205      26.386      17.803      12.753      9.8469      8.3740      7.7841    
  7.7849      8.3747      9.8459      12.752      17.804      26.387      43.205      71.808      112.11      161.12    
  214.30      265.79      372.51      387.49      372.50      331.84      275.62      214.30      155.46      104.15    
  64.226      37.746      23.325      16.023      11.682      9.3360      8.2575      7.9564      8.2583      9.3357    
  11.681      16.024      23.326      37.746      64.224      104.15      155.46      214.30      275.62      331.85    
  419.93      419.93      387.47      331.84      265.79      199.60      139.54      89.782      53.444      31.264    
  20.070      14.085      10.621      8.8826      8.1984      8.1998      8.8841      10.620      14.084      20.071    
  31.266      53.442      89.778      139.54      199.60      265.79      331.85      387.48      392.31      377.10    
  335.85      278.86      216.77      157.23      105.31      64.888      38.045      23.425      16.065      11.702    
  9.3449      8.2628      7.9630      8.2665      9.3452      11.699      16.064      23.428      38.046      64.884    
  105.31      157.23      216.77      278.86      335.86      377.10      377.10      348.93      300.15      241.32    
  181.40      126.53      81.141      48.417      28.812      18.944      13.434      10.256      8.6572      8.0246    
  8.0263      8.6588      10.254      13.433      18.946      28.814      48.415      81.141      126.53      181.41    
  241.31      300.14      348.93      377.10      335.85      300.15      250.14      194.79      141.08      94.174    
  58.026      34.476      21.842      15.238      11.268      9.1267      8.1388      7.8629      8.1408      9.1263    
  11.266      15.238      21.844      34.475      58.024      94.179      141.08      194.79      250.14      300.14    
  335.85      348.92      278.86      241.32      194.79      146.26      101.42      64.820      39.265      24.515    
  16.885      12.274      9.6357      8.2964      7.7589      7.7609      8.2985      9.6339      12.272      16.886    
  24.516      39.262      64.817      101.42      146.26      194.79      241.31      278.86      300.12      300.12    
  216.77      181.40      141.08      101.42      67.272      42.016      26.452      18.140      13.132      10.120    
  8.4800      7.7034      7.4818      7.7062      8.4804      10.118      13.132      18.142      26.451      42.011    
  67.268      101.42      141.08      181.41      216.78      241.30      250.11      241.29      157.23      126.53    
  94.174      64.820      42.016      27.163      18.821      13.709      10.500      8.6557      7.6865      7.2805    
  7.2818      7.6878      8.6543      10.499      13.712      18.823      27.162      42.013      64.817      94.173    
  126.53      157.23      181.41      194.78      194.77      181.40      105.31      81.141      58.026      39.265    
  26.452      18.821      13.913      10.710      8.7832      7.6921      7.1443      6.9804      7.1458      7.6917    
  8.7810      10.710      13.916      18.823      26.453      39.266      58.026      81.138      105.31      126.55    
  141.11      146.29      141.10      126.55      64.888      48.417      34.476      24.515      18.140      13.709    
  10.710      8.8303      7.7021      7.0662      6.7808      6.7818      7.0671      7.7006      8.8279      10.709    
  13.710      18.141      24.518      34.481      48.419      64.884      81.177      94.238      101.50      101.50    
  94.243      81.183      38.045      28.812      21.842      16.885      13.132      10.500      8.7832      7.7021    
  7.0411      6.6802      6.5656      6.6813      7.0417      7.7015      8.7824      10.498      13.129      16.882    
  21.844      28.818      38.049      48.457      58.103      64.922      67.383      64.925      58.106      48.457    
  23.425      18.944      15.238      12.274      10.120      8.6557      7.6921      7.0662      6.6802      6.4931    
  6.4935      6.6810      7.0672      7.6936      8.6569      10.118      12.270      15.233      18.943      23.428    
  28.836      34.534      39.354      42.121      42.120      39.351      34.530      28.832      16.065      13.434    
  11.268      9.6357      8.4800      7.6865      7.1443      6.7808      6.5656      6.4935      6.5655      6.7806    
  7.1449      7.6890      8.4835      9.6375      11.267      13.430      16.060      18.933      21.847      24.545    
  26.501      27.218      26.497      24.540      21.845      18.935      11.702      10.256      9.1267      8.2964    
  7.7034      7.2805      6.9804      6.7818      6.6813      6.6810      6.7806      6.9785      7.2793      7.7049    
  8.3006      9.1311      10.258      11.700      13.395      15.183      16.833      18.100      18.788      18.787    
  18.098      16.834      15.187      13.400      9.3449      8.6572      8.1388      7.7589      7.4818      7.2818    
  7.1458      7.0671      7.0417      7.0672      7.1449      7.2793      7.4786      7.7571      8.1401      8.6615    
  9.3496      10.204      11.175      12.155      13.003      13.580      13.785      13.582      13.007      12.159    
  11.176      10.202      8.2628      8.0246      7.8629      7.7609      7.7062      7.6878      7.6917      7.7006    
  7.7015      7.6936      7.6890      7.7049      7.7571      7.8583      8.0224      8.2648      8.5963      9.0112    
  9.4755      9.9275      10.290      10.493      10.494      10.293      9.9296      9.4743      9.0067      8.5915    
  7.9630      8.0263      8.1408      8.2985      8.4804      8.6543      8.7810      8.8279      8.7824      8.6569    
  8.4835      8.3006      8.1401      8.0224      7.9581      7.9520      8.0046      8.1094      8.2485      8.3912    
  8.4992      8.5398      8.4993      8.3901      8.2454      8.1057      8.0031      7.9545      8.2665      8.6588    
  9.1263      9.6339      10.118      10.499      10.710      10.709      10.498      10.118      9.6375      9.1311    
  8.6615      8.2648      7.9520      7.7179      7.5521      7.4451      7.3868      7.3633      7.3573      7.3565    
  7.3611      7.3842      7.4437      7.5536      7.7223      7.9568      9.3452      10.254      11.266      12.272    
  13.132      13.712      13.916      13.710      13.129      12.270      11.267      10.258      9.3496      8.5963    
  8.0046      7.5521      7.2107      6.9595      6.7868      6.6858      6.6520      6.6845      6.7861      6.9609    
  7.2140      7.5553      8.0054      8.5940      11.699      13.433      15.238      16.886      18.142      18.823    
  18.823      18.141      16.882      15.233      13.430      11.700      10.204      9.0112      8.1094      7.4451    
  6.9595      6.6112      6.3807      6.2643      6.2642      6.3811      6.6131      6.9622      7.4463      8.1073    
  9.0065      10.200      16.064      18.946      21.844      24.516      26.451      27.162      26.453      24.518    
  21.844      18.943      16.060      13.395      11.175      9.4755      8.2485      7.3868      6.7868      6.3807    
  6.1398      6.0594      6.1406      6.3818      6.7872      7.3856      8.2456      9.4725      11.174      13.397    
  23.428      28.814      34.475      39.262      42.011      42.013      39.266      34.481      28.818      23.428    
  18.933      15.183      12.155      9.9275      8.3912      7.3633      6.6858      6.2643      6.0594      6.0599    
  6.2649      6.6850      7.3611      8.3890      9.9269      12.157      15.187      18.937      38.046      48.415    
  58.024      64.817      67.268      64.817      58.026      48.419      38.049      28.836      21.847      16.833    
  13.003      10.290      8.4992      7.3573      6.6520      6.2642      6.1406      6.2649      6.6514      7.3555    
  8.4986      10.292      13.006      16.835      21.848      28.835      64.884      81.141      94.179      101.42    
  101.42      94.173      81.138      64.884      48.457      34.534      24.545      18.100      13.580      10.493    
  8.5398      7.3565      6.6845      6.3811      6.3818      6.6850      7.3555      8.5395      10.496      13.583    
  18.100      24.542      34.530      48.454      105.31      126.53      141.08      146.26      141.08      126.53    
  105.31      81.177      58.103      39.354      26.501      18.788      13.785      10.494      8.4993      7.3611    
  6.7861      6.6131      6.7872      7.3611      8.4986      10.496      13.787      18.787      26.497      39.351    
  58.103      81.178      157.23      181.41      194.79      194.79      181.41      157.23      126.55      94.238    
  64.922      42.121      27.218      18.787      13.582      10.293      8.3901      7.3842      6.9609      6.9622    
  7.3856      8.3890      10.292      13.583      18.787      27.215      42.119      64.925      94.243      126.55    
  216.77      241.31      250.14      241.31      216.78      181.41      141.11      101.50      67.383      42.120    
  26.497      18.098      13.007      9.9296      8.2454      7.4437      7.2140      7.4463      8.2456      9.9269    
  13.006      18.100      26.497      42.119      67.386      101.50      141.11      181.40      278.86      300.14    
  300.14      278.86      241.30      194.78      146.29      101.50      64.925      39.351      24.540      16.834    
  12.159      9.4743      8.1057      7.5536      7.5553      8.1073      9.4725      12.157      16.835      24.542    
  39.351      64.925      101.50      146.29      194.77      241.29      335.86      348.93      335.85      300.12    
  250.11      194.77      141.10      94.243      58.106      34.530      21.845      15.187      11.176      9.0067    
  8.0031      7.7223      8.0054      9.0065      11.174      15.187      21.848      34.530      58.103      94.243    
  141.11      194.77      250.11      300.12      377.10      377.10      348.92      300.12      241.29      181.40    
  126.55      81.183      48.457      28.832      18.935      13.400      10.202      8.5915      7.9545      7.9568    
  8.5940      10.200      13.397      18.937      28.835      48.454      81.178      126.55      181.40      241.29    
  300.12      348.93      329.80      317.63      284.27      237.25      184.83      133.73      89.120      54.926    
  32.841      21.035      14.708      10.885      8.8158      7.8560      7.5884      7.8609      8.8161      10.880    
  14.707      21.040      32.842      54.921      89.117      133.73      184.83      237.25      284.27      317.64    
  317.63      294.91      254.94      205.69      154.53      107.30      68.574      41.296      25.401      17.256    
  12.406      9.6238      8.2127      7.6483      7.6510      8.2152      9.6208      12.404      17.259      25.404    
  41.294      68.573      107.31      154.54      205.68      254.93      294.91      317.63      284.27      254.94    
  213.15      166.03      119.82      79.620      49.221      29.963      19.737      13.992      10.515      8.6328    
  7.7534      7.5061      7.7568      8.6325      10.512      13.992      19.740      29.962      49.219      79.624    
  119.82      166.03      213.14      254.93      284.27      294.90      237.25      205.69      166.03      124.28    
  85.793      54.871      33.836      21.935      15.445      11.399      9.0848      7.8964      7.4129      7.4157    