Cd                                      
   1.00000000000000     
     3.037160    0.000000    0.000000
     1.518580    2.630258    0.000000
     0.000000    0.000000    5.770610
   Cd
     2
Direct
  0.000000  0.000000  0.000000
  0.333333  0.333333  0.500000
 
   28   28   56
 0.45418244653E+03 0.43566329582E+03 0.38588355064E+03 0.31831339597E+03 0.24635990883E+03
 0.17871585425E+03 0.12018124326E+03 0.74213732222E+02 0.43047279055E+02 0.25710343488E+02
 0.17272225844E+02 0.12429317395E+02 0.98088938692E+01 0.86142919218E+01 0.82833346199E+01
 0.86150932003E+01 0.98092692444E+01 0.12428691780E+02 0.17271558494E+02 0.25710662941E+02
 0.43048103554E+02 0.74213773505E+02 0.12018032152E+03 0.17871515767E+03 0.24636027960E+03
 0.31831424364E+03 0.38588388781E+03 0.43566313500E+03 0.43566329582E+03 0.40159522305E+03
 0.34337791931E+03 0.27460272231E+03 0.20606231664E+03 0.14411081813E+03 0.92788332395E+02
 0.55183156627E+02 0.32113863742E+02 0.20470319842E+02 0.14350656507E+02 0.10814318952E+02
 0.90432706930E+01 0.83470676399E+01 0.83467290275E+01 0.90428271319E+01 0.10814521361E+02
 0.14351119956E+02 0.20470110190E+02 0.32113261691E+02 0.55183798923E+02 0.92791079413E+02
 0.14411407263E+03 0.20606319178E+03 0.27459982966E+03 0.34337264099E+03 0.40159044896E+03
 0.43566141834E+03 0.38588355064E+03 0.34337791931E+03 0.28482506079E+03 0.22127063189E+03
 0.16051046031E+03 0.10758743277E+03 0.66316376452E+02 0.38831639150E+02 0.23832403262E+02
 0.16347006171E+02 0.11935645690E+02 0.95577106917E+01 0.84700660722E+01 0.81666320897E+01
 0.84692447898E+01 0.95573994975E+01 0.11936323046E+02 0.16347377685E+02 0.23831377104E+02
 0.38830389299E+02 0.66317257715E+02 0.10759086533E+03 0.16051384361E+03 0.22127078352E+03
 0.28482130234E+03 0.34337254449E+03 0.38587981494E+03 0.40157574409E+03 0.31831339597E+03
 0.27460272231E+03 0.22127063189E+03 0.16635351922E+03 0.11579121337E+03 0.74137152813E+02
 0.44476391882E+02 0.26995726127E+02 0.18163013720E+02 0.13052461457E+02 0.10118574927E+02
 0.86412912209E+01 0.80537367741E+01 0.80538868374E+01 0.86415338114E+01 0.10118612375E+02
 0.13052314052E+02 0.18162789644E+02 0.26995175770E+02 0.44475183005E+02 0.74135666793E+02
 0.11579059564E+03 0.16635457670E+03 0.22127288010E+03 0.27460485965E+03 0.31831459164E+03
 0.34334230724E+03 0.34334198017E+03 0.24635990883E+03 0.20606231664E+03 0.16051046031E+03
 0.11579121337E+03 0.76950949147E+02 0.47704940831E+02 0.29298534537E+02 0.19551776813E+02
 0.14005812455E+02 0.10654694434E+02 0.88417945402E+01 0.79937012067E+01 0.77525905394E+01
 0.79941373399E+01 0.88419737944E+01 0.10654525389E+02 0.14006115051E+02 0.19552772400E+02
 0.29298747691E+02 0.47702615123E+02 0.76946587231E+02 0.11578793181E+03 0.16051135453E+03
 0.20606762316E+03 0.24636678504E+03 0.27457279048E+03 0.28477350012E+03 0.27456812888E+03
 0.17871585425E+03 0.14411081813E+03 0.10758743277E+03 0.74137152813E+02 0.47704940831E+02
 0.30145242464E+02 0.20320537217E+02 0.14647015418E+02 0.11077389789E+02 0.90344261298E+01
 0.79750757348E+01 0.75366991074E+01 0.75366305082E+01 0.79748678655E+01 0.90342257437E+01
 0.11077643304E+02 0.14648138833E+02 0.20322236231E+02 0.30146301870E+02 0.47704082619E+02
 0.74134409126E+02 0.10758460362E+03 0.14411018913E+03 0.17871810583E+03 0.20605439313E+03
 0.22124087462E+03 0.22123930658E+03 0.20605105738E+03 0.12018124326E+03 0.92788332395E+02
 0.66316376452E+02 0.44476391882E+02 0.29298534537E+02 0.20320537217E+02 0.14873421689E+02
 0.11311305407E+02 0.91749380842E+01 0.79802818871E+01 0.73901900302E+01 0.72147267886E+01
 0.73901532921E+01 0.79800253427E+01 0.91743012115E+01 0.11310594756E+02 0.14873611518E+02
 0.20322556158E+02 0.29301998555E+02 0.44479282405E+02 0.66316491455E+02 0.92785231738E+02
 0.12017659198E+03 0.14412897000E+03 0.16052809953E+03 0.16636707781E+03 0.16053019176E+03
 0.14413295137E+03 0.74213732222E+02 0.55183156627E+02 0.38831639150E+02 0.26995726127E+02
 0.19551776813E+02 0.14647015418E+02 0.11311305407E+02 0.92269548454E+01 0.79904005902E+01
 0.73053042144E+01 0.70020441994E+01 0.70022471884E+01 0.73056587475E+01 0.79902637977E+01
 0.92257653861E+01 0.11309319690E+02 0.14645606437E+02 0.19552593526E+02 0.26999119981E+02
 0.38835839256E+02 0.55185259142E+02 0.74211880601E+02 0.92830036033E+02 0.10765526018E+03
 0.11586769106E+03 0.11586991083E+03 0.10766053124E+03 0.92835094102E+02 0.43047279055E+02
 0.32113863742E+02 0.23832403262E+02 0.18163013720E+02 0.14005812455E+02 0.11077389789E+02
 0.91749380842E+01 0.79904005902E+01 0.72778739696E+01 0.68945760437E+01 0.67733279113E+01
 0.68947598139E+01 0.72785368415E+01 0.79912849863E+01 0.91748562116E+01 0.11075240702E+02
 0.14002141419E+02 0.18160217951E+02 0.23832858501E+02 0.32117589410E+02 0.43051630136E+02
 0.55235147093E+02 0.66412266958E+02 0.74259594663E+02 0.77081739827E+02 0.74261271513E+02
 0.66413194867E+02 0.55233152219E+02 0.25710343488E+02 0.20470319842E+02 0.16347006171E+02
 0.13052461457E+02 0.10654694434E+02 0.90344261298E+01 0.79802818871E+01 0.73053042144E+01
 0.68945760437E+01 0.66968023221E+01 0.66965824494E+01 0.68945084733E+01 0.73063975897E+01
 0.79824916086E+01 0.90361434344E+01 0.10653965128E+02 0.13048905930E+02 0.16342534665E+02
 0.20467803156E+02 0.25711408817E+02 0.32149721285E+02 0.38913487938E+02 0.44597438587E+02
 0.47845261244E+02 0.47844029184E+02 0.44593972890E+02 0.38908779710E+02 0.32145758621E+02
 0.17272225844E+02 0.14350656507E+02 0.11935645690E+02 0.10118574927E+02 0.88417945402E+01
 0.79750757348E+01 0.73901900302E+01 0.70020441994E+01 0.67733279113E+01 0.66965824494E+01
 0.67725950606E+01 0.70011520925E+01 0.73902561741E+01 0.79770879281E+01 0.88453974234E+01
 0.10121625713E+02 0.11935587611E+02 0.14346848579E+02 0.17266969421E+02 0.20469818552E+02
 0.23859414568E+02 0.27059100523E+02 0.29389134047E+02 0.30243545730E+02 0.29385470669E+02
 0.27054817252E+02 0.23858145645E+02 0.20472849601E+02 0.12429317395E+02 0.10814318952E+02
 0.95577106917E+01 0.86412912209E+01 0.79937012067E+01 0.75366991074E+01 0.72147267886E+01
 0.70022471884E+01 0.68947598139E+01 0.68945084733E+01 0.70011520925E+01 0.72125976316E+01
 0.75347324039E+01 0.79940308404E+01 0.86448314375E+01 0.95626522171E+01 0.10817261002E+02
 0.12428173659E+02 0.14320730255E+02 0.16311277743E+02 0.18139460795E+02 0.19548137217E+02
 0.20329618220E+02 0.20329275257E+02 0.19548088094E+02 0.18141452460E+02 0.16315508732E+02
 0.14324936960E+02 0.98088938692E+01 0.90432706930E+01 0.84700660722E+01 0.80537367741E+01
 0.77525905394E+01 0.75366305082E+01 0.73901532921E+01 0.73056587475E+01 0.72785368415E+01
 0.73063975897E+01 0.73902561741E+01 0.75347324039E+01 0.77489481084E+01 0.80505411931E+01
 0.84698811378E+01 0.90467810291E+01 0.98140520306E+01 0.10770848659E+02 0.11858739015E+02
 0.12957238156E+02 0.13907049911E+02 0.14552236392E+02 0.14781666423E+02 0.14555099200E+02
 0.13911402340E+02 0.12960666911E+02 0.11858948138E+02 0.10767345636E+02 0.86142919218E+01
 0.83470676399E+01 0.81666320897E+01 0.80538868374E+01 0.79941373399E+01 0.79748678655E+01
 0.79800253427E+01 0.79902637977E+01 0.79912849863E+01 0.79824916086E+01 0.79770879281E+01
 0.79940308404E+01 0.80505411931E+01 0.81615730526E+01 0.83435914045E+01 0.86149155235E+01
 0.89879007119E+01 0.94552759366E+01 0.99786566548E+01 0.10488188326E+02 0.10897041964E+02
 0.11125887894E+02 0.11127064548E+02 0.10899388709E+02 0.10489097918E+02 0.99762971792E+01
 0.94504032081E+01 0.89836220011E+01 0.82833346199E+01 0.83467290275E+01 0.84692447898E+01
 0.86415338114E+01 0.88419737944E+01 0.90342257437E+01 0.91743012115E+01 0.92257653861E+01
 0.91748562116E+01 0.90361434344E+01 0.88453974234E+01 0.86448314375E+01 0.84698811378E+01
 0.83435914045E+01 0.82781692601E+01 0.82788869576E+01 0.83455827406E+01 0.84700880000E+01
 0.86317063862E+01 0.87956246883E+01 0.89189748872E+01 0.89648908180E+01 0.89182579008E+01
 0.87934181378E+01 0.86280981505E+01 0.84670361391E+01 0.83456245700E+01 0.82826380978E+01
 0.86150932003E+01 0.90428271319E+01 0.95573994975E+01 0.10118612375E+02 0.10654525389E+02
 0.11077643304E+02 0.11310594756E+02 0.11309319690E+02 0.11075240702E+02 0.10653965128E+02
 0.10121625713E+02 0.95626522171E+01 0.90467810291E+01 0.86149155235E+01 0.82788869576E+01
 0.80318657930E+01 0.78608283905E+01 0.77534052151E+01 0.76971588351E+01 0.76760814276E+01
 0.76716621523E+01 0.76707455150E+01 0.76737645392E+01 0.76948166505E+01 0.77530241585E+01
 0.78636532045E+01 0.80368842158E+01 0.82829663602E+01 0.98092692444E+01 0.10814521361E+02
 0.11936323046E+02 0.13052314052E+02 0.14006115051E+02 0.14648138833E+02 0.14873611518E+02
 0.14645606437E+02 0.14002141419E+02 0.13048905930E+02 0.11935587611E+02 0.10817261002E+02
 0.98140520306E+01 0.89879007119E+01 0.83455827406E+01 0.78608283905E+01 0.74996135061E+01
 0.72358816925E+01 0.70546812594E+01 0.69482940575E+01 0.69128007449E+01 0.69475269328E+01
 0.70547186946E+01 0.72380651615E+01 0.75033000988E+01 0.78635355132E+01 0.83450249839E+01
 0.89840418737E+01 0.12428691780E+02 0.14351119956E+02 0.16347377685E+02 0.18162789644E+02
 0.19552772400E+02 0.20322236231E+02 0.20322556158E+02 0.19552593526E+02 0.18160217951E+02
 0.16342534665E+02 0.14346848579E+02 0.12428173659E+02 0.10770848659E+02 0.94552759366E+01
 0.84700880000E+01 0.77534052151E+01 0.72358816925E+01 0.68674050968E+01 0.66240691633E+01
 0.65012543745E+01 0.65014693608E+01 0.66250760560E+01 0.68695115691E+01 0.72380781867E+01
 0.77535426878E+01 0.84668593639E+01 0.94500561515E+01 0.10767129927E+02 0.17271558494E+02
 0.20470110190E+02 0.23831377104E+02 0.26995175770E+02 0.29298747691E+02 0.30146301870E+02
 0.29301998555E+02 0.26999119981E+02 0.23832858501E+02 0.20467803156E+02 0.17266969421E+02
 0.14320730255E+02 0.11858739015E+02 0.99786566548E+01 0.86317063862E+01 0.76971588351E+01
 0.70546812594E+01 0.66240691633E+01 0.63700644994E+01 0.62855654062E+01 0.63709163392E+01
 0.66249387523E+01 0.70543455631E+01 0.76949303456E+01 0.86283436657E+01 0.99762844138E+01
 0.11859383436E+02 0.14324492521E+02 0.25710662941E+02 0.32113261691E+02 0.38830389299E+02
 0.44475183005E+02 0.47702615123E+02 0.47704082619E+02 0.44479282405E+02 0.38835839256E+02
 0.32117589410E+02 0.25711408817E+02 0.20469818552E+02 0.16311277743E+02 0.12957238156E+02
 0.10488188326E+02 0.87956246883E+01 0.76760814276E+01 0.69482940575E+01 0.65012543745E+01
 0.62855654062E+01 0.62857492220E+01 0.65012993898E+01 0.69472617546E+01 0.76738524448E+01
 0.87936130676E+01 0.10488515470E+02 0.12960756965E+02 0.16316299289E+02 0.20473088363E+02
 0.43048103554E+02 0.55183798923E+02 0.66317257715E+02 0.74135666793E+02 0.76946587231E+02
 0.74134409126E+02 0.66316491455E+02 0.55185259142E+02 0.43051630136E+02 0.32149721285E+02
 0.23859414568E+02 0.18139460795E+02 0.13907049911E+02 0.10897041964E+02 0.89189748872E+01
 0.76716621523E+01 0.69128007449E+01 0.65014693608E+01 0.63709163392E+01 0.65012993898E+01
 0.69121557665E+01 0.76708483680E+01 0.89191995760E+01 0.10899223396E+02 0.13910379233E+02
 0.18141620093E+02 0.23858576806E+02 0.32146337451E+02 0.74213773505E+02 0.92791079413E+02
 0.10759086533E+03 0.11579059564E+03 0.11578793181E+03 0.10758460362E+03 0.92785231738E+02
 0.74211880601E+02 0.55235147093E+02 0.38913487938E+02 0.27059100523E+02 0.19548137217E+02
 0.14552236392E+02 0.11125887894E+02 0.89648908180E+01 0.76707455150E+01 0.69475269328E+01
 0.66250760560E+01 0.66249387523E+01 0.69472617546E+01 0.76708483680E+01 0.89660006738E+01
 0.11127985396E+02 0.14553987763E+02 0.19547564643E+02 0.27055463637E+02 0.38908586672E+02
 0.55232420256E+02 0.12018032152E+03 0.14411407263E+03 0.16051384361E+03 0.16635457670E+03
 0.16051135453E+03 0.14411018913E+03 0.12017659198E+03 0.92830036033E+02 0.66412266958E+02
 0.44597438587E+02 0.29389134047E+02 0.20329618220E+02 0.14781666423E+02 0.11127064548E+02
 0.89182579008E+01 0.76737645392E+01 0.70547186946E+01 0.68695115691E+01 0.70543455631E+01
 0.76738524448E+01 0.89191995760E+01 0.11127985396E+02 0.14781195377E+02 0.20327361052E+02
 0.29386163973E+02 0.44595422653E+02 0.66412323196E+02 0.92832290212E+02 0.17871515767E+03
 0.20606319178E+03 0.22127078352E+03 0.22127288010E+03 0.20606762316E+03 0.17871810583E+03
 0.14412897000E+03 0.10765526018E+03 0.74259594663E+02 0.47845261244E+02 0.30243545730E+02
 0.20329275257E+02 0.14555099200E+02 0.10899388709E+02 0.87934181378E+01 0.76948166505E+01
 0.72380651615E+01 0.72380781867E+01 0.76949303456E+01 0.87936130676E+01 0.10899223396E+02
 0.14553987763E+02 0.20327361052E+02 0.30242178695E+02 0.47846114221E+02 0.74262863953E+02
 0.10765880736E+03 0.14412979219E+03 0.24636027960E+03 0.27459982966E+03 0.28482130234E+03
 0.27460485965E+03 0.24636678504E+03 0.20605439313E+03 0.16052809953E+03 0.11586769106E+03
 0.77081739827E+02 0.47844029184E+02 0.29385470669E+02 0.19548088094E+02 0.13911402340E+02
 0.10489097918E+02 0.86280981505E+01 0.77530241585E+01 0.75033000988E+01 0.77535426878E+01
 0.86283436657E+01 0.10488515470E+02 0.13910379233E+02 0.19547564643E+02 0.29386163973E+02
 0.47846114221E+02 0.77084750522E+02 0.11587022529E+03 0.16052802085E+03 0.20605038986E+03
 0.31831424364E+03 0.34337264099E+03 0.34337254449E+03 0.31831459164E+03 0.27457279048E+03
 0.22124087462E+03 0.16636707781E+03 0.11586991083E+03 0.74261271513E+02 0.44593972890E+02
 0.27054817252E+02 0.18141452460E+02 0.12960666911E+02 0.99762971792E+01 0.84670361391E+01
 0.78636532045E+01 0.78635355132E+01 0.84668593639E+01 0.99762844138E+01 0.12960756965E+02
 0.18141620093E+02 0.27055463637E+02 0.44595422653E+02 0.74262863953E+02 0.11587022529E+03
 0.16636546326E+03 0.22123838918E+03 0.27457112440E+03 0.38588388781E+03 0.40159044896E+03
 0.38587981494E+03 0.34334230724E+03 0.28477350012E+03 0.22123930658E+03 0.16053019176E+03
 0.10766053124E+03 0.66413194867E+02 0.38908779710E+02 0.23858145645E+02 0.16315508732E+02
 0.11858948138E+02 0.94504032081E+01 0.83456245700E+01 0.80368842158E+01 0.83450249839E+01
 0.94500561515E+01 0.11859383436E+02 0.16316299289E+02 0.23858576806E+02 0.38908586672E+02
 0.66412323196E+02 0.10765880736E+03 0.16052802085E+03 0.22123838918E+03 0.28477567002E+03
 0.34334709349E+03 0.43566313500E+03 0.43566141834E+03 0.40157574409E+03 0.34334198017E+03
 0.27456812888E+03 0.20605105738E+03 0.14413295137E+03 0.92835094102E+02 0.55233152219E+02
 0.32145758621E+02 0.20472849601E+02 0.14324936960E+02 0.10767345636E+02 0.89836220011E+01
 0.82826380978E+01 0.82829663602E+01 0.89840418737E+01 0.10767129927E+02 0.14324492521E+02
 0.20473088363E+02 0.32146337451E+02 0.55232420256E+02 0.92832290212E+02 0.14412979219E+03
 0.20605038986E+03 0.27457112440E+03 0.34334709349E+03 0.40158020124E+03 0.43752766845E+03
 0.41992606887E+03 0.37250759737E+03 0.30785054328E+03 0.23858118965E+03 0.17309907364E+03
 0.11629512988E+03 0.71762242426E+02 0.41720637037E+02 0.25102931114E+02 0.16959616645E+02
 0.12241399133E+02 0.96893039460E+01 0.85239088386E+01 0.82015164294E+01 0.85261759556E+01
 0.96896665101E+01 0.12239328234E+02 0.16959074554E+02 0.25104885709E+02 0.41721430603E+02
 0.71760360641E+02 0.11629340473E+03 0.17309915173E+03 0.23858154891E+03 0.30785081836E+03
 0.37250932947E+03 0.41992842039E+03 0.41992606887E+03 0.38749193503E+03 0.33187707320E+03
 0.26582244531E+03 0.19960492583E+03 0.13951781290E+03 0.89735853126E+02 0.53395726330E+02
 0.31234929723E+02 0.20070456028E+02 0.14113559987E+02 0.10670439891E+02 0.89439528760E+01
 0.82644959468E+01 0.82651949496E+01 0.89445201359E+01 0.10669539502E+02 0.14112965810E+02
 0.20071402239E+02 0.31235550101E+02 0.53395346750E+02 0.89737257077E+02 0.13952163181E+03
 0.19960656573E+03 0.26581869520E+03 0.33187130345E+03 0.38748876382E+03 0.41992546415E+03
 0.37250759737E+03 0.33187707320E+03 0.27566581783E+03 0.21432707497E+03 0.15543350063E+03
 0.10407750640E+03 0.64132717972E+02 0.37674569638E+02 0.23304878852E+02 0.16059920208E+02
 0.11763443284E+02 0.94469088091E+01 0.83851177176E+01 0.80892806509E+01 0.83857185485E+01
 0.94465569390E+01 0.11762602536E+02 0.16060200762E+02 0.23305295700E+02 0.37673531611E+02
 0.64132573920E+02 0.10408140384E+03 0.15543861422E+03 0.21432712481E+03 0.27566003082E+03
 0.33187082232E+03 0.37250463654E+03 0.38747402406E+03 0.30785054328E+03 0.26582244531E+03
 0.21432707497E+03 0.16110295599E+03 0.11203307254E+03 0.71687216743E+02 0.43094925019E+02
 0.26336012193E+02 0.17832547826E+02 0.12851336613E+02 0.99944613701E+01 0.85528780973E+01
 0.79785149653E+01 0.79796081400E+01 0.85540776301E+01 0.99935728980E+01 0.12850181230E+02
 0.17833059586E+02 0.26336194510E+02 0.43092877882E+02 0.71685391726E+02 0.11203424055E+03
 0.16110542361E+03 0.21432799686E+03 0.26582251495E+03 0.30785148434E+03 0.33184382627E+03
 0.33184306468E+03 0.23858118965E+03 0.19960492583E+03 0.15543350063E+03 0.11203307254E+03
 0.74407265141E+02 0.46198947826E+02 0.28541130304E+02 0.19183913487E+02 0.13779730567E+02
 0.10517053414E+02 0.87491656043E+01 0.79195335661E+01 0.76838742886E+01 0.79212043201E+01
 0.87494378606E+01 0.10515793227E+02 0.13780009088E+02 0.19185832905E+02 0.28540926764E+02
 0.46195179398E+02 0.74403037610E+02 0.11203135988E+03 0.15543467259E+03 0.19960905727E+03
 0.23858793718E+03 0.26579564476E+03 0.27561802792E+03 0.26578989253E+03 0.17309907364E+03
 0.13951781290E+03 0.10407750640E+03 0.71687216743E+02 0.46198947826E+02 0.29352008375E+02
 0.19927841694E+02 0.14404082247E+02 0.10928483629E+02 0.89375080996E+01 0.79014337175E+01
 0.74715249802E+01 0.74722030938E+01 0.79020010548E+01 0.89366701113E+01 0.10928177316E+02
 0.14406103212E+02 0.19930220061E+02 0.29351922161E+02 0.46196696504E+02 0.71684621729E+02
 0.10407525312E+03 0.13951692589E+03 0.17310159585E+03 0.19960039180E+03 0.21430242013E+03
 0.21429967033E+03 0.19959527785E+03 0.11629512988E+03 0.89735853126E+02 0.64132717972E+02
 0.43094925019E+02 0.28541130304E+02 0.19927841694E+02 0.14624523268E+02 0.11155900740E+02
 0.90746933286E+01 0.79069280258E+01 0.73275921844E+01 0.71553296563E+01 0.73283605330E+01
 0.79065792385E+01 0.90731903318E+01 0.11155429910E+02 0.14626017720E+02 0.19930188074E+02
 0.28543599374E+02 0.43097198762E+02 0.64132985414E+02 0.89732493870E+02 0.11629008442E+03
 0.13953746890E+03 0.15545505421E+03 0.16112063777E+03 0.15545553705E+03 0.13954051432E+03
 0.71762242426E+02 0.53395726330E+02 0.37674569638E+02 0.26336012193E+02 0.19183913487E+02
 0.14404082247E+02 0.11155900740E+02 0.91254225925E+01 0.79171533291E+01 0.72444998284E+01
 0.69457864784E+01 0.69464300155E+01 0.72451953942E+01 0.79163078780E+01 0.91235776410E+01
 0.11154491306E+02 0.14403598348E+02 0.19184840997E+02 0.26339314550E+02 0.37679230968E+02
 0.53397955952E+02 0.71759448847E+02 0.89775833427E+02 0.10414492633E+03 0.11211028558E+03
 0.11211210716E+03 0.10414996083E+03 0.89781761128E+02 0.41720637037E+02 0.31234929723E+02
 0.23304878852E+02 0.17832547826E+02 0.13779730567E+02 0.10928483629E+02 0.90746933286E+01
 0.79171533291E+01 0.72177283191E+01 0.68399532965E+01 0.67205172398E+01 0.68406699976E+01
 0.72183520615E+01 0.79173011664E+01 0.90742062432E+01 0.10926526470E+02 0.13776156284E+02
 0.17829800668E+02 0.23306056330E+02 0.31239645265E+02 0.41724924930E+02 0.53444331559E+02
 0.64223822057E+02 0.71804902954E+02 0.74533498480E+02 0.71806876778E+02 0.64225805994E+02
 0.53443538900E+02 0.25102931114E+02 0.20070456028E+02 0.16059920208E+02 0.12851336613E+02
 0.10517053414E+02 0.89375080996E+01 0.79069280258E+01 0.72444998284E+01 0.68399532965E+01
 0.66449187713E+01 0.66450181823E+01 0.68403495469E+01 0.72455846794E+01 0.79088547740E+01
 0.89390060085E+01 0.10515926408E+02 0.12847155510E+02 0.16055319499E+02 0.20068700940E+02
 0.25104841183E+02 0.31267874901E+02 0.37750183411E+02 0.43207634391E+02 0.46330035634E+02
 0.46328859458E+02 0.43204503909E+02 0.37745990033E+02 0.31263876457E+02 0.16959616645E+02
 0.14113559987E+02 0.11763443284E+02 0.99944613701E+01 0.87491656043E+01 0.79014337175E+01
 0.73275921844E+01 0.69457864784E+01 0.67205172398E+01 0.66450181823E+01 0.67200577165E+01
 0.69451986542E+01 0.73279391956E+01 0.79037468664E+01 0.87528004891E+01 0.99969424593E+01
 0.11762525277E+02 0.14109326948E+02 0.16954589513E+02 0.20067489180E+02 0.23326290188E+02
 0.26390863200E+02 0.28621082037E+02 0.29438722437E+02 0.28616971615E+02 0.26386042031E+02
 0.23324534979E+02 0.20070030021E+02 0.12241399133E+02 0.10670439891E+02 0.94469088091E+01
 0.85528780973E+01 0.79195335661E+01 0.74715249802E+01 0.71553296563E+01 0.69464300155E+01
 0.68406699976E+01 0.68403495469E+01 0.69451986542E+01 0.71532153462E+01 0.74699380003E+01
 0.79204956456E+01 0.85568458285E+01 0.94517243055E+01 0.10672809328E+02 0.12239614355E+02
 0.14080766164E+02 0.16019048322E+02 0.17801615537E+02 0.19170860328E+02 0.19926107469E+02
 0.19925374884E+02 0.19169981803E+02 0.17802974402E+02 0.16023179963E+02 0.14085353790E+02
 0.96893039460E+01 0.89439528760E+01 0.83851177176E+01 0.79785149653E+01 0.76838742886E+01
 0.74722030938E+01 0.73283605330E+01 0.72451953942E+01 0.72183520615E+01 0.72455846794E+01
 0.73279391956E+01 0.74699380003E+01 0.76803303620E+01 0.79759028517E+01 0.83856730797E+01
 0.89479153027E+01 0.96943622540E+01 0.10624374341E+02 0.11681596668E+02 0.12749331574E+02
 0.13672813681E+02 0.14300196185E+02 0.14523202218E+02 0.14302789145E+02 0.13677027433E+02
 0.12753078714E+02 0.11682468673E+02 0.10621444988E+02 0.85239088386E+01 0.82644959468E+01
 0.80892806509E+01 0.79796081400E+01 0.79212043201E+01 0.79020010548E+01 0.79065792385E+01
 0.79163078780E+01 0.79173011664E+01 0.79088547740E+01 0.79037468664E+01 0.79204956456E+01
 0.79759028517E+01 0.80843581474E+01 0.82615856423E+01 0.85252054226E+01 0.88872496256E+01
 0.93408057187E+01 0.98487111326E+01 0.10343157487E+02 0.10739860771E+02 0.10961930433E+02
 0.10963254878E+02 0.10742646329E+02 0.10344691027E+02 0.98468709013E+01 0.93360333953E+01
 0.88825725280E+01 0.82015164294E+01 0.82651949496E+01 0.83857185485E+01 0.85540776301E+01
 0.87494378606E+01 0.89366701113E+01 0.90731903318E+01 0.91235776410E+01 0.90742062432E+01
 0.89390060085E+01 0.87528004891E+01 0.85568458285E+01 0.83856730797E+01 0.82615856423E+01
 0.81963760680E+01 0.81952410494E+01 0.82581860132E+01 0.83774564061E+01 0.85331100201E+01
 0.86914296901E+01 0.88108044786E+01 0.88554109334E+01 0.88104738135E+01 0.86897221290E+01
 0.85296779229E+01 0.83740038379E+01 0.82574781482E+01 0.81984275896E+01 0.85261759556E+01
 0.89445201359E+01 0.94465569390E+01 0.99935728980E+01 0.10515793227E+02 0.10928177316E+02
 0.11155429910E+02 0.11154491306E+02 0.10926526470E+02 0.10515926408E+02 0.99969424593E+01
 0.94517243055E+01 0.89479153027E+01 0.85252054226E+01 0.81952410494E+01 0.79516044735E+01
 0.77818888362E+01 0.76744576183E+01 0.76176234754E+01 0.75959294218E+01 0.75911484723E+01
 0.75902385669E+01 0.75935874545E+01 0.76150684908E+01 0.76735502684E+01 0.77840964883E+01
 0.79564329306E+01 0.81997998988E+01 0.96896665101E+01 0.10669539502E+02 0.11762602536E+02
 0.12850181230E+02 0.13780009088E+02 0.14406103212E+02 0.14626017720E+02 0.14403598348E+02
 0.13776156284E+02 0.12847155510E+02 0.11762525277E+02 0.10672809328E+02 0.96943622540E+01
 0.88872496256E+01 0.82581860132E+01 0.77818888362E+01 0.74257705024E+01 0.71652238289E+01
 0.69862310170E+01 0.68812384061E+01 0.68461091595E+01 0.68801427156E+01 0.69858402429E+01
 0.71670784505E+01 0.74293557241E+01 0.77848891895E+01 0.82583210932E+01 0.88840552402E+01
 0.12239328234E+02 0.14112965810E+02 0.16060200762E+02 0.17833059586E+02 0.19185832905E+02
 0.19930220061E+02 0.19930188074E+02 0.19184840997E+02 0.17829800668E+02 0.16055319499E+02
 0.14109326948E+02 0.12239614355E+02 0.10624374341E+02 0.93408057187E+01 0.83774564061E+01
 0.76744576183E+01 0.71652238289E+01 0.68019572157E+01 0.65619305147E+01 0.64407159351E+01
 0.64407679920E+01 0.65626517908E+01 0.68040222778E+01 0.71677656048E+01 0.76751714040E+01
 0.83747408563E+01 0.93357237854E+01 0.10620233092E+02 0.16959074554E+02 0.20071402239E+02
 0.23305295700E+02 0.26336194510E+02 0.28540926764E+02 0.29351922161E+02 0.28543599374E+02
 0.26339314550E+02 0.23306056330E+02 0.20068700940E+02 0.16954589513E+02 0.14080766164E+02
 0.11681596668E+02 0.98487111326E+01 0.85331100201E+01 0.76176234754E+01 0.69862310170E+01
 0.65619305147E+01 0.63112309823E+01 0.62277782171E+01 0.63121225282E+01 0.65629567821E+01
 0.69862545060E+01 0.76158462403E+01 0.85299162933E+01 0.98459378494E+01 0.11681466085E+02
 0.14083911698E+02 0.25104885709E+02 0.31235550101E+02 0.37673531611E+02 0.43092877882E+02
 0.46195179398E+02 0.46196696504E+02 0.43097198762E+02 0.37679230968E+02 0.31239645265E+02
 0.25104841183E+02 0.20067489180E+02 0.16019048322E+02 0.12749331574E+02 0.10343157487E+02
 0.86914296901E+01 0.75959294218E+01 0.68812384061E+01 0.64407159351E+01 0.62277782171E+01
 0.62281617094E+01 0.64410758049E+01 0.68802833392E+01 0.75936226000E+01 0.86892701832E+01
 0.10343033592E+02 0.12752169567E+02 0.16023841745E+02 0.20071348951E+02 0.41721430603E+02
 0.53395346750E+02 0.64132573920E+02 0.71685391726E+02 0.74403037610E+02 0.71684621729E+02
 0.64132985414E+02 0.53397955952E+02 0.41724924930E+02 0.31267874901E+02 0.23326290188E+02
 0.17801615537E+02 0.13672813681E+02 0.10739860771E+02 0.88108044786E+01 0.75911484723E+01
 0.68461091595E+01 0.64407679920E+01 0.63121225282E+01 0.64410758049E+01 0.68454978036E+01
 0.75897531207E+01 0.88105942571E+01 0.10741989324E+02 0.13676052057E+02 0.17803835951E+02
 0.23326260279E+02 0.31265551495E+02 0.71760360641E+02 0.89737257077E+02 0.10408140384E+03
 0.11203424055E+03 0.11203135988E+03 0.10407525312E+03 0.89732493870E+02 0.71759448847E+02
 0.53444331559E+02 0.37750183411E+02 0.26390863200E+02 0.19170860328E+02 0.14300196185E+02
 0.10961930433E+02 0.88554109334E+01 0.75902385669E+01 0.68801427156E+01 0.65626517908E+01
 0.65629567821E+01 0.68802833392E+01 0.75897531207E+01 0.88558406903E+01 0.10964355455E+02
 0.14302655311E+02 0.19170458446E+02 0.26387367315E+02 0.37745912974E+02 0.53441788824E+02
 0.11629340473E+03 0.13952163181E+03 0.15543861422E+03 0.16110542361E+03 0.15543467259E+03
 0.13951692589E+03 0.11629008442E+03 0.89775833427E+02 0.64223822057E+02 0.43207634391E+02
 0.28621082037E+02 0.19926107469E+02 0.14523202218E+02 0.10963254878E+02 0.88104738135E+01
 0.75935874545E+01 0.69858402429E+01 0.68040222778E+01 0.69862545060E+01 0.75936226000E+01
 0.88105942571E+01 0.10964355455E+02 0.14523954446E+02 0.19924256919E+02 0.28617309981E+02
 0.43205090708E+02 0.64223982169E+02 0.89777791666E+02 0.17309915173E+03 0.19960656573E+03
 0.21432712481E+03 0.21432799686E+03 0.19960905727E+03 0.17310159585E+03 0.13953746890E+03
 0.10414492633E+03 0.71804902954E+02 0.46330035634E+02 0.29438722437E+02 0.19925374884E+02
 0.14302789145E+02 0.10742646329E+02 0.86897221290E+01 0.76150684908E+01 0.71670784505E+01
 0.71677656048E+01 0.76158462403E+01 0.86892701832E+01 0.10741989324E+02 0.14302655311E+02
 0.19924256919E+02 0.29436330673E+02 0.46329458894E+02 0.71808097528E+02 0.10414888048E+03
 0.13953812027E+03 0.23858154891E+03 0.26581869520E+03 0.27566003082E+03 0.26582251495E+03
 0.23858793718E+03 0.19960039180E+03 0.15545505421E+03 0.11211028558E+03 0.74533498480E+02
 0.46328859458E+02 0.28616971615E+02 0.19169981803E+02 0.13677027433E+02 0.10344691027E+02
 0.85296779229E+01 0.76735502684E+01 0.74293557241E+01 0.76751714040E+01 0.85299162933E+01
 0.10343033592E+02 0.13676052057E+02 0.19170458446E+02 0.28617309981E+02 0.46329458894E+02
 0.74536430101E+02 0.11211415399E+03 0.15545523943E+03 0.19959543634E+03 0.30785081836E+03
 0.33187130345E+03 0.33187082232E+03 0.30785148434E+03 0.26579564476E+03 0.21430242013E+03
 0.16112063777E+03 0.11211210716E+03 0.71806876778E+02 0.43204503909E+02 0.26386042031E+02
 0.17802974402E+02 0.12753078714E+02 0.98468709013E+01 0.83740038379E+01 0.77840964883E+01
 0.77848891895E+01 0.83747408563E+01 0.98459378494E+01 0.12752169567E+02 0.17803835951E+02
 0.26387367315E+02 0.43205090708E+02 0.71808097528E+02 0.11211415399E+03 0.16112043102E+03
 0.21429867446E+03 0.26579193965E+03 0.37250932947E+03 0.38748876382E+03 0.37250463654E+03
 0.33184382627E+03 0.27561802792E+03 0.21429967033E+03 0.15545553705E+03 0.10414996083E+03
 0.64225805994E+02 0.37745990033E+02 0.23324534979E+02 0.16023179963E+02 0.11682468673E+02
 0.93360333953E+01 0.82574781482E+01 0.79564329306E+01 0.82583210932E+01 0.93357237854E+01
 0.11681466085E+02 0.16023841745E+02 0.23326260279E+02 0.37745912974E+02 0.64223982169E+02
 0.10414888048E+03 0.15545523943E+03 0.21429867446E+03 0.27561806105E+03 0.33184754567E+03
 0.41992842039E+03 0.41992546415E+03 0.38747402406E+03 0.33184306468E+03 0.26578989253E+03
 0.19959527785E+03 0.13954051432E+03 0.89781761128E+02 0.53443538900E+02 0.31263876457E+02
 0.20070030021E+02 0.14085353790E+02 0.10621444988E+02 0.88825725280E+01 0.81984275896E+01
 0.81997998988E+01 0.88840552402E+01 0.10620233092E+02 0.14083911698E+02 0.20071348951E+02
 0.31265551495E+02 0.53441788824E+02 0.89777791666E+02 0.13953812027E+03 0.19959543634E+03
 0.26579193965E+03 0.33184754567E+03 0.38747998364E+03 0.39230523350E+03 0.37709836939E+03
 0.33585236722E+03 0.27886389928E+03 0.21677279379E+03 0.15722816963E+03 0.10531391742E+03
 0.64887732008E+02 0.38045381791E+02 0.23424850817E+02 0.16064504763E+02 0.11702358874E+02
 0.93448968781E+01 0.82628364638E+01 0.79629879548E+01 0.82664881094E+01 0.93452224752E+01
 0.11698906900E+02 0.16064110083E+02 0.23428360671E+02 0.38046086955E+02 0.64884008666E+02
 0.10531154535E+03 0.15722911131E+03 0.21677311954E+03 0.27886352722E+03 0.33585542633E+03
 0.37710319542E+03 0.37709836939E+03 0.34893269534E+03 0.30014734584E+03 0.24131580998E+03
 0.18140327820E+03 0.12652681105E+03 0.81141160182E+02 0.48416781392E+02 0.28812100325E+02
 0.18943880095E+02 0.13434400114E+02 0.10256254725E+02 0.86572018461E+01 0.80246061285E+01
 0.80263388402E+01 0.86587822222E+01 0.10254265725E+02 0.13432751005E+02 0.18945972373E+02
 0.28813940302E+02 0.48415344905E+02 0.81141087332E+02 0.12653101896E+03 0.18140563690E+03
 0.24131134514E+03 0.30014127230E+03 0.34893121808E+03 0.37709905113E+03 0.33585236722E+03
 0.30014734584E+03 0.25014461951E+03 0.19479075704E+03 0.14107729350E+03 0.94174463545E+02