   2   2   0   0
  0.2304930E+02  0.3037160E-09  0.3037160E-09  0.5770610E-09  0.5000000E-15
  1.000000000000000E-004
  CAR 
 Cd                                      
     54.11031078    -10.17097695  301      2.66900186      1.00000000
    -10.171  0.0000E+00  0.0000E+00
     -9.957  0.0000E+00  0.0000E+00
     -9.742  0.0000E+00  0.0000E+00
     -9.528  0.0000E+00  0.0000E+00
     -9.314  0.0000E+00  0.0000E+00
     -9.100  0.0000E+00  0.0000E+00
     -8.885  0.0000E+00  0.0000E+00
     -8.671  0.0000E+00  0.0000E+00
     -8.457  0.0000E+00  0.0000E+00
     -8.243  0.0000E+00  0.0000E+00
     -8.028  0.0000E+00  0.0000E+00
     -7.814  0.0000E+00  0.0000E+00
     -7.600  0.0000E+00  0.0000E+00
     -7.385  0.2571E-05  0.5508E-06
     -7.171  0.6153E+00  0.1318E+00
     -6.957  0.5849E+01  0.1385E+01
     -6.743  0.1520E+02  0.4641E+01
     -6.528  0.1415E+02  0.7672E+01
     -6.314  0.1195E+02  0.1023E+02
     -6.100  0.1845E+02  0.1418E+02
     -5.886  0.1762E+02  0.1796E+02
     -5.671  0.9015E+01  0.1989E+02
     -5.457  0.7074E+00  0.2004E+02
     -5.243  0.2276E+00  0.2009E+02
     -5.028  0.2672E+00  0.2015E+02
     -4.814  0.1089E+00  0.2017E+02
     -4.600  0.3437E+00  0.2025E+02
     -4.386  0.2498E+00  0.2030E+02
     -4.171  0.3986E+00  0.2039E+02
     -3.957  0.2642E+00  0.2044E+02
     -3.743  0.2359E+00  0.2049E+02
     -3.529  0.4365E+00  0.2059E+02
     -3.314  0.4493E+00  0.2068E+02
     -3.100  0.3756E+00  0.2076E+02
     -2.886  0.3959E+00  0.2085E+02
     -2.671  0.4205E+00  0.2094E+02
     -2.457  0.2692E+00  0.2100E+02
     -2.243  0.5849E+00  0.2112E+02
     -2.029  0.5895E+00  0.2125E+02
     -1.814  0.5378E+00  0.2136E+02
     -1.600  0.3933E+00  0.2145E+02
     -1.386  0.4442E+00  0.2154E+02
     -1.172  0.6306E+00  0.2168E+02
     -0.957  0.2531E+00  0.2173E+02
     -0.743  0.7759E+00  0.2190E+02
     -0.529  0.7225E+00  0.2205E+02
     -0.315  0.4079E+00  0.2214E+02
     -0.100  0.9098E+00  0.2233E+02
      0.114  0.5914E+00  0.2246E+02
      0.328  0.3848E+00  0.2254E+02
      0.543  0.6445E+00  0.2268E+02
      0.757  0.5784E+00  0.2281E+02
      0.971  0.7270E+00  0.2296E+02
      1.185  0.8002E+00  0.2313E+02
      1.400  0.9482E+00  0.2334E+02
      1.614  0.4345E+00  0.2343E+02
      1.828  0.8529E+00  0.2361E+02
      2.042  0.8403E+00  0.2379E+02
      2.257  0.2103E+00  0.2384E+02
      2.471  0.3783E+00  0.2392E+02
      2.685  0.4239E+00  0.2401E+02
      2.900  0.9488E+00  0.2421E+02
      3.114  0.1076E+01  0.2444E+02
      3.328  0.6866E+00  0.2459E+02
      3.542  0.6078E+00  0.2472E+02
      3.757  0.1192E+01  0.2498E+02
      3.971  0.7297E+00  0.2513E+02
      4.185  0.7600E+00  0.2530E+02
      4.399  0.7223E+00  0.2545E+02
      4.614  0.7715E+00  0.2562E+02
      4.828  0.9420E+00  0.2582E+02
      5.042  0.1206E+01  0.2608E+02
      5.257  0.7998E+00  0.2625E+02
      5.471  0.8735E+00  0.2643E+02
      5.685  0.9675E+00  0.2664E+02
      5.899  0.1013E+01  0.2686E+02
      6.114  0.8921E+00  0.2705E+02
      6.328  0.9840E+00  0.2726E+02
      6.542  0.4093E+00  0.2735E+02
      6.756  0.9402E+00  0.2755E+02
      6.971  0.6439E+00  0.2769E+02
      7.185  0.1322E+01  0.2797E+02
      7.399  0.9610E+00  0.2818E+02
      7.614  0.5679E+00  0.2830E+02
      7.828  0.1581E+01  0.2864E+02
      8.042  0.7668E+00  0.2880E+02
      8.256  0.7383E+00  0.2896E+02
      8.471  0.1084E+01  0.2919E+02
      8.685  0.1480E+01  0.2951E+02
      8.899  0.1050E+01  0.2973E+02
      9.113  0.7078E+00  0.2989E+02
      9.328  0.1057E+01  0.3011E+02
      9.542  0.1380E+01  0.3041E+02
      9.756  0.1134E+01  0.3065E+02
      9.970  0.1265E+01  0.3092E+02
     10.185  0.1418E+01  0.3123E+02
     10.399  0.1578E+01  0.3156E+02
     10.613  0.9884E+00  0.3178E+02
     10.828  0.1215E+01  0.3204E+02
     11.042  0.1305E+01  0.3232E+02
     11.256  0.1944E+01  0.3273E+02
     11.470  0.7716E+00  0.3290E+02
     11.685  0.1614E+01  0.3324E+02
     11.899  0.1129E+01  0.3349E+02
     12.113  0.9447E+00  0.3369E+02
     12.327  0.9522E+00  0.3389E+02
     12.542  0.6408E+00  0.3403E+02
     12.756  0.9093E+00  0.3422E+02
     12.970  0.8803E+00  0.3441E+02
     13.185  0.1073E+01  0.3464E+02
     13.399  0.1062E+01  0.3487E+02
     13.613  0.4153E+00  0.3496E+02
     13.827  0.8624E+00  0.3514E+02
     14.042  0.9053E+00  0.3534E+02
     14.256  0.1424E+01  0.3564E+02
     14.470  0.1086E+01  0.3588E+02
     14.684  0.1074E+01  0.3611E+02
     14.899  0.1112E+01  0.3634E+02
     15.113  0.1867E+01  0.3674E+02
     15.327  0.1197E+01  0.3700E+02
     15.542  0.1562E+01  0.3734E+02
     15.756  0.1248E+01  0.3760E+02
     15.970  0.1800E+01  0.3799E+02
     16.184  0.1400E+01  0.3829E+02
     16.399  0.1613E+01  0.3863E+02
     16.613  0.1942E+01  0.3905E+02
     16.827  0.2051E+01  0.3949E+02
     17.041  0.1786E+01  0.3987E+02
     17.256  0.1405E+01  0.4017E+02
     17.470  0.1520E+01  0.4050E+02
     17.684  0.1538E+01  0.4083E+02
     17.899  0.1270E+01  0.4110E+02
     18.113  0.9710E+00  0.4131E+02
     18.327  0.1631E+01  0.4166E+02
     18.541  0.1092E+01  0.4189E+02
     18.756  0.7097E+00  0.4204E+02
     18.970  0.1075E+01  0.4227E+02
     19.184  0.1901E+01  0.4268E+02
     19.398  0.9639E+00  0.4289E+02
     19.613  0.1444E+01  0.4320E+02
     19.827  0.1235E+01  0.4346E+02
     20.041  0.1691E+01  0.4382E+02
     20.255  0.1738E+01  0.4420E+02
     20.470  0.1173E+01  0.4445E+02
     20.684  0.1439E+01  0.4476E+02
     20.898  0.1192E+01  0.4501E+02
     21.113  0.1579E+01  0.4535E+02
     21.327  0.1056E+01  0.4558E+02
     21.541  0.1674E+01  0.4594E+02
     21.755  0.1222E+01  0.4620E+02
     21.970  0.1941E+01  0.4661E+02
     22.184  0.1810E+01  0.4700E+02
     22.398  0.1975E+01  0.4742E+02
     22.612  0.1232E+01  0.4769E+02
     22.827  0.1759E+01  0.4807E+02
     23.041  0.1640E+01  0.4842E+02
     23.255  0.1666E+01  0.4877E+02
     23.470  0.1934E+01  0.4919E+02
     23.684  0.1718E+01  0.4956E+02
     23.898  0.1387E+01  0.4985E+02
     24.112  0.2002E+01  0.5028E+02
     24.327  0.1573E+01  0.5062E+02
     24.541  0.1894E+01  0.5103E+02
     24.755  0.1828E+01  0.5142E+02
     24.969  0.1475E+01  0.5173E+02
     25.184  0.1809E+01  0.5212E+02
     25.398  0.1738E+01  0.5249E+02
     25.612  0.2029E+01  0.5293E+02
     25.827  0.2122E+01  0.5338E+02
     26.041  0.1378E+01  0.5368E+02
     26.255  0.2190E+01  0.5415E+02
     26.469  0.2584E+01  0.5470E+02
     26.684  0.2286E+01  0.5519E+02
     26.898  0.1479E+01  0.5551E+02
     27.112  0.2084E+01  0.5595E+02
     27.326  0.2036E+01  0.5639E+02
     27.541  0.1725E+01  0.5676E+02
     27.755  0.2427E+01  0.5728E+02
     27.969  0.1771E+01  0.5766E+02
     28.184  0.1684E+01  0.5802E+02
     28.398  0.1486E+01  0.5834E+02
     28.612  0.2176E+01  0.5880E+02
     28.826  0.1670E+01  0.5916E+02
     29.041  0.2416E+01  0.5968E+02
     29.255  0.1953E+01  0.6010E+02
     29.469  0.1657E+01  0.6045E+02
     29.683  0.1822E+01  0.6084E+02
     29.898  0.1620E+01  0.6119E+02
     30.112  0.1709E+01  0.6156E+02
     30.326  0.1669E+01  0.6192E+02
     30.541  0.1835E+01  0.6231E+02
     30.755  0.1545E+01  0.6264E+02
     30.969  0.1833E+01  0.6303E+02
     31.183  0.1653E+01  0.6339E+02
     31.398  0.1888E+01  0.6379E+02
     31.612  0.1691E+01  0.6415E+02
     31.826  0.2171E+01  0.6462E+02
     32.040  0.2089E+01  0.6507E+02
     32.255  0.1978E+01  0.6549E+02
     32.469  0.1828E+01  0.6588E+02
     32.683  0.2494E+01  0.6642E+02
     32.897  0.2180E+01  0.6688E+02
     33.112  0.2010E+01  0.6731E+02
     33.326  0.2089E+01  0.6776E+02
     33.540  0.1722E+01  0.6813E+02
     33.755  0.1129E+01  0.6837E+02
     33.969  0.2856E+01  0.6898E+02
     34.183  0.2155E+01  0.6945E+02
     34.397  0.2968E+01  0.7008E+02
     34.612  0.1225E+01  0.7034E+02
     34.826  0.1240E+01  0.7061E+02
     35.040  0.1854E+01  0.7101E+02
     35.254  0.1740E+01  0.7138E+02
     35.469  0.2375E+01  0.7189E+02
     35.683  0.2039E+01  0.7233E+02
     35.897  0.1620E+01  0.7267E+02
     36.112  0.2192E+01  0.7314E+02
     36.326  0.1698E+01  0.7351E+02
     36.540  0.2076E+01  0.7395E+02
     36.754  0.1849E+01  0.7435E+02
     36.969  0.2259E+01  0.7483E+02
     37.183  0.2008E+01  0.7526E+02
     37.397  0.2505E+01  0.7580E+02
     37.611  0.2110E+01  0.7625E+02
     37.826  0.2538E+01  0.7679E+02
     38.040  0.2459E+01  0.7732E+02
     38.254  0.2254E+01  0.7780E+02
     38.469  0.2334E+01  0.7830E+02
     38.683  0.1908E+01  0.7871E+02
     38.897  0.1685E+01  0.7907E+02
     39.111  0.1900E+01  0.7948E+02
     39.326  0.1599E+01  0.7982E+02
     39.540  0.2010E+01  0.8025E+02
     39.754  0.2367E+01  0.8076E+02
     39.968  0.2578E+01  0.8131E+02
     40.183  0.2757E+01  0.8191E+02
     40.397  0.2092E+01  0.8235E+02
     40.611  0.2340E+01  0.8285E+02
     40.826  0.2564E+01  0.8340E+02
     41.040  0.2698E+01  0.8398E+02
     41.254  0.2570E+01  0.8453E+02
     41.468  0.2854E+01  0.8514E+02
     41.683  0.2586E+01  0.8570E+02
     41.897  0.2163E+01  0.8616E+02
     42.111  0.2247E+01  0.8664E+02
     42.325  0.2725E+01  0.8723E+02
     42.540  0.1746E+01  0.8760E+02
     42.754  0.2312E+01  0.8810E+02
     42.968  0.2039E+01  0.8853E+02
     43.182  0.2668E+01  0.8910E+02
     43.397  0.1616E+01  0.8945E+02
     43.611  0.1770E+01  0.8983E+02
     43.825  0.2624E+01  0.9039E+02
     44.040  0.2935E+01  0.9102E+02
     44.254  0.2659E+01  0.9159E+02
     44.468  0.1816E+01  0.9198E+02
     44.682  0.2149E+01  0.9244E+02
     44.897  0.2071E+01  0.9288E+02
     45.111  0.2620E+01  0.9345E+02
     45.325  0.1961E+01  0.9387E+02
     45.539  0.1220E+01  0.9413E+02
     45.754  0.1392E+01  0.9443E+02
     45.968  0.2050E+01  0.9486E+02
     46.182  0.1343E+01  0.9515E+02
     46.397  0.6842E+00  0.9530E+02
     46.611  0.8513E+00  0.9548E+02
     46.825  0.6748E+00  0.9563E+02
     47.039  0.5751E+00  0.9575E+02
     47.254  0.2931E+00  0.9581E+02
     47.468  0.2193E+00  0.9586E+02
     47.682  0.2653E+00  0.9592E+02
     47.896  0.1094E+00  0.9594E+02
     48.111  0.7299E-01  0.9596E+02
     48.325  0.9145E-02  0.9596E+02
     48.539  0.2528E-08  0.9596E+02
     48.754  0.1193E-07  0.9596E+02
     48.968  0.5415E-01  0.9597E+02
     49.182  0.1272E-01  0.9597E+02
     49.396  0.8752E-02  0.9597E+02
     49.611  0.8319E-02  0.9598E+02
     49.825  0.5650E-01  0.9599E+02
     50.039  0.2234E-01  0.9599E+02
     50.253  0.2050E-01  0.9600E+02
     50.468  0.3772E-03  0.9600E+02
     50.682  0.3287E-12  0.9600E+02
     50.896  0.3405E-02  0.9600E+02
     51.111  0.7472E-02  0.9600E+02
     51.325  0.5327E-02  0.9600E+02
     51.539  0.3104E-06  0.9600E+02
     51.753  0.0000E+00  0.9600E+02
     51.968  0.0000E+00  0.9600E+02
     52.182  0.0000E+00  0.9600E+02
     52.396  0.0000E+00  0.9600E+02
     52.610  0.0000E+00  0.9600E+02
     52.825  0.0000E+00  0.9600E+02
     53.039  0.0000E+00  0.9600E+02
     53.253  0.0000E+00  0.9600E+02
     53.467  0.0000E+00  0.9600E+02
     53.682  0.0000E+00  0.9600E+02
     53.896  0.0000E+00  0.9600E+02
     54.110  0.0000E+00  0.9600E+02
