    2    2    1    1
  0.2304930E+02  0.3037160E-09  0.3037160E-09  0.5770610E-09  0.5000000E-15
  1.000000000000000E-004
  CAR 
 Cd                                      
     24    133     48
 
  0.0000000E+00  0.0000000E+00  0.0000000E+00  0.5787037E-03
      1         -7.106476   1.000000
      2         -6.890817   1.000000
      3         -6.573788   1.000000
      4         -6.573777   1.000000
      5         -6.531770   1.000000
      6         -6.531759   1.000000
      7         -6.106500   1.000000
      8         -6.106496   1.000000
      9         -5.900971   1.000000
     10         -5.897069   1.000000
     11         -5.897065   1.000000
     12         -0.616729   1.000000
     13         -0.246307   1.000000
     14         12.507217   0.000000
     15         16.589161   0.000000
     16         16.763078   0.000000
     17         16.817629   0.000000
     18         16.817642   0.000000
     19         17.922706   0.000000
     20         18.419036   0.000000
     21         18.419062   0.000000
     22         21.046154   0.000000
     23         21.783327   0.000000
     24         21.783340   0.000000
     25         22.264594   0.000000
     26         22.619082   0.000000
     27         22.619139   0.000000
     28         23.207945   0.000000
     29         23.207956   0.000000
     30         23.861822   0.000000
     31         23.861913   0.000000
     32         24.231554   0.000000
     33         28.480554   0.000000
     34         33.043579   0.000000
     35         34.136934   0.000000
     36         34.136961   0.000000
     37         34.655017   0.000000
     38         34.655058   0.000000
     39         35.213612   0.000000
     40         35.507768   0.000000
     41         35.507843   0.000000
     42         35.955813   0.000000
     43         37.754889   0.000000
     44         37.754917   0.000000
     45         38.266454   0.000000
     46         38.596170   0.000000
     47         46.299904   0.000000
     48         51.188434   0.000000
 
  0.8333333E-01 -0.3430460E-17  0.0000000E+00  0.3472222E-02
      1         -7.044625   1.000000
      2         -6.840034   1.000000
      3         -6.594022   1.000000
      4         -6.551510   1.000000
      5         -6.516229   1.000000
      6         -6.476227   1.000000
      7         -6.152507   1.000000
      8         -6.125861   1.000000
      9         -5.971486   1.000000
     10         -5.896037   1.000000
     11         -5.749738   1.000000
     12         -0.512863   1.000000
     13          0.000742   1.000000
     14         12.716856   0.000000
     15         14.383962   0.000000
     16         15.637959   0.000000
     17         16.374605   0.000000
     18         16.580180   0.000000
     19         18.257199   0.000000
     20         18.932636   0.000000
     21         18.962635   0.000000
     22         19.287359   0.000000
     23         20.053464   0.000000
     24         21.148835   0.000000
     25         21.622716   0.000000
     26         22.302743   0.000000
     27         24.115102   0.000000
     28         24.124628   0.000000
     29         24.142939   0.000000
     30         25.516311   0.000000
     31         25.602383   0.000000
     32         26.303641   0.000000
     33         29.342021   0.000000
     34         32.149759   0.000000
     35         32.365128   0.000000
     36         32.931443   0.000000
     37         33.089071   0.000000
     38         34.057656   0.000000
     39         35.379607   0.000000
     40         35.912951   0.000000
     41         37.287971   0.000000
     42         37.477887   0.000000
     43         37.482972   0.000000
     44         38.081920   0.000000
     45         40.071102   0.000000
     46         40.629760   0.000000
     47         46.400840   0.000000
     48         50.021702   0.000000
 
  0.1666667E+00 -0.1908350E-16  0.0000000E+00  0.3472222E-02
      1         -6.945852   1.000000
      2         -6.756902   1.000000
      3         -6.648507   1.000000
      4         -6.525776   1.000000
      5         -6.357457   1.000000
      6         -6.322696   1.000000
      7         -6.301278   1.000000
      8         -6.174618   1.000000
      9         -6.128528   1.000000
     10         -5.898233   1.000000
     11         -5.246651   1.000000
     12         -0.177812   1.000000
     13          0.692658   1.000000
     14         11.272093   0.000000
     15         13.279375   0.000000
     16         14.062081   0.000000
     17         15.453257   0.000000
     18         15.815264   0.000000
     19         16.218558   0.000000
     20         17.161279   0.000000
     21         18.501826   0.000000
     22         18.614674   0.000000
     23         19.366738   0.000000
     24         20.325196   0.000000
     25         22.740892   0.000000
     26         24.072346   0.000000
     27         25.626582   0.000000
     28         25.746175   0.000000
     29         26.374158   0.000000
     30         27.778121   0.000000
     31         28.138978   0.000000
     32         28.864157   0.000000
     33         29.060962   0.000000
     34         30.702691   0.000000
     35         31.486370   0.000000
     36         32.159729   0.000000
     37         32.297962   0.000000
     38         33.896620   0.000000
     39         35.128178   0.000000
     40         35.389850   0.000000
     41         38.966998   0.000000
     42         38.977630   0.000000
     43         39.547392   0.000000
     44         40.222740   0.000000
     45         42.936391   0.000000
     46         43.481907   0.000000
     47         46.431985   0.000000
     48         47.522354   0.000000
 
  0.2500000E+00 -0.3446364E-16  0.0000000E+00  0.3472222E-02
      1         -7.003061   1.000000
      2         -6.817082   1.000000
      3         -6.546485   1.000000
      4         -6.524816   1.000000
      5         -6.354066   1.000000
      6         -6.276580   1.000000
      7         -6.235866   1.000000
      8         -6.131887   1.000000
      9         -6.104870   1.000000
     10         -5.905956   1.000000
     11         -4.345198   1.000000
     12          0.450257   1.000000
     13          1.731744   1.000000
     14          8.268569   0.000000
     15         12.572545   0.000000
     16         12.683003   0.000000
     17         13.020785   0.000000
     18         14.904362   0.000000
     19         15.343071   0.000000
     20         17.036492   0.000000
     21         17.363147   0.000000
     22         17.447252   0.000000
     23         19.677450   0.000000
     24         19.858611   0.000000
     25         24.991358   0.000000
     26         25.760091   0.000000
     27         26.599713   0.000000
     28         26.619241   0.000000
     29         27.694815   0.000000
     30         28.139065   0.000000
     31         28.849558   0.000000
     32         29.440462   0.000000
     33         30.769043   0.000000
     34         30.921665   0.000000
     35         31.906831   0.000000
     36         33.738560   0.000000
     37         33.780239   0.000000
     38         33.885711   0.000000
     39         36.201662   0.000000
     40         36.532150   0.000000
     41         40.209603   0.000000
     42         40.226180   0.000000
     43         41.720336   0.000000
     44         43.049542   0.000000
     45         44.593890   0.000000
     46         44.718993   0.000000
     47         45.730368   0.000000
     48         46.184131   0.000000
 
  0.3333333E+00 -0.2260390E-16  0.0000000E+00  0.3472222E-02
      1         -7.121390   1.000000
      2         -6.945129   1.000000
      3         -6.733465   1.000000
      4         -6.401949   1.000000
      5         -6.392924   1.000000
      6         -6.292665   1.000000
      7         -6.138075   1.000000
      8         -5.917146   1.000000
      9         -5.896390   1.000000
     10         -5.876494   1.000000
     11         -3.057900   1.000000
     12          1.437920   1.000000
     13          3.029994   0.000000
     14          5.476166   0.000000
     15          9.716122   0.000000
     16         10.870011   0.000000
     17         11.609767   0.000000
     18         15.020476   0.000000
     19         15.826397   0.000000
     20         16.067804   0.000000
     21         16.595804   0.000000
     22         17.874861   0.000000
     23         19.224610   0.000000
     24         20.057230   0.000000
     25         24.334349   0.000000
     26         24.495601   0.000000
     27         27.302885   0.000000
     28         28.046531   0.000000
     29         29.076947   0.000000
     30         29.537814   0.000000
     31         29.810959   0.000000
     32         30.460432   0.000000
     33         31.749659   0.000000
     34         32.899536   0.000000
     35         33.848799   0.000000
     36         33.999303   0.000000
     37         35.700332   0.000000
     38         36.794926   0.000000
     39         38.540644   0.000000
     40         39.186897   0.000000
     41         41.053908   0.000000
     42         41.139501   0.000000
     43         41.299201   0.000000
     44         42.754140   0.000000
     45         43.677772   0.000000
     46         44.240763   0.000000
     47         45.513504   0.000000
     48         45.560099   0.000000
 
  0.4166667E+00  0.9160750E-17  0.0000000E+00  0.3472222E-02
      1         -7.214689   1.000000
      2         -7.040768   1.000000
      3         -6.872390   1.000000
      4         -6.488277   1.000000
      5         -6.332990   1.000000
      6         -6.288779   1.000000
      7         -5.979433   1.000000
      8         -5.927004   1.000000
      9         -5.719000   1.000000
     10         -5.700974   1.000000
     11         -1.416140   1.000000
     12          2.525960   0.999974
     13          3.237575   0.000000
     14          4.484880   0.000000
     15          7.142139   0.000000
     16          8.813478   0.000000
     17         10.923045   0.000000
     18         14.831741   0.000000
     19         15.044005   0.000000
     20         16.075661   0.000000
     21         17.694590   0.000000
     22         18.582121   0.000000
     23         18.957972   0.000000
     24         19.939211   0.000000
     25         22.105922   0.000000
     26         23.026677   0.000000
     27         27.922246   0.000000
     28         28.931870   0.000000
     29         30.475163   0.000000
     30         30.625308   0.000000
     31         31.575053   0.000000
     32         32.064476   0.000000
     33         34.539805   0.000000
     34         34.551108   0.000000
     35         34.674421   0.000000
     36         35.095720   0.000000
     37         37.664990   0.000000
     38         38.678300   0.000000
     39         38.812390   0.000000
     40         39.703347   0.000000
     41         39.901721   0.000000
     42         41.180047   0.000000
     43         41.757926   0.000000
     44         42.364711   0.000000
     45         42.589983   0.000000
     46         42.638141   0.000000
     47         43.806330   0.000000
     48         44.120179   0.000000
 
  0.5000000E+00 -0.6892728E-16  0.0000000E+00  0.1736111E-02
      1         -7.249100   1.000000
      2         -7.075481   1.000000
      3         -6.920543   1.000000
      4         -6.518864   1.000000
      5         -6.347234   1.000000
      6         -6.251360   1.000000
      7         -5.930723   1.000000
      8         -5.923064   1.000000
      9         -5.653784   1.000000
     10         -5.633412   1.000000
     11          0.383304   1.000000
     12          0.733020   1.000000
     13          4.349976   0.000000
     14          5.321497   0.000000
     15          5.506327   0.000000
     16          7.589595   0.000000
     17         10.685853   0.000000
     18         14.769698   0.000000
     19         14.773455   0.000000
     20         15.901991   0.000000
     21         18.870192   0.000000
     22         19.026854   0.000000
     23         19.245162   0.000000
     24         19.519004   0.000000
     25         20.574416   0.000000
     26         22.478837   0.000000
     27         27.804302   0.000000
     28         28.715920   0.000000
     29         32.005278   0.000000
     30         32.086806   0.000000
     31         32.132965   0.000000
     32         33.377443   0.000000
     33         34.392590   0.000000
     34         34.550462   0.000000
     35         35.881475   0.000000
     36         36.882251   0.000000
     37         37.905829   0.000000
     38         38.333612   0.000000
     39         38.499224   0.000000
     40         38.562134   0.000000
     41         39.992031   0.000000
     42         40.217401   0.000000
     43         40.986343   0.000000
     44         40.989317   0.000000
     45         41.504806   0.000000
     46         44.017440   0.000000
     47         44.609682   0.000000
     48         45.770974   0.000000
 
  0.1666667E+00  0.8333333E-01  0.0000000E+00  0.3472222E-02
      1         -6.944111   1.000000
      2         -6.775774   1.000000
      3         -6.621799   1.000000
      4         -6.586137   1.000000
      5         -6.393812   1.000000
      6         -6.384916   1.000000
      7         -6.221446   1.000000
      8         -6.206878   1.000000
      9         -6.060500   1.000000
     10         -5.903577   1.000000
     11         -5.414448   1.000000
     12         -0.292869   1.000000
     13          0.469347   1.000000
     14         12.793117   0.000000
     15         13.022959   0.000000
     16         13.112811   0.000000
     17         16.352365   0.000000
     18         17.163035   0.000000
     19         17.417313   0.000000
     20         17.567437   0.000000
     21         17.651796   0.000000
     22         18.054440   0.000000
     23         18.943561   0.000000
     24         22.121018   0.000000
     25         22.635828   0.000000
     26         23.364190   0.000000
     27         23.401969   0.000000
     28         25.662346   0.000000
     29         26.114798   0.000000
     30         27.285515   0.000000
     31         27.289128   0.000000
     32         28.704080   0.000000
     33         30.032633   0.000000
     34         30.763378   0.000000
     35         30.793916   0.000000
     36         32.069751   0.000000
     37         32.129836   0.000000
     38         34.046632   0.000000
     39         36.065357   0.000000
     40         36.147585   0.000000
     41         37.135306   0.000000
     42         37.562038   0.000000
     43         39.648024   0.000000
     44         40.142648   0.000000
     45         42.142016   0.000000
     46         42.621150   0.000000
     47         46.530130   0.000000
     48         47.767117   0.000000
 
  0.2500000E+00  0.8333333E-01  0.0000000E+00  0.6944444E-02
      1         -6.892253   1.000000
      2         -6.697574   1.000000
      3         -6.686126   1.000000
      4         -6.508180   1.000000
      5         -6.415903   1.000000
      6         -6.305599   1.000000
      7         -6.233635   1.000000
      8         -6.178091   1.000000
      9         -6.148021   1.000000
     10         -5.918189   1.000000
     11         -4.691937   1.000000
     12          0.192827   1.000000
     13          1.331605   1.000000
     14          9.833456   0.000000
     15         11.620400   0.000000
     16         13.627939   0.000000
     17         14.156270   0.000000
     18         15.204301   0.000000
     19         15.885177   0.000000
     20         16.489829   0.000000
     21         17.282218   0.000000
     22         17.624832   0.000000
     23         20.176926   0.000000
     24         21.674677   0.000000
     25         23.178412   0.000000
     26         24.944675   0.000000
     27         25.536241   0.000000
     28         27.173288   0.000000
     29         27.663236   0.000000
     30         28.027380   0.000000
     31         28.772540   0.000000
     32         28.922960   0.000000
     33         29.603741   0.000000
     34         31.030751   0.000000
     35         31.466349   0.000000
     36         32.102603   0.000000
     37         33.994485   0.000000
     38         34.339915   0.000000
     39         36.222294   0.000000
     40         36.335405   0.000000
     41         38.613765   0.000000
     42         38.840114   0.000000
     43         41.286456   0.000000
     44         42.773628   0.000000
     45         44.414635   0.000000
     46         45.028301   0.000000
     47         45.234671   0.000000
     48         46.292963   0.000000
 
  0.3333333E+00  0.8333333E-01  0.0000000E+00  0.6944444E-02
      1         -6.999614   1.000000
      2         -6.822783   1.000000
      3         -6.635243   1.000000
      4         -6.499045   1.000000
      5         -6.394701   1.000000
      6         -6.309291   1.000000
      7         -6.240737   1.000000
      8         -6.042797   1.000000
      9         -5.947141   1.000000
     10         -5.933967   1.000000
     11         -3.585343   1.000000
     12          1.013888   1.000000
     13          2.498151   0.999999
     14          6.940550   0.000000
     15         10.493330   0.000000
     16         11.304765   0.000000
     17         12.084095   0.000000
     18         14.865908   0.000000
     19         15.253656   0.000000
     20         15.816467   0.000000
     21         16.836609   0.000000
     22         17.872371   0.000000
     23         21.030263   0.000000
     24         21.175561   0.000000
     25         24.261293   0.000000
     26         25.590455   0.000000
     27         25.717011   0.000000
     28         27.153364   0.000000
     29         27.441143   0.000000
     30         28.829875   0.000000
     31         28.858275   0.000000
     32         29.826049   0.000000
     33         31.843881   0.000000
     34         32.428302   0.000000
     35         33.858586   0.000000
     36         34.426183   0.000000
     37         35.563736   0.000000
     38         35.683315   0.000000
     39         37.344623   0.000000
     40         37.608122   0.000000
     41         40.203544   0.000000
     42         40.383389   0.000000
     43         42.005027   0.000000
     44         42.699891   0.000000
     45         43.885120   0.000000
     46         44.896630   0.000000
     47         45.555331   0.000000
     48         45.802116   0.000000
 
  0.4166667E+00  0.8333333E-01  0.0000000E+00  0.6944444E-02
      1         -7.110785   1.000000
      2         -6.934328   1.000000
      3         -6.804358   1.000000
      4         -6.466384   1.000000
      5         -6.345681   1.000000
      6         -6.319700   1.000000
      7         -6.103135   1.000000
      8         -5.948554   1.000000
      9         -5.856366   1.000000
     10         -5.773256   1.000000
     11         -2.118522   1.000000
     12          2.206631   1.000000
     13          3.887244   0.000000
     14          4.296129   0.000000
     15          8.464479   0.000000
     16          9.843403   0.000000
     17          9.905146   0.000000
     18         14.053737   0.000000
     19         14.934545   0.000000
     20         16.478898   0.000000
     21         16.977060   0.000000
     22         18.455822   0.000000
     23         20.597351   0.000000
     24         21.202669   0.000000
     25         23.340264   0.000000
     26         23.822656   0.000000
     27         26.455127   0.000000
     28         27.730823   0.000000
     29         27.884984   0.000000
     30         30.096404   0.000000
     31         31.032801   0.000000
     32         32.071912   0.000000
     33         33.239790   0.000000
     34         33.913916   0.000000
     35         35.305446   0.000000
     36         35.988255   0.000000
     37         36.726437   0.000000
     38         38.106061   0.000000
     39         38.328259   0.000000
     40         39.717583   0.000000
     41         40.706673   0.000000
     42         40.876855   0.000000
     43         41.664448   0.000000
     44         42.436369   0.000000
     45         42.850215   0.000000
     46         43.098336   0.000000
     47         44.157077   0.000000
     48         44.987600   0.000000
 
  0.5000000E+00  0.8333333E-01  0.0000000E+00  0.6944444E-02
      1         -7.176085   1.000000
      2         -6.998826   1.000000
      3         -6.894476   1.000000
      4         -6.506395   1.000000
      5         -6.364819   1.000000
      6         -6.263245   1.000000
      7         -5.970623   1.000000
      8         -5.957405   1.000000
      9         -5.730407   1.000000
     10         -5.695753   1.000000
     11         -0.321607   1.000000
     12          1.792634   1.000000
     13          3.901314   0.000000
     14          5.308539   0.000000
     15          6.125222   0.000000
     16          8.075734   0.000000
     17          9.409540   0.000000
     18         13.610205   0.000000
     19         14.649634   0.000000
     20         16.294830   0.000000
     21         18.551918   0.000000
     22         19.165684   0.000000
     23         20.429961   0.000000
     24         20.707763   0.000000
     25         21.298833   0.000000
     26         22.975806   0.000000
     27         26.844115   0.000000
     28         27.603841   0.000000
     29         29.846407   0.000000
     30         32.571290   0.000000
     31         32.625735   0.000000
     32         33.026793   0.000000
     33         34.221990   0.000000
     34         34.363575   0.000000
     35         35.011467   0.000000
     36         36.355807   0.000000
     37         38.252901   0.000000
     38         38.533014   0.000000
     39         38.755624   0.000000
     40         39.873922   0.000000
     41         40.161953   0.000000
     42         40.474745   0.000000
     43         41.230281   0.000000
     44         42.320096   0.000000
     45         42.803729   0.000000
     46         43.812884   0.000000
     47         44.866216   0.000000
     48         45.274897   0.000000
 
  0.3333333E+00  0.1666667E+00  0.0000000E+00  0.3472222E-02
      1         -6.798290   1.000000
      2         -6.774905   1.000000
      3         -6.575190   1.000000
      4         -6.570629   1.000000
      5         -6.483162   1.000000
      6         -6.430170   1.000000
      7         -6.193601   1.000000
      8         -6.152109   1.000000
      9         -5.958706   1.000000
     10         -5.950343   1.000000
     11         -3.743931   1.000000
     12          0.881130   1.000000
     13          2.317820   1.000000
     14          8.432169   0.000000
     15          8.913901   0.000000
     16         12.868645   0.000000
     17         13.172125   0.000000
     18         13.182318   0.000000
     19         14.105163   0.000000
     20         15.508384   0.000000
     21         17.816933   0.000000
     22         19.393153   0.000000
     23         20.474044   0.000000
     24         23.531481   0.000000
     25         24.157238   0.000000
     26         24.404466   0.000000
     27         25.315882   0.000000
     28         26.641698   0.000000
     29         27.373042   0.000000
     30         27.537299   0.000000
     31         27.745367   0.000000
     32         30.313174   0.000000
     33         31.155452   0.000000
     34         33.934645   0.000000
     35         34.031241   0.000000
     36         34.232279   0.000000
     37         35.136213   0.000000
     38         35.676378   0.000000
     39         37.443663   0.000000
     40         38.059676   0.000000
     41         38.388771   0.000000
     42         39.425082   0.000000
     43         42.126467   0.000000
     44         42.363008   0.000000
     45         43.740491   0.000000
     46         45.240305   0.000000
     47         45.802227   0.000000
     48         45.900713   0.000000
 
  0.4166667E+00  0.1666667E+00  0.0000000E+00  0.6944444E-02
      1         -6.896594   1.000000
      2         -6.755733   1.000000
      3         -6.725388   1.000000
      4         -6.494568   1.000000
      5         -6.469915   1.000000
      6         -6.295045   1.000000
      7         -6.279910   1.000000
      8         -6.065468   1.000000
      9         -5.995510   1.000000
     10         -5.791333   1.000000
     11         -2.442097   1.000000
     12          1.945727   1.000000
     13          3.579796   0.000000
     14          5.879568   0.000000
     15          7.804665   0.000000
     16         10.230210   0.000000
     17         11.238626   0.000000
     18         12.132173   0.000000
     19         13.182288   0.000000
     20         16.645501   0.000000
     21         18.340146   0.000000
     22         19.453983   0.000000
     23         22.567061   0.000000
     24         23.225997   0.000000
     25         23.754148   0.000000
     26         24.906041   0.000000
     27         25.274990   0.000000
     28         25.856607   0.000000
     29         26.181286   0.000000
     30         27.281120   0.000000
     31         28.606857   0.000000
     32         32.847483   0.000000
     33         34.352554   0.000000
     34         35.475921   0.000000
     35         35.598220   0.000000
     36         36.112629   0.000000
     37         36.661749   0.000000
     38         37.799276   0.000000
     39         37.984632   0.000000
     40         38.838818   0.000000
     41         39.548981   0.000000
     42         40.154899   0.000000
     43         40.577118   0.000000
     44         42.299899   0.000000
     45         42.976110   0.000000
     46         43.570339   0.000000
     47         45.225960   0.000000
     48         45.792261   0.000000
 
  0.5000000E+00  0.1666667E+00  0.0000000E+00  0.6944444E-02
      1         -6.976507   1.000000
      2         -6.830390   1.000000
      3         -6.801003   1.000000
      4         -6.509217   1.000000
      5         -6.374970   1.000000
      6         -6.325088   1.000000
      7         -6.113981   1.000000
      8         -6.019868   1.000000
      9         -5.967098   1.000000
     10         -5.751296   1.000000
     11         -0.812332   1.000000
     12          3.200501   0.000000
     13          3.593289   0.000000
     14          5.028328   0.000000
     15          7.089069   0.000000
     16          7.831658   0.000000
     17          9.189221   0.000000
     18         11.544768   0.000000
     19         12.762405   0.000000
     20         18.180434   0.000000
     21         18.883477   0.000000
     22         19.335282   0.000000
     23         22.203809   0.000000
     24         22.332301   0.000000
     25         23.464557   0.000000
     26         24.570374   0.000000
     27         25.164603   0.000000
     28         25.730823   0.000000
     29         26.567552   0.000000
     30         29.689922   0.000000
     31         31.080105   0.000000
     32         32.681023   0.000000
     33         34.672841   0.000000
     34         35.575448   0.000000
     35         36.265677   0.000000
     36         36.479080   0.000000
     37         37.969788   0.000000
     38         38.560379   0.000000
     39         38.948711   0.000000
     40         40.059364   0.000000
     41         40.263293   0.000000
     42         42.028096   0.000000
     43         42.040978   0.000000
     44         42.736952   0.000000
     45         43.154924   0.000000
     46         43.493833   0.000000
     47         44.547954   0.000000
     48         45.823361   0.000000
 
 -0.4166667E+00  0.1666667E+00  0.0000000E+00  0.3472222E-02
      1         -7.005642   1.000000
      2         -6.866718   1.000000
      3         -6.822663   1.000000
      4         -6.494345   1.000000
      5         -6.429769   1.000000
      6         -6.259225   1.000000
      7         -6.062692   1.000000
      8         -6.028053   1.000000
      9         -5.838782   1.000000
     10         -5.818549   1.000000
     11          1.061728   1.000000
     12          1.192306   1.000000
     13          4.976529   0.000000
     14          5.653097   0.000000
     15          6.102081   0.000000
     16          7.166953   0.000000
     17          7.910033   0.000000
     18         11.341877   0.000000
     19         12.625021   0.000000
     20         18.923993   0.000000
     21         19.433833   0.000000
     22         19.685990   0.000000
     23         20.916525   0.000000
     24         21.581995   0.000000
     25         23.175200   0.000000
     26         24.674828   0.000000
     27         25.180647   0.000000
     28         25.594593   0.000000
     29         29.033303   0.000000
     30         29.610885   0.000000
     31         32.605812   0.000000
     32         32.859987   0.000000
     33         33.812259   0.000000
     34         34.181236   0.000000
     35         35.829765   0.000000
     36         35.929773   0.000000
     37         39.226058   0.000000
     38         39.683127   0.000000
     39         40.018964   0.000000
     40         40.696555   0.000000
     41         40.870363   0.000000
     42         42.154005   0.000000
     43         42.177143   0.000000
     44         42.919547   0.000000
     45         43.791084   0.000000
     46         45.163016   0.000000
     47         45.343184   0.000000
     48         45.738262   0.000000
 
  0.5000000E+00  0.2500000E+00  0.0000000E+00  0.3472222E-02
      1         -6.786788   1.000000
      2         -6.763189   1.000000
      3         -6.708780   1.000000
      4         -6.537850   1.000000
      5         -6.385210   1.000000
      6         -6.356167   1.000000
      7         -6.236332   1.000000
      8         -6.128927   1.000000