       N       E                     dE             d eps       ncg     rms          rms(c)
DAV:   1    -0.149450652717E+01   -0.14945E+01   -0.36293E-05  6960   0.188E-02    0.116E-02
DAV:   2    -0.149450583847E+01    0.68870E-06   -0.56718E-06  6720   0.939E-03
   1 F= -.14945058E+01 E0= -.14941917E+01  d E =-.628253E-03
       N       E                     dE             ncg
DAV:   1    -0.142701267176E+05   -0.76618E+05    12960
DAV:   2    -0.176145205511E+05   -0.33444E+04    18384
DAV:   3    -0.176193185944E+05   -0.47980E+01    13248
DAV:   4    -0.176193192311E+05   -0.63667E-03    24384
DAV:   5    -0.176193192311E+05   -0.72760E-09    13440
       N       E                     dE             ncg
DAV:   1     0.603865990008E+05   -0.20342E+04     1344
DAV:   2     0.599945496210E+05   -0.39205E+03     1392
DAV:   3     0.599933799773E+05   -0.11696E+01     1680
DAV:   4     0.599933798426E+05   -0.13468E-03     2160
DAV:   5     0.599933798426E+05   -0.53842E-09     1920
