Cd                                      
           1
     3.037160    0.000000    0.000000
     1.518580    2.630258    0.000000
     0.000000    0.000000    5.770610
   Cd
     2
Direct configuration=     1
   0.00000000  0.00000000  0.00000000
   0.33333333  0.33333333  0.50000000
